REMARK  Name = 
REMARK  16 active torsions:
REMARK  status: ('A' for Active; 'I' for Inactive)
REMARK    1  A    between atoms: C_1  and  C_2
REMARK    2  A    between atoms: C_4  and  O_5
REMARK    3  A    between atoms: O_5  and  C_6
REMARK    4  A    between atoms: C_7  and  O_8
REMARK    5  A    between atoms: C_9  and  O_10
REMARK    6  A    between atoms: C_11  and  O_12
REMARK    7  A    between atoms: O_12  and  C_13
REMARK    8  A    between atoms: C_18  and  O_19
REMARK    9  A    between atoms: C_23  and  C_24
REMARK   10  A    between atoms: C_25  and  C_26
REMARK   11  A    between atoms: C_35  and  O_36
REMARK   12  A    between atoms: C_37  and  C_38
REMARK   13  A    between atoms: C_42  and  C_43
REMARK   14  A    between atoms: C_44  and  O_45
REMARK   15  A    between atoms: C_46  and  O_47
REMARK   16  A    between atoms: C_48  and  O_49
REMARK                            x       y       z     vdW  Elec       q    Type
REMARK                         _______ _______ _______ _____ _____    ______ ____
ROOT
ATOM      1  C   UNL     1      -0.704  -1.181  -0.277  0.00  0.00    +0.000 C 
ATOM      2  C   UNL     1       0.117  -1.281   0.982  0.00  0.00    +0.000 C 
ATOM      3  C   UNL     1       1.179  -0.491   1.254  0.00  0.00    +0.000 C 
ATOM      4  C   UNL     1       1.874  -0.624   2.586  0.00  0.00    +0.000 C 
ATOM      5  C   UNL     1       3.337  -0.980   2.348  0.00  0.00    +0.000 C 
ATOM      6  C   UNL     1       4.067   0.092   1.477  0.00  0.00    +0.000 C 
ATOM      7  C   UNL     1       3.296   0.249   0.117  0.00  0.00    +0.000 C 
ATOM      8  C   UNL     1       4.023   1.294  -0.766  0.00  0.00    +0.000 C 
ATOM      9  C   UNL     1       5.424   0.792  -1.093  0.00  0.00    +0.000 C 
ATOM     10  C   UNL     1       6.333   0.538   0.161  0.00  0.00    +0.000 C 
ATOM     11  C   UNL     1       6.782   1.914   0.724  0.00  0.00    +0.000 C 
ATOM     12  C   UNL     1       7.521  -0.401  -0.322  0.00  0.00    +0.000 C 
ATOM     13  C   UNL     1       7.320  -1.734   0.410  0.00  0.00    +0.000 C 
ATOM     14  C   UNL     1       5.819  -1.759   0.676  0.00  0.00    +0.000 C 
ATOM     15  C   UNL     1       5.579  -0.332   1.235  0.00  0.00    +0.000 C 
ATOM     16  C   UNL     1       1.741   0.529   0.258  0.00  0.00    +0.000 C 
ATOM     17  C   UNL     1       1.423   1.956   0.784  0.00  0.00    +0.000 C 
ATOM     18  C   UNL     1       1.083   0.333  -1.156  0.00  0.00    +0.000 C 
ATOM     19  C   UNL     1      -0.419   0.112  -1.055  0.00  0.00    +0.000 C 
ENDROOT
BRANCH  12  20
ATOM     20  C   UNL     1       8.950   0.109  -0.268  0.00  0.00    +0.000 A 
ATOM     21  C   UNL     1       9.674   0.302  -1.458  0.00  0.00    +0.000 A 
ATOM     22  O   UNL     1      10.932   0.734  -1.428  0.00  0.00    +0.000 OA
ATOM     23  C   UNL     1      11.569   0.999  -0.293  0.00  0.00    +0.000 A 
ATOM     24  O   UNL     1      12.723   1.389  -0.327  0.00  0.00    +0.000 OA
ATOM     25  C   UNL     1      10.923   0.831   0.934  0.00  0.00    +0.000 A 
ATOM     26  C   UNL     1       9.603   0.382   0.944  0.00  0.00    +0.000 A 
ENDBRANCH  12  20
BRANCH   6  27
ATOM     27  O   UNL     1       4.048   1.337   2.139  0.00  0.00    +0.000 OA
ATOM     28  H   UNL     1       4.341   1.207   3.078  0.00  0.00    +0.000 HD
ENDBRANCH   6  27
BRANCH  15  29
ATOM     29  O   UNL     1       6.273  -0.218   2.466  0.00  0.00    +0.000 OA
ATOM     30  H   UNL     1       6.038  -0.990   3.044  0.00  0.00    +0.000 HD
ENDBRANCH  15  29
BRANCH   1  31
ATOM     31  O   UNL     1      -2.059  -1.147   0.117  0.00  0.00    +0.000 OA
BRANCH  31  35
ATOM     32  C   UNL     1      -5.387  -0.872  -0.327  0.00  0.00    +0.000 C 
ATOM     33  C   UNL     1      -4.763  -1.387   0.986  0.00  0.00    +0.000 C 
ATOM     34  C   UNL     1      -3.863  -2.611   0.731  0.00  0.00    +0.000 C 
ATOM     35  C   UNL     1      -2.836  -2.237  -0.355  0.00  0.00    +0.000 C 
ATOM     36  O   UNL     1      -3.505  -1.895  -1.563  0.00  0.00    +0.000 OA
ATOM     37  C   UNL     1      -4.280  -0.708  -1.409  0.00  0.00    +0.000 C 
ATOM     38  C   UNL     1      -4.902  -0.373  -2.766  0.00  0.00    +0.000 C 
BRANCH  33  39
ATOM     39  O   UNL     1      -5.736  -1.654   1.963  0.00  0.00    +0.000 OA
ATOM     40  H   UNL     1      -6.354  -2.337   1.594  0.00  0.00    +0.000 HD
ENDBRANCH  33  39
BRANCH  34  41
ATOM     41  O   UNL     1      -4.608  -3.753   0.373  0.00  0.00    +0.000 OA
ATOM     42  H   UNL     1      -4.964  -3.632  -0.544  0.00  0.00    +0.000 HD
ENDBRANCH  34  41
BRANCH  32  43
ATOM     43  O   UNL     1      -5.953   0.404  -0.057  0.00  0.00    +0.000 OA
BRANCH  43  47
ATOM     44  C   UNL     1      -9.129   0.729  -3.090  0.00  0.00    +0.000 C 
ATOM     45  C   UNL     1      -8.871   1.543  -1.824  0.00  0.00    +0.000 C 
ATOM     46  O   UNL     1      -7.505   1.408  -1.416  0.00  0.00    +0.000 OA
ATOM     47  C   UNL     1      -7.336   0.519  -0.331  0.00  0.00    +0.000 C 
ATOM     48  C   UNL     1      -8.031   1.073   0.947  0.00  0.00    +0.000 C 
ATOM     49  C   UNL     1      -9.368   1.786   0.607  0.00  0.00    +0.000 C 
ATOM     50  C   UNL     1      -9.925   1.224  -0.709  0.00  0.00    +0.000 C 
BRANCH  48  51
ATOM     51  O   UNL     1      -8.198   0.031   1.877  0.00  0.00    +0.000 OA
ATOM     52  H   UNL     1      -8.809  -0.640   1.474  0.00  0.00    +0.000 HD
ENDBRANCH  48  51
BRANCH  49  53
ATOM     53  O   UNL     1     -10.279   1.737   1.677  0.00  0.00    +0.000 OA
ATOM     54  H   UNL     1     -10.689   0.833   1.685  0.00  0.00    +0.000 HD
ENDBRANCH  49  53
BRANCH  50  55
ATOM     55  O   UNL     1     -11.182   1.766  -1.032  0.00  0.00    +0.000 OA
ATOM     56  H   UNL     1     -11.093   2.755  -1.033  0.00  0.00    +0.000 HD
ENDBRANCH  50  55
ENDBRANCH  43  47
ENDBRANCH  32  43
ENDBRANCH  31  35
ENDBRANCH   1  31
TORSDOF 12
