REMARK  Name = 
REMARK  16 active torsions:
REMARK  status: ('A' for Active; 'I' for Inactive)
REMARK    1  A    between atoms: C_1  and  C_2
REMARK    2  A    between atoms: C_2  and  C_3
REMARK    3  A    between atoms: C_2  and  C_4
REMARK    4  A    between atoms: C_4  and  O_5
REMARK    5  A    between atoms: C_10  and  C_11
REMARK    6  A    between atoms: C_20  and  O_21
REMARK    7  A    between atoms: O_21  and  C_22
REMARK    8  A    between atoms: C_24  and  C_25
REMARK    9  A    between atoms: C_25  and  O_26
REMARK   10  A    between atoms: C_27  and  O_28
REMARK   11  A    between atoms: C_29  and  O_30
REMARK   12  A    between atoms: C_31  and  O_32
REMARK   13  A    between atoms: C_35  and  C_36
REMARK   14  A    between atoms: C_40  and  C_41
REMARK   15  A    between atoms: C_44  and  C_45
REMARK   16  A    between atoms: C_44  and  O_46
REMARK                            x       y       z     vdW  Elec       q    Type
REMARK                         _______ _______ _______ _____ _____    ______ ____
ROOT
ATOM      1  C   UNL     1      -4.017   1.091   1.198  0.00  0.00    +0.000 C 
ATOM      2  C   UNL     1      -4.151  -0.208   2.045  0.00  0.00    +0.000 C 
ATOM      3  C   UNL     1      -2.702  -0.621   2.410  0.00  0.00    +0.000 C 
ATOM      4  C   UNL     1      -1.867   0.575   1.966  0.00  0.00    +0.000 C 
ATOM      5  C   UNL     1      -0.369   0.431   1.806  0.00  0.00    +0.000 C 
ATOM      6  C   UNL     1       0.358  -0.211   2.740  0.00  0.00    +0.000 C 
ATOM      7  C   UNL     1       1.852  -0.387   2.645  0.00  0.00    +0.000 C 
ATOM      8  C   UNL     1       2.523   0.467   1.538  0.00  0.00    +0.000 C 
ATOM      9  C   UNL     1       3.944  -0.081   1.281  0.00  0.00    +0.000 C 
ATOM     10  C   UNL     1       4.705   0.674   0.179  0.00  0.00    +0.000 C 
ATOM     11  C   UNL     1       3.856   0.824  -1.098  0.00  0.00    +0.000 C 
ATOM     12  C   UNL     1       2.450   1.388  -0.802  0.00  0.00    +0.000 C 
ATOM     13  C   UNL     1       1.680   0.508   0.232  0.00  0.00    +0.000 C 
ATOM     14  C   UNL     1       1.432  -0.914  -0.360  0.00  0.00    +0.000 C 
ATOM     15  C   UNL     1       0.290   1.050   0.605  0.00  0.00    +0.000 C 
ATOM     16  C   UNL     1      -0.414   1.955  -0.142  0.00  0.00    +0.000 C 
ATOM     17  C   UNL     1      -1.859   2.312   0.213  0.00  0.00    +0.000 C 
ATOM     18  C   UNL     1      -2.568   1.008   0.652  0.00  0.00    +0.000 C 
ATOM     19  C   UNL     1      -2.469  -0.039  -0.515  0.00  0.00    +0.000 C 
ENDROOT
BRANCH   1  25
ATOM     20  C   UNL     1      -7.551  -0.859  -1.296  0.00  0.00    +0.000 C 
ATOM     21  C   UNL     1      -7.138   0.614  -0.988  0.00  0.00    +0.000 C 
ATOM     22  O   UNL     1      -7.548   1.054   0.251  0.00  0.00    +0.000 OA
ATOM     23  C   UNL     1      -6.528   1.525   0.988  0.00  0.00    +0.000 C 
ATOM     24  O   UNL     1      -6.708   2.113   2.043  0.00  0.00    +0.000 OA
ATOM     25  C   UNL     1      -5.223   1.470   0.282  0.00  0.00    +0.000 C 
ATOM     26  C   UNL     1      -5.600   0.590  -0.928  0.00  0.00    +0.000 C 
ATOM     27  O   UNL     1      -5.257  -0.776  -0.823  0.00  0.00    +0.000 OA
ATOM     28  C   UNL     1      -6.166  -1.443  -1.684  0.00  0.00    +0.000 C 
ATOM     29  C   UNL     1      -5.792  -1.217  -3.180  0.00  0.00    +0.000 C 
BRANCH  20  31
ATOM     30  C   UNL     1      -9.620  -1.153   0.275  0.00  0.00    +0.000 C 
ATOM     31  C   UNL     1      -8.224  -1.679  -0.111  0.00  0.00    +0.000 C 
ATOM     32  C   UNL     1      -7.374  -1.860   1.164  0.00  0.00    +0.000 C 
ENDBRANCH  20  31
BRANCH  20  33
ATOM     33  O   UNL     1      -8.415  -0.929  -2.410  0.00  0.00    +0.000 OA
ATOM     34  H   UNL     1      -9.103  -0.222  -2.314  0.00  0.00    +0.000 HD
ENDBRANCH  20  33
BRANCH  28  35
ATOM     35  O   UNL     1      -6.123  -2.832  -1.463  0.00  0.00    +0.000 OA
ATOM     36  H   UNL     1      -5.166  -3.093  -1.411  0.00  0.00    +0.000 HD
ENDBRANCH  28  35
ENDBRANCH   1  25
BRANCH  10  37
ATOM     37  O   UNL     1       5.825  -0.135  -0.127  0.00  0.00    +0.000 OA
BRANCH  37  38
ATOM     38  C   UNL     1       7.041   0.548  -0.338  0.00  0.00    +0.000 C 
ATOM     39  O   UNL     1       7.624  -0.036  -1.491  0.00  0.00    +0.000 OA
ATOM     40  C   UNL     1       8.903   0.506  -1.784  0.00  0.00    +0.000 C 
ATOM     41  C   UNL     1       9.893   0.183  -0.638  0.00  0.00    +0.000 C 
ATOM     42  C   UNL     1       9.356   0.795   0.669  0.00  0.00    +0.000 C 
ATOM     43  C   UNL     1       7.924   0.291   0.906  0.00  0.00    +0.000 C 
BRANCH  41  44
ATOM     44  O   UNL     1      11.188   0.656  -0.915  0.00  0.00    +0.000 OA
ATOM     45  H   UNL     1      11.126   1.637  -1.057  0.00  0.00    +0.000 HD
ENDBRANCH  41  44
BRANCH  42  46
ATOM     46  O   UNL     1      10.191   0.483   1.757  0.00  0.00    +0.000 OA
ATOM     47  H   UNL     1      10.214  -0.508   1.847  0.00  0.00    +0.000 HD
ENDBRANCH  42  46
BRANCH  43  48
ATOM     48  O   UNL     1       7.367   0.871   2.060  0.00  0.00    +0.000 OA
ATOM     49  H   UNL     1       7.314   1.850   1.905  0.00  0.00    +0.000 HD
ENDBRANCH  43  48
BRANCH  40  50
ATOM     50  C   UNL     1       9.389  -0.109  -3.105  0.00  0.00    +0.000 C 
BRANCH  50  51
ATOM     51  O   UNL     1       8.513   0.217  -4.150  0.00  0.00    +0.000 OA
ATOM     52  H   UNL     1       7.771  -0.442  -4.120  0.00  0.00    +0.000 HD
ENDBRANCH  50  51
ENDBRANCH  40  50
ENDBRANCH  37  38
ENDBRANCH  10  37
TORSDOF 11
