REMARK  Name = 
REMARK  12 active torsions:
REMARK  status: ('A' for Active; 'I' for Inactive)
REMARK    1  A    between atoms: C_1  and  C_2
REMARK    2  A    between atoms: C_29  and  C_30
REMARK    3  A    between atoms: C_34  and  O_35
REMARK    4  A    between atoms: C_40  and  C_41
REMARK    5  A    between atoms: C_40  and  O_42
REMARK    6  A    between atoms: C_45  and  C_46
REMARK    7  A    between atoms: C_47  and  C_48
REMARK    8  A    between atoms: C_53  and  C_54
REMARK    9  A    between atoms: C_55  and  C_56
REMARK   10  A    between atoms: C_55  and  O_57
REMARK   11  A    between atoms: C_62  and  C_63
REMARK   12  A    between atoms: C_62  and  C_64
REMARK                            x       y       z     vdW  Elec       q    Type
REMARK                         _______ _______ _______ _____ _____    ______ ____
ROOT
ATOM      1  C   UNL     1     -11.235   3.286   0.667  0.00  0.00    +0.000 C 
ATOM      2  C   UNL     1     -10.158   2.488  -0.071  0.00  0.00    +0.000 C 
ATOM      3  C   UNL     1      -9.440   1.446   0.777  0.00  0.00    +0.000 C 
ATOM      4  C   UNL     1      -8.826   0.578  -0.329  0.00  0.00    +0.000 C 
ATOM      5  C   UNL     1      -7.327   0.857  -0.243  0.00  0.00    +0.000 C 
ATOM      6  C   UNL     1      -7.118   0.894   1.293  0.00  0.00    +0.000 C 
ATOM      7  C   UNL     1      -7.265  -0.530   1.830  0.00  0.00    +0.000 C 
ATOM      8  O   UNL     1      -8.326  -1.066   2.112  0.00  0.00    +0.000 OA
ATOM      9  C   UNL     1      -5.956  -1.174   2.127  0.00  0.00    +0.000 C 
ATOM     10  C   UNL     1      -4.957  -0.139   1.587  0.00  0.00    +0.000 C 
ATOM     11  C   UNL     1      -5.674   1.195   1.812  0.00  0.00    +0.000 C 
ATOM     12  C   UNL     1      -4.859   2.345   1.189  0.00  0.00    +0.000 C 
ATOM     13  C   UNL     1      -3.454   2.378   1.833  0.00  0.00    +0.000 C 
ATOM     14  C   UNL     1      -2.708   1.039   1.617  0.00  0.00    +0.000 C 
ATOM     15  C   UNL     1      -1.285   1.074   2.239  0.00  0.00    +0.000 C 
ATOM     16  C   UNL     1      -0.607  -0.280   2.188  0.00  0.00    +0.000 A 
ATOM     17  N   UNL     1       0.711  -0.380   2.520  0.00  0.00    +0.000 NA
ATOM     18  C   UNL     1       1.378  -1.559   2.410  0.00  0.00    +0.000 A 
ATOM     19  C   UNL     1       0.716  -2.681   1.883  0.00  0.00    +0.000 A 
ATOM     20  C   UNL     1       1.532  -3.873   1.444  0.00  0.00    +0.000 C 
ATOM     21  C   UNL     1       2.781  -3.255   0.763  0.00  0.00    +0.000 C 
ATOM     22  C   UNL     1       3.560  -4.164  -0.197  0.00  0.00    +0.000 C 
ATOM     23  C   UNL     1       4.547  -3.282  -0.991  0.00  0.00    +0.000 C 
ATOM     24  C   UNL     1       5.533  -2.542  -0.059  0.00  0.00    +0.000 C 
ATOM     25  C   UNL     1       4.773  -1.703   1.062  0.00  0.00    +0.000 C 
ATOM     26  C   UNL     1       5.805  -0.977   2.003  0.00  0.00    +0.000 C 
ATOM     27  C   UNL     1       6.829  -0.215   1.195  0.00  0.00    +0.000 C 
ATOM     28  O   UNL     1       6.997   0.983   1.365  0.00  0.00    +0.000 OA
ATOM     29  C   UNL     1       7.559  -0.980   0.114  0.00  0.00    +0.000 C 
ATOM     30  C   UNL     1       8.431  -2.089   0.813  0.00  0.00    +0.000 C 
ATOM     31  C   UNL     1       8.424  -0.125  -0.879  0.00  0.00    +0.000 C 
ATOM     32  C   UNL     1       8.124  -0.683  -2.274  0.00  0.00    +0.000 C 
ATOM     33  C   UNL     1       7.337  -1.992  -2.037  0.00  0.00    +0.000 C 
ATOM     34  C   UNL     1       6.460  -1.542  -0.839  0.00  0.00    +0.000 C 
ATOM     35  O   UNL     1       9.324  -0.771  -3.016  0.00  0.00    +0.000 OA
ATOM     36  C   UNL     1      10.241   0.084  -2.343  0.00  0.00    +0.000 C 
ATOM     37  C   UNL     1      11.689  -0.314  -2.792  0.00  0.00    +0.000 C 
ATOM     38  C   UNL     1      12.678   0.820  -2.520  0.00  0.00    +0.000 C 
ATOM     39  C   UNL     1      12.187   2.167  -3.139  0.00  0.00    +0.000 C 
ATOM     40  C   UNL     1      13.046   2.583  -4.348  0.00  0.00    +0.000 C 
ATOM     41  C   UNL     1      10.719   2.035  -3.620  0.00  0.00    +0.000 C 
ATOM     42  O   UNL     1       9.911   1.458  -2.620  0.00  0.00    +0.000 OA
ATOM     43  C   UNL     1       9.949  -0.190  -0.851  0.00  0.00    +0.000 C 
ATOM     44  C   UNL     1      10.548   0.739   0.215  0.00  0.00    +0.000 C 
ATOM     45  C   UNL     1       3.714  -2.568   1.839  0.00  0.00    +0.000 C 
ATOM     46  C   UNL     1       4.444  -3.640   2.719  0.00  0.00    +0.000 C 
ATOM     47  C   UNL     1       2.824  -1.689   2.811  0.00  0.00    +0.000 C 
ATOM     48  N   UNL     1      -0.605  -2.595   1.588  0.00  0.00    +0.000 NA
ATOM     49  C   UNL     1      -1.302  -1.447   1.791  0.00  0.00    +0.000 A 
ATOM     50  C   UNL     1      -2.792  -1.457   1.568  0.00  0.00    +0.000 C 
ATOM     51  C   UNL     1      -3.499  -0.195   2.144  0.00  0.00    +0.000 C 
ATOM     52  C   UNL     1      -3.497  -0.245   3.707  0.00  0.00    +0.000 C 
ATOM     53  C   UNL     1      -8.255   1.896   1.696  0.00  0.00    +0.000 C 
ATOM     54  C   UNL     1      -8.660   1.887   3.190  0.00  0.00    +0.000 C 
ATOM     55  O   UNL     1      -9.432   0.868  -1.571  0.00  0.00    +0.000 OA
ATOM     56  C   UNL     1     -10.598   1.607  -1.247  0.00  0.00    +0.000 C 
ATOM     57  C   UNL     1     -11.776   0.657  -0.952  0.00  0.00    +0.000 C 
ATOM     58  C   UNL     1     -12.074   0.225  -2.348  0.00  0.00    +0.000 C 
ATOM     59  C   UNL     1     -11.938   1.565  -3.091  0.00  0.00    +0.000 C 
ATOM     60  C   UNL     1     -11.460   1.313  -4.528  0.00  0.00    +0.000 C 
ATOM     61  C   UNL     1     -13.282   2.316  -3.119  0.00  0.00    +0.000 C 
ATOM     62  O   UNL     1     -10.985   2.360  -2.384  0.00  0.00    +0.000 OA
ENDROOT
BRANCH  34  63
ATOM     63  O   UNL     1       5.640  -0.466  -1.283  0.00  0.00    +0.000 OA
ATOM     64  H   UNL     1       5.154  -0.752  -2.098  0.00  0.00    +0.000 HD
ENDBRANCH  34  63
BRANCH  39  65
ATOM     65  O   UNL     1      12.243   3.178  -2.158  0.00  0.00    +0.000 OA
ATOM     66  H   UNL     1      13.189   3.267  -1.867  0.00  0.00    +0.000 HD
ENDBRANCH  39  65
BRANCH  53  67
ATOM     67  O   UNL     1      -7.868   3.203   1.317  0.00  0.00    +0.000 OA
ATOM     68  H   UNL     1      -7.409   3.644   2.078  0.00  0.00    +0.000 HD
ENDBRANCH  53  67
TORSDOF 3
