REMARK  Name = 
REMARK  9 active torsions:
REMARK  status: ('A' for Active; 'I' for Inactive)
REMARK    1  A    between atoms: C_1  and  O_2
REMARK    2  A    between atoms: O_2  and  C_3
REMARK    3  A    between atoms: C_4  and  O_5
REMARK    4  A    between atoms: C_17  and  C_18
REMARK    5  A    between atoms: C_25  and  O_26
REMARK    6  A    between atoms: C_27  and  O_28
REMARK    7  A    between atoms: O_28  and  C_29
REMARK    8  A    between atoms: C_33  and  C_34
REMARK    9  A    between atoms: C_47  and  C_48
REMARK                            x       y       z     vdW  Elec       q    Type
REMARK                         _______ _______ _______ _____ _____    ______ ____
ROOT
ATOM      1  C   UNL     1       3.331  -0.908  -0.692  0.00  0.00    +0.000 C 
ATOM      2  O   UNL     1       3.125  -1.605  -1.674  0.00  0.00    +0.000 OA
ATOM      3  N   UNL     1       2.285  -0.511   0.097  0.00  0.00    +0.000 N 
ATOM      4  C   UNL     1       2.295   0.684   0.916  0.00  0.00    +0.000 C 
ATOM      5  C   UNL     1       0.965   1.388   0.557  0.00  0.00    +0.000 C 
ATOM      6  C   UNL     1       0.129   0.220   0.152  0.00  0.00    +0.000 A 
ATOM      7  C   UNL     1       0.931  -0.880  -0.080  0.00  0.00    +0.000 A 
ATOM      8  C   UNL     1       0.375  -2.133  -0.465  0.00  0.00    +0.000 A 
ATOM      9  C   UNL     1      -1.029  -2.224  -0.634  0.00  0.00    +0.000 A 
ATOM     10  C   UNL     1      -1.804  -1.062  -0.450  0.00  0.00    +0.000 A 
ATOM     11  C   UNL     1      -1.237   0.131  -0.082  0.00  0.00    +0.000 A 
ATOM     12  C   UNL     1      -2.241   1.068  -0.025  0.00  0.00    +0.000 A 
ATOM     13  C   UNL     1      -3.417   0.383  -0.346  0.00  0.00    +0.000 A 
ATOM     14  N   UNL     1      -3.134  -0.924  -0.599  0.00  0.00    +0.000 N 
ATOM     15  H   UNL     1      -3.773  -1.690  -0.888  0.00  0.00    +0.000 HD
ENDROOT
BRANCH   1  29
ATOM     16  C   UNL     1       7.874   0.740  -1.528  0.00  0.00    +0.000 A 
ATOM     17  C   UNL     1       9.001   1.059  -0.720  0.00  0.00    +0.000 A 
ATOM     18  C   UNL     1       8.891   0.911   0.700  0.00  0.00    +0.000 A 
ATOM     19  C   UNL     1       7.723   0.423   1.260  0.00  0.00    +0.000 A 
ATOM     20  C   UNL     1       7.861   0.281   2.733  0.00  0.00    +0.000 C 
ATOM     21  C   UNL     1       9.387   0.407   2.908  0.00  0.00    +0.000 C 
ATOM     22  N   UNL     1       9.846   1.135   1.738  0.00  0.00    +0.000 N 
ATOM     23  C   UNL     1      10.987   1.900   1.770  0.00  0.00    +0.000 C 
ATOM     24  N   UNL     1      11.293   2.817   0.821  0.00  0.00    +0.000 N 
ATOM     25  O   UNL     1      11.737   1.806   2.735  0.00  0.00    +0.000 OA
ATOM     26  C   UNL     1       6.620   0.154   0.460  0.00  0.00    +0.000 A 
ATOM     27  C   UNL     1       6.705   0.287  -0.900  0.00  0.00    +0.000 A 
ATOM     28  N   UNL     1       5.552  -0.089  -1.481  0.00  0.00    +0.000 N 
ATOM     29  C   UNL     1       4.712  -0.423  -0.473  0.00  0.00    +0.000 A 
ATOM     30  C   UNL     1       5.345  -0.277   0.761  0.00  0.00    +0.000 A 
ATOM     31  H   UNL     1      10.650   3.074   0.070  0.00  0.00    +0.000 HD
ATOM     32  H   UNL     1      12.155   3.374   0.906  0.00  0.00    +0.000 HD
ATOM     33  H   UNL     1       5.338  -0.106  -2.503  0.00  0.00    +0.000 HD
BRANCH  16  35
ATOM     34  C   UNL     1       8.219  -0.162  -3.718  0.00  0.00    +0.000 C 
ATOM     35  O   UNL     1       7.921   0.880  -2.872  0.00  0.00    +0.000 OA
ENDBRANCH  16  35
BRANCH  17  36
ATOM     36  O   UNL     1      10.155   1.428  -1.308  0.00  0.00    +0.000 OA
ATOM     37  H   UNL     1      10.252   1.530  -2.265  0.00  0.00    +0.000 HD
ENDBRANCH  17  36
ENDBRANCH   1  29
BRANCH  13  38
ATOM     38  C   UNL     1      -4.756   1.052  -0.406  0.00  0.00    +0.000 C 
ATOM     39  O   UNL     1      -4.741   2.270  -0.495  0.00  0.00    +0.000 OA
ATOM     40  N   UNL     1      -5.960   0.396  -0.276  0.00  0.00    +0.000 N 
ATOM     41  C   UNL     1      -6.093  -1.025   0.016  0.00  0.00    +0.000 C 
ATOM     42  C   UNL     1      -7.548  -1.264   0.465  0.00  0.00    +0.000 C 
ATOM     43  C   UNL     1      -7.965  -0.384   1.628  0.00  0.00    +0.000 C 
ATOM     44  C   UNL     1      -8.287   0.020   0.175  0.00  0.00    +0.000 C 
ATOM     45  C   UNL     1      -7.259   0.999  -0.290  0.00  0.00    +0.000 C 
ATOM     46  C   UNL     1      -7.591   2.261  -0.678  0.00  0.00    +0.000 C 
ATOM     47  C   UNL     1      -9.014   2.701  -0.656  0.00  0.00    +0.000 C 
ATOM     48  O   UNL     1      -9.322   3.829  -1.007  0.00  0.00    +0.000 OA
ATOM     49  C   UNL     1     -10.044   1.737  -0.228  0.00  0.00    +0.000 A 
ATOM     50  C   UNL     1      -9.727   0.461   0.160  0.00  0.00    +0.000 A 
ATOM     51  C   UNL     1     -10.931  -0.160   0.477  0.00  0.00    +0.000 A 
ATOM     52  C   UNL     1     -11.180  -1.556   0.954  0.00  0.00    +0.000 C 
ATOM     53  C   UNL     1     -11.920   0.790   0.270  0.00  0.00    +0.000 A 
ATOM     54  N   UNL     1     -11.371   1.944  -0.163  0.00  0.00    +0.000 N 
ATOM     55  H   UNL     1     -11.882   2.823  -0.401  0.00  0.00    +0.000 HD
ENDBRANCH  13  38
BRANCH   8  56
ATOM     56  O   UNL     1       1.122  -3.246  -0.622  0.00  0.00    +0.000 OA
ATOM     57  H   UNL     1       2.056  -3.297  -0.385  0.00  0.00    +0.000 HD
ENDBRANCH   8  56
BRANCH   9  58
ATOM     58  O   UNL     1      -1.599  -3.401  -0.968  0.00  0.00    +0.000 OA
ATOM     59  C   UNL     1      -2.203  -4.204  -0.025  0.00  0.00    +0.000 C 
ENDBRANCH   9  58
TORSDOF 6
