REMARK  Name = 
REMARK  16 active torsions:
REMARK  status: ('A' for Active; 'I' for Inactive)
REMARK    1  A    between atoms: C_1  and  C_2
REMARK    2  A    between atoms: C_17  and  O_18
REMARK    3  A    between atoms: O_18  and  C_19
REMARK    4  A    between atoms: C_21  and  C_22
REMARK    5  A    between atoms: C_22  and  O_23
REMARK    6  A    between atoms: C_24  and  O_25
REMARK    7  A    between atoms: O_25  and  C_26
REMARK    8  A    between atoms: C_28  and  C_29
REMARK    9  A    between atoms: C_30  and  O_31
REMARK   10  A    between atoms: C_32  and  O_33
REMARK   11  A    between atoms: C_34  and  O_35
REMARK   12  A    between atoms: C_36  and  O_37
REMARK   13  A    between atoms: C_38  and  O_39
REMARK   14  A    between atoms: C_42  and  C_43
REMARK   15  A    between atoms: C_47  and  C_48
REMARK   16  A    between atoms: C_50  and  C_51
REMARK                            x       y       z     vdW  Elec       q    Type
REMARK                         _______ _______ _______ _____ _____    ______ ____
ROOT
ATOM      1  C   UNL     1      12.839   0.566   0.442  0.00  0.00    +0.000 C 
ATOM      2  C   UNL     1      11.531   0.840   1.200  0.00  0.00    +0.000 C 
ATOM      3  C   UNL     1      10.789   2.075   0.631  0.00  0.00    +0.000 C 
ATOM      4  C   UNL     1       9.740   1.615  -0.374  0.00  0.00    +0.000 C 
ATOM      5  C   UNL     1       8.694   0.747   0.410  0.00  0.00    +0.000 C 
ATOM      6  O   UNL     1       9.281  -0.122   1.399  0.00  0.00    +0.000 OA
ATOM      7  C   UNL     1      10.635  -0.423   1.119  0.00  0.00    +0.000 C 
ATOM      8  O   UNL     1       7.817   1.633   1.094  0.00  0.00    +0.000 OA
ATOM      9  C   UNL     1       6.585   0.940   1.223  0.00  0.00    +0.000 C 
ATOM     10  C   UNL     1       5.333   1.721   0.788  0.00  0.00    +0.000 C 
ATOM     11  C   UNL     1       4.362   0.543   0.629  0.00  0.00    +0.000 C 
ATOM     12  C   UNL     1       2.913   0.741   0.132  0.00  0.00    +0.000 C 
ATOM     13  C   UNL     1       2.143   1.720   1.064  0.00  0.00    +0.000 C 
ATOM     14  C   UNL     1       0.624   1.455   1.117  0.00  0.00    +0.000 C 
ATOM     15  C   UNL     1       0.102   0.940  -0.236  0.00  0.00    +0.000 C 
ATOM     16  C   UNL     1      -1.429   0.836  -0.272  0.00  0.00    +0.000 C 
ATOM     17  C   UNL     1      -2.005  -0.296   0.622  0.00  0.00    +0.000 C 
ATOM     18  C   UNL     1      -1.010  -1.458   0.869  0.00  0.00    +0.000 C 
ATOM     19  C   UNL     1      -0.178  -1.682  -0.380  0.00  0.00    +0.000 C 
ATOM     20  C   UNL     1       0.765  -0.451  -0.671  0.00  0.00    +0.000 C 
ATOM     21  C   UNL     1       0.921  -0.407  -2.222  0.00  0.00    +0.000 C 
ATOM     22  C   UNL     1       2.175  -0.641   0.057  0.00  0.00    +0.000 C 
ATOM     23  C   UNL     1       3.044  -1.792  -0.581  0.00  0.00    +0.000 C 
ATOM     24  C   UNL     1       4.505  -1.819  -0.087  0.00  0.00    +0.000 C 
ATOM     25  C   UNL     1       5.157  -0.428  -0.266  0.00  0.00    +0.000 C 
ATOM     26  C   UNL     1       5.138   0.004  -1.783  0.00  0.00    +0.000 C 
ATOM     27  C   UNL     1       6.598  -0.321   0.351  0.00  0.00    +0.000 C 
ATOM     28  C   UNL     1       7.783  -0.022  -0.554  0.00  0.00    +0.000 C 
ATOM     29  C   UNL     1       8.377  -1.268  -1.225  0.00  0.00    +0.000 C 
ENDROOT
BRANCH  17  30
ATOM     30  O   UNL     1      -3.126  -0.828  -0.074  0.00  0.00    +0.000 OA
BRANCH  30  31
ATOM     31  C   UNL     1      -4.373  -0.553   0.528  0.00  0.00    +0.000 C 
ATOM     32  O   UNL     1      -4.900  -1.814   0.947  0.00  0.00    +0.000 OA
ATOM     33  C   UNL     1      -6.260  -1.708   1.305  0.00  0.00    +0.000 C 
ATOM     34  C   UNL     1      -7.159  -1.400   0.068  0.00  0.00    +0.000 C 
ATOM     35  C   UNL     1      -6.292  -0.843  -1.105  0.00  0.00    +0.000 C 
ATOM     36  C   UNL     1      -5.278   0.159  -0.541  0.00  0.00    +0.000 C 
BRANCH  35  37
ATOM     37  O   UNL     1      -5.580  -1.858  -1.788  0.00  0.00    +0.000 OA
ATOM     38  H   UNL     1      -5.675  -2.730  -1.321  0.00  0.00    +0.000 HD
ENDBRANCH  35  37
BRANCH  36  39
ATOM     39  O   UNL     1      -5.936   1.298  -0.035  0.00  0.00    +0.000 OA
ATOM     40  H   UNL     1      -6.202   1.139   0.904  0.00  0.00    +0.000 HD
ENDBRANCH  36  39
BRANCH  33  41
ATOM     41  C   UNL     1      -6.717  -2.990   2.009  0.00  0.00    +0.000 C 
BRANCH  41  42
ATOM     42  O   UNL     1      -5.942  -3.225   3.155  0.00  0.00    +0.000 OA
ATOM     43  H   UNL     1      -5.104  -3.663   2.849  0.00  0.00    +0.000 HD
ENDBRANCH  41  42
ENDBRANCH  33  41
BRANCH  34  44
ATOM     44  O   UNL     1      -8.087  -0.422   0.506  0.00  0.00    +0.000 OA
BRANCH  44  45
ATOM     45  C   UNL     1      -9.379  -0.546  -0.048  0.00  0.00    +0.000 C 
ATOM     46  O   UNL     1      -9.470   0.216  -1.262  0.00  0.00    +0.000 OA
ATOM     47  C   UNL     1      -9.916   1.534  -1.023  0.00  0.00    +0.000 C 
ATOM     48  C   UNL     1      -9.732   2.388  -2.275  0.00  0.00    +0.000 C 
ATOM     49  C   UNL     1     -11.404   1.540  -0.547  0.00  0.00    +0.000 C 
ATOM     50  C   UNL     1     -11.708   0.327   0.393  0.00  0.00    +0.000 C 
ATOM     51  C   UNL     1     -10.397  -0.111   1.057  0.00  0.00    +0.000 C 
BRANCH  49  52
ATOM     52  O   UNL     1     -11.684   2.763   0.087  0.00  0.00    +0.000 OA
ATOM     53  H   UNL     1     -11.148   2.802   0.923  0.00  0.00    +0.000 HD
ENDBRANCH  49  52
BRANCH  50  54
ATOM     54  O   UNL     1     -12.282  -0.753  -0.310  0.00  0.00    +0.000 OA
ATOM     55  H   UNL     1     -11.819  -0.856  -1.182  0.00  0.00    +0.000 HD
ENDBRANCH  50  54
BRANCH  51  56
ATOM     56  O   UNL     1     -10.579  -1.119   2.021  0.00  0.00    +0.000 OA
ATOM     57  H   UNL     1     -10.968  -1.908   1.565  0.00  0.00    +0.000 HD
ENDBRANCH  51  56
ENDBRANCH  44  45
ENDBRANCH  34  44
ENDBRANCH  30  31
ENDBRANCH  17  30
TORSDOF 11
