REMARK  Name = 
REMARK  17 active torsions:
REMARK  status: ('A' for Active; 'I' for Inactive)
REMARK    1  A    between atoms: C_1  and  C_2
REMARK    2  A    between atoms: C_17  and  O_18
REMARK    3  A    between atoms: O_18  and  C_19
REMARK    4  A    between atoms: C_21  and  C_22
REMARK    5  A    between atoms: C_22  and  O_23
REMARK    6  A    between atoms: C_24  and  O_25
REMARK    7  A    between atoms: C_26  and  O_27
REMARK    8  A    between atoms: O_27  and  C_28
REMARK    9  A    between atoms: C_30  and  C_31
REMARK   10  A    between atoms: C_31  and  O_32
REMARK   11  A    between atoms: C_33  and  O_34
REMARK   12  A    between atoms: C_35  and  O_36
REMARK   13  A    between atoms: C_37  and  O_38
REMARK   14  A    between atoms: C_39  and  O_40
REMARK   15  A    between atoms: C_43  and  C_44
REMARK   16  A    between atoms: C_48  and  C_49
REMARK   17  A    between atoms: C_51  and  C_52
REMARK                            x       y       z     vdW  Elec       q    Type
REMARK                         _______ _______ _______ _____ _____    ______ ____
ROOT
ATOM      1  O   UNL     1       3.146  -0.646  -0.481  0.00  0.00    +0.000 OA
ENDROOT
BRANCH   1  18
ATOM      2  C   UNL     1     -12.675  -1.043  -0.235  0.00  0.00    +0.000 C 
ATOM      3  C   UNL     1     -11.468  -0.259   0.284  0.00  0.00    +0.000 C 
ATOM      4  C   UNL     1     -11.030   0.818  -0.715  0.00  0.00    +0.000 C 
ATOM      5  C   UNL     1      -9.824   1.555  -0.135  0.00  0.00    +0.000 C 
ATOM      6  C   UNL     1      -8.699   0.546   0.222  0.00  0.00    +0.000 C 
ATOM      7  O   UNL     1      -9.187  -0.467   1.105  0.00  0.00    +0.000 OA
ATOM      8  C   UNL     1     -10.270  -1.186   0.545  0.00  0.00    +0.000 C 
ATOM      9  O   UNL     1      -8.134  -0.033  -0.947  0.00  0.00    +0.000 OA
ATOM     10  C   UNL     1      -6.816  -0.422  -0.578  0.00  0.00    +0.000 C 
ATOM     11  C   UNL     1      -5.686   0.011  -1.531  0.00  0.00    +0.000 C 
ATOM     12  C   UNL     1      -4.493  -0.185  -0.580  0.00  0.00    +0.000 C 
ATOM     13  C   UNL     1      -3.035   0.148  -0.983  0.00  0.00    +0.000 C 
ATOM     14  C   UNL     1      -2.627  -0.634  -2.243  0.00  0.00    +0.000 C 
ATOM     15  C   UNL     1      -1.142  -0.626  -2.491  0.00  0.00    +0.000 C 
ATOM     16  C   UNL     1      -0.228  -0.232  -1.578  0.00  0.00    +0.000 C 
ATOM     17  C   UNL     1       1.242  -0.331  -1.906  0.00  0.00    +0.000 C 
ATOM     18  C   UNL     1       1.963  -1.299  -0.926  0.00  0.00    +0.000 C 
ATOM     19  C   UNL     1       1.094  -1.665   0.308  0.00  0.00    +0.000 C 
ATOM     20  C   UNL     1       0.444  -0.400   0.870  0.00  0.00    +0.000 C 
ATOM     21  C   UNL     1      -0.593   0.224  -0.145  0.00  0.00    +0.000 C 
ATOM     22  C   UNL     1      -0.424   1.769  -0.079  0.00  0.00    +0.000 C 
ATOM     23  C   UNL     1      -2.076  -0.223   0.202  0.00  0.00    +0.000 C 
ATOM     24  C   UNL     1      -2.582   0.338   1.585  0.00  0.00    +0.000 C 
ATOM     25  C   UNL     1      -4.079   0.071   1.848  0.00  0.00    +0.000 C 
ATOM     26  C   UNL     1      -4.939   0.594   0.675  0.00  0.00    +0.000 C 
ATOM     27  C   UNL     1      -4.760   2.151   0.514  0.00  0.00    +0.000 C 
ATOM     28  C   UNL     1      -6.452   0.190   0.778  0.00  0.00    +0.000 C 
ATOM     29  C   UNL     1      -7.524   1.265   0.894  0.00  0.00    +0.000 C 
ATOM     30  C   UNL     1      -7.764   1.752   2.332  0.00  0.00    +0.000 C 
ENDBRANCH   1  18
BRANCH   1  31
ATOM     31  C   UNL     1       4.325  -1.363  -0.785  0.00  0.00    +0.000 C 
ATOM     32  O   UNL     1       4.533  -2.342   0.241  0.00  0.00    +0.000 OA
ATOM     33  C   UNL     1       5.886  -2.779   0.434  0.00  0.00    +0.000 C 
ATOM     34  C   UNL     1       6.795  -2.524  -0.791  0.00  0.00    +0.000 C 
ATOM     35  C   UNL     1       6.838  -1.019  -1.154  0.00  0.00    +0.000 C 
ATOM     36  C   UNL     1       5.482  -0.341  -0.841  0.00  0.00    +0.000 C 
BRANCH  34  37
ATOM     37  O   UNL     1       6.251  -3.258  -1.863  0.00  0.00    +0.000 OA
ATOM     38  H   UNL     1       6.961  -3.340  -2.553  0.00  0.00    +0.000 HD
ENDBRANCH  34  37
BRANCH  36  39
ATOM     39  O   UNL     1       5.230   0.714  -1.733  0.00  0.00    +0.000 OA
ATOM     40  H   UNL     1       5.050   0.311  -2.623  0.00  0.00    +0.000 HD
ENDBRANCH  36  39
BRANCH  33  41
ATOM     41  C   UNL     1       6.466  -2.207   1.742  0.00  0.00    +0.000 C 
BRANCH  41  42
ATOM     42  O   UNL     1       5.679  -2.594   2.836  0.00  0.00    +0.000 OA
ATOM     43  H   UNL     1       4.966  -1.910   2.932  0.00  0.00    +0.000 HD
ENDBRANCH  41  42
ENDBRANCH  33  41
BRANCH  35  44
ATOM     44  O   UNL     1       7.859  -0.364  -0.405  0.00  0.00    +0.000 OA
BRANCH  44  45
ATOM     45  C   UNL     1       8.834   0.306  -1.198  0.00  0.00    +0.000 C 
ATOM     46  O   UNL     1      10.146  -0.153  -0.869  0.00  0.00    +0.000 OA
ATOM     47  C   UNL     1      10.618   0.267   0.414  0.00  0.00    +0.000 C 
ATOM     48  C   UNL     1      10.542   1.817   0.606  0.00  0.00    +0.000 C 
ATOM     49  C   UNL     1       9.116   2.322   0.327  0.00  0.00    +0.000 C 
ATOM     50  C   UNL     1       8.689   1.850  -1.075  0.00  0.00    +0.000 C 
BRANCH  48  51
ATOM     51  O   UNL     1      11.429   2.504  -0.255  0.00  0.00    +0.000 OA
ATOM     52  H   UNL     1      12.106   1.880  -0.625  0.00  0.00    +0.000 HD
ENDBRANCH  48  51
BRANCH  49  53
ATOM     53  O   UNL     1       8.231   1.841   1.304  0.00  0.00    +0.000 OA
ATOM     54  H   UNL     1       7.411   2.397   1.249  0.00  0.00    +0.000 HD
ENDBRANCH  49  53
BRANCH  50  55
ATOM     55  O   UNL     1       9.435   2.530  -2.063  0.00  0.00    +0.000 OA
ATOM     56  H   UNL     1      10.190   1.962  -2.367  0.00  0.00    +0.000 HD
ENDBRANCH  50  55
BRANCH  47  57
ATOM     57  C   UNL     1      10.013  -0.550   1.579  0.00  0.00    +0.000 C 
BRANCH  57  58
ATOM     58  O   UNL     1      10.297  -1.914   1.421  0.00  0.00    +0.000 OA
ATOM     59  H   UNL     1       9.680  -2.252   0.722  0.00  0.00    +0.000 HD
ENDBRANCH  57  58
ENDBRANCH  47  57
ENDBRANCH  44  45
ENDBRANCH  35  44
ENDBRANCH   1  31
TORSDOF 13
