REMARK  Name = 
REMARK  26 active torsions:
REMARK  status: ('A' for Active; 'I' for Inactive)
REMARK    1  A    between atoms: C_1  and  C_2
REMARK    2  A    between atoms: C_2  and  C_3
REMARK    3  A    between atoms: C_5  and  C_6
REMARK    4  A    between atoms: C_6  and  O_8
REMARK    5  A    between atoms: O_8  and  C_9
REMARK    6  A    between atoms: C_11  and  C_12
REMARK    7  A    between atoms: C_12  and  O_13
REMARK    8  A    between atoms: O_13  and  C_14
REMARK    9  A    between atoms: C_16  and  C_17
REMARK   10  A    between atoms: C_17  and  O_18
REMARK   11  A    between atoms: C_19  and  O_20
REMARK   12  A    between atoms: C_21  and  O_22
REMARK   13  A    between atoms: C_23  and  O_24
REMARK   14  A    between atoms: C_25  and  O_26
REMARK   15  A    between atoms: C_27  and  O_28
REMARK   16  A    between atoms: C_29  and  O_30
REMARK   17  A    between atoms: C_34  and  C_35
REMARK   18  A    between atoms: C_40  and  C_41
REMARK   19  A    between atoms: C_44  and  O_45
REMARK   20  A    between atoms: O_45  and  C_46
REMARK   21  A    between atoms: C_49  and  O_50
REMARK   22  A    between atoms: C_51  and  O_52
REMARK   23  A    between atoms: C_53  and  O_54
REMARK   24  A    between atoms: C_55  and  C_56
REMARK   25  A    between atoms: C_55  and  C_57
REMARK   26  A    between atoms: C_61  and  C_62
REMARK                            x       y       z     vdW  Elec       q    Type
REMARK                         _______ _______ _______ _____ _____    ______ ____
ROOT
ATOM      1  C   UNL     1       2.077   3.871   1.079  0.00  0.00    +0.000 C 
ATOM      2  C   UNL     1       1.857   3.206  -0.310  0.00  0.00    +0.000 C 
ATOM      3  C   UNL     1       2.208   4.271  -1.371  0.00  0.00    +0.000 C 
ATOM      4  C   UNL     1       2.797   1.985  -0.482  0.00  0.00    +0.000 C 
ATOM      5  C   UNL     1       2.195   0.608  -0.081  0.00  0.00    +0.000 C 
ATOM      6  C   UNL     1       1.065   0.704   1.004  0.00  0.00    +0.000 C 
ATOM      7  C   UNL     1       0.555  -0.711   1.387  0.00  0.00    +0.000 C 
ATOM      8  C   UNL     1      -0.918  -0.750   1.777  0.00  0.00    +0.000 C 
ATOM      9  C   UNL     1      -1.863  -0.246   0.633  0.00  0.00    +0.000 C 
ATOM     10  C   UNL     1      -1.530  -1.028  -0.690  0.00  0.00    +0.000 C 
ATOM     11  C   UNL     1      -1.512   1.216   0.351  0.00  0.00    +0.000 C 
ATOM     12  C   UNL     1      -2.494   2.090  -0.012  0.00  0.00    +0.000 C 
ATOM     13  C   UNL     1      -3.961   1.755  -0.206  0.00  0.00    +0.000 C 
ATOM     14  C   UNL     1      -4.309   0.252  -0.063  0.00  0.00    +0.000 C 
ATOM     15  C   UNL     1      -5.878  -0.078  -0.114  0.00  0.00    +0.000 C 
ATOM     16  C   UNL     1      -6.713   0.746   0.911  0.00  0.00    +0.000 C 
ATOM     17  C   UNL     1      -6.434   0.277  -1.561  0.00  0.00    +0.000 C 
ATOM     18  C   UNL     1      -7.218  -0.864  -2.263  0.00  0.00    +0.000 C 
ATOM     19  C   UNL     1      -8.240  -1.514  -1.319  0.00  0.00    +0.000 C 
ATOM     20  C   UNL     1      -7.518  -2.208  -0.087  0.00  0.00    +0.000 C 
ATOM     21  C   UNL     1      -8.412  -2.146   1.183  0.00  0.00    +0.000 C 
ATOM     22  C   UNL     1      -7.372  -3.727  -0.418  0.00  0.00    +0.000 C 
ATOM     23  C   UNL     1      -6.048  -1.626   0.115  0.00  0.00    +0.000 C 
ATOM     24  C   UNL     1      -5.335  -2.104   1.405  0.00  0.00    +0.000 C 
ATOM     25  C   UNL     1      -3.822  -1.875   1.272  0.00  0.00    +0.000 C 
ATOM     26  C   UNL     1      -3.425  -0.380   1.084  0.00  0.00    +0.000 C 
ATOM     27  C   UNL     1      -3.654   0.341   2.455  0.00  0.00    +0.000 C 
ATOM     28  C   UNL     1      -0.076   1.750   0.605  0.00  0.00    +0.000 C 
ATOM     29  C   UNL     1       0.398   2.744  -0.503  0.00  0.00    +0.000 C 
ENDROOT
BRANCH   5  30
ATOM     30  C   UNL     1       3.365  -0.300   0.258  0.00  0.00    +0.000 C 
ATOM     31  O   UNL     1       3.464  -0.806   1.366  0.00  0.00    +0.000 OA
BRANCH  30  32
ATOM     32  O   UNL     1       4.347  -0.476  -0.671  0.00  0.00    +0.000 OA
BRANCH  32  33
ATOM     33  C   UNL     1       5.571  -1.093  -0.454  0.00  0.00    +0.000 C 
ATOM     34  O   UNL     1       6.601  -0.162  -0.753  0.00  0.00    +0.000 OA
ATOM     35  C   UNL     1       7.881  -0.702  -0.444  0.00  0.00    +0.000 C 
ATOM     36  C   UNL     1       8.173  -1.910  -1.376  0.00  0.00    +0.000 C 
ATOM     37  C   UNL     1       7.070  -2.971  -1.189  0.00  0.00    +0.000 C 
ATOM     38  C   UNL     1       5.686  -2.323  -1.379  0.00  0.00    +0.000 C 
BRANCH  36  39
ATOM     39  O   UNL     1       9.443  -2.465  -1.137  0.00  0.00    +0.000 OA
ATOM     40  H   UNL     1       9.436  -2.838  -0.218  0.00  0.00    +0.000 HD
ENDBRANCH  36  39
BRANCH  37  41
ATOM     41  O   UNL     1       7.250  -4.058  -2.063  0.00  0.00    +0.000 OA
ATOM     42  H   UNL     1       7.196  -3.709  -2.991  0.00  0.00    +0.000 HD
ENDBRANCH  37  41
BRANCH  38  43
ATOM     43  O   UNL     1       4.657  -3.247  -1.129  0.00  0.00    +0.000 OA
ATOM     44  H   UNL     1       4.725  -3.523  -0.177  0.00  0.00    +0.000 HD
ENDBRANCH  38  43
BRANCH  35  45
ATOM     45  C   UNL     1       8.931   0.418  -0.606  0.00  0.00    +0.000 C 
BRANCH  45  46
ATOM     46  O   UNL     1      10.225  -0.016  -0.213  0.00  0.00    +0.000 OA
BRANCH  46  47
ATOM     47  C   UNL     1      10.457   0.217   1.173  0.00  0.00    +0.000 C 
ATOM     48  O   UNL     1      11.088   1.474   1.351  0.00  0.00    +0.000 OA
ATOM     49  C   UNL     1      12.397   1.565   0.768  0.00  0.00    +0.000 C 
ATOM     50  C   UNL     1      13.080   0.193   0.435  0.00  0.00    +0.000 C 
ATOM     51  C   UNL     1      12.813  -0.740   1.620  0.00  0.00    +0.000 C 
ATOM     52  C   UNL     1      11.290  -0.945   1.794  0.00  0.00    +0.000 C 
BRANCH  50  53
ATOM     53  O   UNL     1      14.459   0.349   0.201  0.00  0.00    +0.000 OA
ATOM     54  H   UNL     1      14.873   0.690   1.036  0.00  0.00    +0.000 HD
ENDBRANCH  50  53
BRANCH  51  55
ATOM     55  O   UNL     1      13.485  -1.970   1.517  0.00  0.00    +0.000 OA
ATOM     56  H   UNL     1      13.218  -2.381   0.654  0.00  0.00    +0.000 HD
ENDBRANCH  51  55
BRANCH  52  57
ATOM     57  O   UNL     1      10.995  -1.140   3.155  0.00  0.00    +0.000 OA
ATOM     58  H   UNL     1      11.104  -0.265   3.611  0.00  0.00    +0.000 HD
ENDBRANCH  52  57
BRANCH  49  59
ATOM     59  C   UNL     1      12.361   2.501  -0.450  0.00  0.00    +0.000 C 
BRANCH  59  60
ATOM     60  O   UNL     1      13.648   2.730  -0.957  0.00  0.00    +0.000 OA
ATOM     61  H   UNL     1      14.095   3.355  -0.327  0.00  0.00    +0.000 HD
ENDBRANCH  59  60
ENDBRANCH  49  59
ENDBRANCH  46  47
ENDBRANCH  45  46
ENDBRANCH  35  45
ENDBRANCH  32  33
ENDBRANCH  30  32
ENDBRANCH   5  30
BRANCH  19  62
ATOM     62  O   UNL     1      -9.187  -0.528  -0.916  0.00  0.00    +0.000 OA
BRANCH  62  63
ATOM     63  C   UNL     1     -10.346  -0.496  -1.760  0.00  0.00    +0.000 C 
ATOM     64  O   UNL     1     -10.437   0.747  -2.447  0.00  0.00    +0.000 OA
ATOM     65  C   UNL     1     -10.653   1.832  -1.558  0.00  0.00    +0.000 C 
ATOM     66  C   UNL     1     -11.972   1.664  -0.766  0.00  0.00    +0.000 C 
ATOM     67  C   UNL     1     -11.971   0.331   0.020  0.00  0.00    +0.000 C 
ATOM     68  C   UNL     1     -11.638  -0.813  -0.954  0.00  0.00    +0.000 C 
BRANCH  66  69
ATOM     69  O   UNL     1     -12.224   2.759   0.075  0.00  0.00    +0.000 OA
ATOM     70  H   UNL     1     -11.424   2.898   0.642  0.00  0.00    +0.000 HD
ENDBRANCH  66  69
BRANCH  67  71
ATOM     71  O   UNL     1     -11.086   0.333   1.117  0.00  0.00    +0.000 OA
ATOM     72  H   UNL     1     -10.251   0.801   0.879  0.00  0.00    +0.000 HD
ENDBRANCH  67  71
BRANCH  68  73
ATOM     73  O   UNL     1     -12.730  -1.041  -1.820  0.00  0.00    +0.000 OA
ATOM     74  H   UNL     1     -12.700  -0.393  -2.569  0.00  0.00    +0.000 HD
ENDBRANCH  68  73
ENDBRANCH  62  63
ENDBRANCH  19  62
TORSDOF 19
