REMARK  Name = 
REMARK  17 active torsions:
REMARK  status: ('A' for Active; 'I' for Inactive)
REMARK    1  A    between atoms: C_1  and  C_2
REMARK    2  A    between atoms: C_17  and  O_18
REMARK    3  A    between atoms: O_18  and  C_19
REMARK    4  A    between atoms: C_21  and  C_22
REMARK    5  A    between atoms: C_22  and  O_23
REMARK    6  A    between atoms: C_24  and  O_25
REMARK    7  A    between atoms: O_25  and  C_26
REMARK    8  A    between atoms: C_28  and  C_29
REMARK    9  A    between atoms: C_29  and  O_30
REMARK   10  A    between atoms: C_31  and  O_32
REMARK   11  A    between atoms: C_33  and  O_34
REMARK   12  A    between atoms: C_35  and  O_36
REMARK   13  A    between atoms: C_37  and  O_38
REMARK   14  A    between atoms: C_39  and  O_40
REMARK   15  A    between atoms: C_43  and  C_44
REMARK   16  A    between atoms: C_49  and  C_50
REMARK   17  A    between atoms: C_52  and  C_53
REMARK                            x       y       z     vdW  Elec       q    Type
REMARK                         _______ _______ _______ _____ _____    ______ ____
ROOT
ATOM      1  C   UNL     1      11.567  -1.376  -0.052  0.00  0.00    +0.000 C 
ATOM      2  C   UNL     1      11.506  -0.743   1.352  0.00  0.00    +0.000 C 
ATOM      3  C   UNL     1      11.182   0.747   1.352  0.00  0.00    +0.000 C 
ATOM      4  C   UNL     1       9.819   0.941   0.708  0.00  0.00    +0.000 C 
ATOM      5  C   UNL     1       8.710   0.012   1.318  0.00  0.00    +0.000 C 
ATOM      6  O   UNL     1       9.150  -0.958   2.274  0.00  0.00    +0.000 OA
ATOM      7  C   UNL     1      10.492  -1.433   2.274  0.00  0.00    +0.000 C 
ATOM      8  O   UNL     1       7.790   0.903   1.993  0.00  0.00    +0.000 OA
ATOM      9  C   UNL     1       6.538   0.640   1.406  0.00  0.00    +0.000 C 
ATOM     10  C   UNL     1       5.407   1.687   1.245  0.00  0.00    +0.000 C 
ATOM     11  C   UNL     1       4.521   0.831   0.301  0.00  0.00    +0.000 C 
ATOM     12  C   UNL     1       3.056   1.091  -0.125  0.00  0.00    +0.000 C 
ATOM     13  C   UNL     1       2.658   2.453  -0.710  0.00  0.00    +0.000 C 
ATOM     14  C   UNL     1       1.159   2.456  -0.969  0.00  0.00    +0.000 C 
ATOM     15  C   UNL     1       0.421   1.317  -1.118  0.00  0.00    +0.000 C 
ATOM     16  C   UNL     1      -1.103   1.413  -1.096  0.00  0.00    +0.000 C 
ATOM     17  C   UNL     1      -1.780   0.108  -0.569  0.00  0.00    +0.000 C 
ATOM     18  C   UNL     1      -0.914  -0.451   0.566  0.00  0.00    +0.000 C 
ATOM     19  C   UNL     1       0.483  -0.909   0.054  0.00  0.00    +0.000 C 
ATOM     20  C   UNL     1       1.045  -0.086  -1.160  0.00  0.00    +0.000 C 
ATOM     21  C   UNL     1       0.664  -0.749  -2.526  0.00  0.00    +0.000 C 
ATOM     22  C   UNL     1       2.604  -0.002  -1.146  0.00  0.00    +0.000 C 
ATOM     23  C   UNL     1       3.404  -1.338  -1.004  0.00  0.00    +0.000 C 
ATOM     24  C   UNL     1       4.877  -1.026  -1.299  0.00  0.00    +0.000 C 
ATOM     25  O   UNL     1       5.479  -1.688  -2.131  0.00  0.00    +0.000 OA
ATOM     26  C   UNL     1       5.474   0.288  -0.798  0.00  0.00    +0.000 C 
ATOM     27  C   UNL     1       5.629   1.239  -2.023  0.00  0.00    +0.000 C 
ATOM     28  C   UNL     1       6.831   0.302  -0.018  0.00  0.00    +0.000 C 
ATOM     29  C   UNL     1       7.901  -0.728   0.167  0.00  0.00    +0.000 C 
ATOM     30  C   UNL     1       7.380  -2.127   0.594  0.00  0.00    +0.000 C 
ENDROOT
BRANCH  17  31
ATOM     31  O   UNL     1      -3.068   0.442  -0.074  0.00  0.00    +0.000 OA
BRANCH  31  32
ATOM     32  C   UNL     1      -4.126  -0.276  -0.695  0.00  0.00    +0.000 C 
ATOM     33  O   UNL     1      -4.620  -1.231   0.233  0.00  0.00    +0.000 OA
ATOM     34  C   UNL     1      -5.675  -1.995  -0.335  0.00  0.00    +0.000 C 
ATOM     35  C   UNL     1      -6.901  -1.094  -0.636  0.00  0.00    +0.000 C 
ATOM     36  C   UNL     1      -6.445  -0.021  -1.648  0.00  0.00    +0.000 C 
ATOM     37  C   UNL     1      -5.226   0.738  -1.071  0.00  0.00    +0.000 C 
BRANCH  36  38
ATOM     38  O   UNL     1      -7.506   0.831  -2.010  0.00  0.00    +0.000 OA
ATOM     39  H   UNL     1      -7.440   1.672  -1.488  0.00  0.00    +0.000 HD
ENDBRANCH  36  38
BRANCH  37  40
ATOM     40  O   UNL     1      -4.744   1.691  -1.985  0.00  0.00    +0.000 OA
ATOM     41  H   UNL     1      -4.440   1.205  -2.796  0.00  0.00    +0.000 HD
ENDBRANCH  37  40
BRANCH  34  42
ATOM     42  C   UNL     1      -6.022  -3.156   0.611  0.00  0.00    +0.000 C 
BRANCH  42  43
ATOM     43  O   UNL     1      -6.435  -2.696   1.870  0.00  0.00    +0.000 OA
ATOM     44  H   UNL     1      -5.613  -2.472   2.378  0.00  0.00    +0.000 HD
ENDBRANCH  42  43
ENDBRANCH  34  42
BRANCH  35  45
ATOM     45  O   UNL     1      -7.337  -0.492   0.579  0.00  0.00    +0.000 OA
BRANCH  45  46
ATOM     46  C   UNL     1      -8.744  -0.336   0.666  0.00  0.00    +0.000 C 
ATOM     47  O   UNL     1      -9.108   0.956   0.231  0.00  0.00    +0.000 OA
ATOM     48  C   UNL     1     -10.526   1.092   0.074  0.00  0.00    +0.000 C 
ATOM     49  C   UNL     1     -11.363   0.291   1.145  0.00  0.00    +0.000 C 
ATOM     50  C   UNL     1     -10.539   0.178   2.443  0.00  0.00    +0.000 C 
ATOM     51  C   UNL     1      -9.171  -0.525   2.147  0.00  0.00    +0.000 C 
BRANCH  49  52
ATOM     52  O   UNL     1     -11.635  -1.005   0.677  0.00  0.00    +0.000 OA
ATOM     53  H   UNL     1     -12.331  -0.918  -0.025  0.00  0.00    +0.000 HD
ENDBRANCH  49  52
BRANCH  50  54
ATOM     54  O   UNL     1     -10.361   1.462   3.002  0.00  0.00    +0.000 OA
ATOM     55  H   UNL     1      -9.518   1.859   2.663  0.00  0.00    +0.000 HD
ENDBRANCH  50  54
BRANCH  51  56
ATOM     56  O   UNL     1      -9.201  -1.896   2.466  0.00  0.00    +0.000 OA
ATOM     57  H   UNL     1      -9.933  -2.318   1.949  0.00  0.00    +0.000 HD
ENDBRANCH  51  56
BRANCH  48  58
ATOM     58  C   UNL     1     -10.850   2.596   0.107  0.00  0.00    +0.000 C 
BRANCH  58  59
ATOM     59  O   UNL     1     -12.214   2.826  -0.130  0.00  0.00    +0.000 OA
ATOM     60  H   UNL     1     -12.352   2.736  -1.109  0.00  0.00    +0.000 HD
ENDBRANCH  58  59
ENDBRANCH  48  58
ENDBRANCH  45  46
ENDBRANCH  35  45
ENDBRANCH  31  32
ENDBRANCH  17  31
TORSDOF 13
