REMARK  Name = 
REMARK  17 active torsions:
REMARK  status: ('A' for Active; 'I' for Inactive)
REMARK    1  A    between atoms: C_1  and  C_2
REMARK    2  A    between atoms: C_17  and  O_18
REMARK    3  A    between atoms: O_18  and  C_19
REMARK    4  A    between atoms: C_21  and  C_22
REMARK    5  A    between atoms: C_22  and  O_23
REMARK    6  A    between atoms: C_24  and  O_25
REMARK    7  A    between atoms: C_26  and  O_27
REMARK    8  A    between atoms: O_27  and  C_28
REMARK    9  A    between atoms: C_30  and  C_31
REMARK   10  A    between atoms: C_31  and  O_32
REMARK   11  A    between atoms: C_33  and  O_34
REMARK   12  A    between atoms: C_35  and  O_36
REMARK   13  A    between atoms: C_37  and  O_38
REMARK   14  A    between atoms: C_39  and  O_40
REMARK   15  A    between atoms: C_43  and  C_44
REMARK   16  A    between atoms: C_48  and  C_49
REMARK   17  A    between atoms: C_51  and  C_52
REMARK                            x       y       z     vdW  Elec       q    Type
REMARK                         _______ _______ _______ _____ _____    ______ ____
ROOT
ATOM      1  C   UNL     1     -12.133   1.673   0.573  0.00  0.00    +0.000 C 
ATOM      2  C   UNL     1     -11.251   1.055  -0.518  0.00  0.00    +0.000 C 
ATOM      3  C   UNL     1     -10.144   2.058  -0.926  0.00  0.00    +0.000 C 
ATOM      4  C   UNL     1      -8.939   1.293  -1.459  0.00  0.00    +0.000 C 
ATOM      5  C   UNL     1      -8.308   0.473  -0.274  0.00  0.00    +0.000 C 
ATOM      6  N   UNL     1      -9.366  -0.150   0.592  0.00  0.00    +0.000 NA
ATOM      7  C   UNL     1     -10.648  -0.317  -0.103  0.00  0.00    +0.000 C 
ATOM      8  O   UNL     1      -7.552   1.370   0.520  0.00  0.00    +0.000 OA
ATOM      9  C   UNL     1      -6.636   0.580   1.257  0.00  0.00    +0.000 C 
ATOM     10  C   UNL     1      -5.184   1.126   1.237  0.00  0.00    +0.000 C 
ATOM     11  C   UNL     1      -4.353   0.034   0.548  0.00  0.00    +0.000 C 
ATOM     12  C   UNL     1      -2.839  -0.015   0.817  0.00  0.00    +0.000 C 
ATOM     13  C   UNL     1      -2.208   1.323   0.390  0.00  0.00    +0.000 C 
ATOM     14  C   UNL     1      -0.721   1.270   0.242  0.00  0.00    +0.000 C 
ATOM     15  C   UNL     1      -0.008   0.128   0.255  0.00  0.00    +0.000 C 
ATOM     16  C   UNL     1       1.464   0.190  -0.017  0.00  0.00    +0.000 C 
ATOM     17  C   UNL     1       1.817  -0.559  -1.327  0.00  0.00    +0.000 C 
ATOM     18  C   UNL     1       0.741  -1.621  -1.719  0.00  0.00    +0.000 C 
ATOM     19  C   UNL     1       0.175  -2.299  -0.468  0.00  0.00    +0.000 C 
ATOM     20  C   UNL     1      -0.634  -1.275   0.423  0.00  0.00    +0.000 C 
ATOM     21  C   UNL     1      -0.423  -1.723   1.897  0.00  0.00    +0.000 C 
ATOM     22  C   UNL     1      -2.179  -1.202   0.038  0.00  0.00    +0.000 C 
ATOM     23  C   UNL     1      -2.964  -2.546   0.270  0.00  0.00    +0.000 C 
ATOM     24  C   UNL     1      -4.494  -2.408   0.025  0.00  0.00    +0.000 C 
ATOM     25  C   UNL     1      -5.087  -1.264   0.888  0.00  0.00    +0.000 C 
ATOM     26  C   UNL     1      -4.961  -1.657   2.404  0.00  0.00    +0.000 C 
ATOM     27  C   UNL     1      -6.573  -0.833   0.648  0.00  0.00    +0.000 C 
ATOM     28  C   UNL     1      -7.269  -0.594  -0.723  0.00  0.00    +0.000 C 
ATOM     29  C   UNL     1      -6.425  -0.045  -1.900  0.00  0.00    +0.000 C 
ATOM     30  H   UNL     1      -9.540   0.433   1.442  0.00  0.00    +0.000 HD
ENDROOT
BRANCH  17  31
ATOM     31  O   UNL     1       3.077  -1.198  -1.139  0.00  0.00    +0.000 OA
BRANCH  31  32
ATOM     32  C   UNL     1       4.185  -0.467  -1.657  0.00  0.00    +0.000 C 
ATOM     33  O   UNL     1       4.895  -1.360  -2.525  0.00  0.00    +0.000 OA
ATOM     34  C   UNL     1       6.275  -1.063  -2.784  0.00  0.00    +0.000 C 
ATOM     35  C   UNL     1       6.670   0.392  -2.424  0.00  0.00    +0.000 C 
ATOM     36  C   UNL     1       6.280   0.836  -0.996  0.00  0.00    +0.000 C 
ATOM     37  C   UNL     1       5.079   0.008  -0.483  0.00  0.00    +0.000 C 
BRANCH  35  38
ATOM     38  O   UNL     1       7.990   0.727  -2.768  0.00  0.00    +0.000 OA
ATOM     39  H   UNL     1       8.594   0.196  -2.188  0.00  0.00    +0.000 HD
ENDBRANCH  35  38
BRANCH  37  40
ATOM     40  O   UNL     1       4.375   0.721   0.501  0.00  0.00    +0.000 OA
ATOM     41  H   UNL     1       4.083   1.577   0.097  0.00  0.00    +0.000 HD
ENDBRANCH  37  40
BRANCH  34  42
ATOM     42  C   UNL     1       7.187  -2.178  -2.225  0.00  0.00    +0.000 C 
BRANCH  42  43
ATOM     43  O   UNL     1       7.151  -2.266  -0.829  0.00  0.00    +0.000 OA
ATOM     44  H   UNL     1       7.959  -1.804  -0.486  0.00  0.00    +0.000 HD
ENDBRANCH  42  43
ENDBRANCH  34  42
BRANCH  36  45
ATOM     45  O   UNL     1       7.351   0.724  -0.062  0.00  0.00    +0.000 OA
BRANCH  45  46
ATOM     46  C   UNL     1       7.948   1.978   0.269  0.00  0.00    +0.000 C 
ATOM     47  O   UNL     1       9.275   2.037  -0.254  0.00  0.00    +0.000 OA
ATOM     48  C   UNL     1      10.309   1.483   0.570  0.00  0.00    +0.000 C 
ATOM     49  C   UNL     1       9.782   0.506   1.653  0.00  0.00    +0.000 C 
ATOM     50  C   UNL     1       8.764   1.210   2.576  0.00  0.00    +0.000 C 
ATOM     51  C   UNL     1       7.886   2.223   1.795  0.00  0.00    +0.000 C 
BRANCH  49  52
ATOM     52  O   UNL     1      10.813  -0.077   2.410  0.00  0.00    +0.000 OA
ATOM     53  H   UNL     1      11.340   0.662   2.812  0.00  0.00    +0.000 HD
ENDBRANCH  49  52
BRANCH  50  54
ATOM     54  O   UNL     1       7.987   0.254   3.253  0.00  0.00    +0.000 OA
ATOM     55  H   UNL     1       7.416  -0.200   2.579  0.00  0.00    +0.000 HD
ENDBRANCH  50  54
BRANCH  51  56
ATOM     56  O   UNL     1       8.278   3.547   2.084  0.00  0.00    +0.000 OA
ATOM     57  H   UNL     1       9.208   3.683   1.773  0.00  0.00    +0.000 HD
ENDBRANCH  51  56
BRANCH  48  58
ATOM     58  C   UNL     1      11.313   0.766  -0.345  0.00  0.00    +0.000 C 
BRANCH  58  59
ATOM     59  O   UNL     1      11.843   1.661  -1.287  0.00  0.00    +0.000 OA
ATOM     60  H   UNL     1      11.204   1.690  -2.047  0.00  0.00    +0.000 HD
ENDBRANCH  58  59
ENDBRANCH  48  58
ENDBRANCH  45  46
ENDBRANCH  36  45
ENDBRANCH  31  32
ENDBRANCH  17  31
TORSDOF 13
