REMARK  Name = 
REMARK  16 active torsions:
REMARK  status: ('A' for Active; 'I' for Inactive)
REMARK    1  A    between atoms: C_1  and  C_2
REMARK    2  A    between atoms: C_11  and  O_12
REMARK    3  A    between atoms: O_12  and  C_13
REMARK    4  A    between atoms: C_15  and  C_16
REMARK    5  A    between atoms: C_16  and  O_17
REMARK    6  A    between atoms: C_18  and  O_19
REMARK    7  A    between atoms: C_20  and  O_21
REMARK    8  A    between atoms: O_21  and  C_22
REMARK    9  A    between atoms: C_24  and  C_25
REMARK   10  A    between atoms: C_25  and  O_26
REMARK   11  A    between atoms: C_27  and  O_28
REMARK   12  A    between atoms: C_29  and  O_30
REMARK   13  A    between atoms: C_31  and  O_32
REMARK   14  A    between atoms: C_33  and  O_34
REMARK   15  A    between atoms: C_37  and  C_38
REMARK   16  A    between atoms: C_39  and  O_40
REMARK                            x       y       z     vdW  Elec       q    Type
REMARK                         _______ _______ _______ _____ _____    ______ ____
ROOT
ATOM      1  C   UNL     1      -2.787   1.274   0.490  0.00  0.00    +0.000 C 
ATOM      2  O   UNL     1      -3.093   2.616   0.153  0.00  0.00    +0.000 OA
ATOM      3  C   UNL     1      -3.899   2.768  -1.026  0.00  0.00    +0.000 C 
ATOM      4  C   UNL     1      -4.660   1.488  -1.523  0.00  0.00    +0.000 C 
ATOM      5  C   UNL     1      -5.226   0.816  -0.274  0.00  0.00    +0.000 C 
ATOM      6  C   UNL     1      -4.070   0.406   0.680  0.00  0.00    +0.000 C 
ENDROOT
BRANCH   4   7
ATOM      7  O   UNL     1      -3.837   0.591  -2.227  0.00  0.00    +0.000 OA
ATOM      8  H   UNL     1      -3.856   0.865  -3.181  0.00  0.00    +0.000 HD
ENDBRANCH   4   7
BRANCH   6   9
ATOM      9  O   UNL     1      -3.746  -0.962   0.595  0.00  0.00    +0.000 OA
ATOM     10  H   UNL     1      -3.576  -1.177  -0.358  0.00  0.00    +0.000 HD
ENDBRANCH   6   9
BRANCH   1  11
ATOM     11  O   UNL     1      -1.926   0.736  -0.509  0.00  0.00    +0.000 OA
BRANCH  11  22
ATOM     12  C   UNL     1       6.479  -1.590   1.569  0.00  0.00    +0.000 C 
ATOM     13  C   UNL     1       6.583  -0.578   0.369  0.00  0.00    +0.000 C 
ATOM     14  C   UNL     1       5.975  -1.171  -0.964  0.00  0.00    +0.000 C 
ATOM     15  C   UNL     1       4.444  -0.864  -1.201  0.00  0.00    +0.000 C 
ATOM     16  C   UNL     1       3.733  -0.527   0.123  0.00  0.00    +0.000 C 
ATOM     17  C   UNL     1       4.373   0.776   0.728  0.00  0.00    +0.000 C 
ATOM     18  C   UNL     1       3.725   1.024   2.104  0.00  0.00    +0.000 C 
ATOM     19  C   UNL     1       2.301   1.440   1.765  0.00  0.00    +0.000 C 
ATOM     20  C   UNL     1       1.593   0.758   0.831  0.00  0.00    +0.000 C 
ATOM     21  C   UNL     1       0.319   1.364   0.248  0.00  0.00    +0.000 C 
ATOM     22  C   UNL     1      -0.701   0.241   0.012  0.00  0.00    +0.000 C 
ATOM     23  C   UNL     1      -0.136  -0.818  -0.978  0.00  0.00    +0.000 C 
ATOM     24  C   UNL     1       1.415  -0.834  -1.090  0.00  0.00    +0.000 C 
ATOM     25  C   UNL     1       2.139  -0.561   0.249  0.00  0.00    +0.000 C 
ATOM     26  C   UNL     1       1.757  -1.693   1.258  0.00  0.00    +0.000 C 
ATOM     27  C   UNL     1       5.939   0.823   0.554  0.00  0.00    +0.000 C 
ATOM     28  C   UNL     1       6.813   1.451   1.641  0.00  0.00    +0.000 C 
ATOM     29  C   UNL     1       8.228   1.120   1.125  0.00  0.00    +0.000 C 
ATOM     30  C   UNL     1       8.055  -0.187   0.367  0.00  0.00    +0.000 C 
ATOM     31  C   UNL     1       9.094  -0.854  -0.191  0.00  0.00    +0.000 C 
ATOM     32  C   UNL     1       9.027  -2.142  -0.969  0.00  0.00    +0.000 C 
ATOM     33  O   UNL     1      10.330  -2.413  -1.320  0.00  0.00    +0.000 OA
ATOM     34  C   UNL     1      11.176  -1.469  -0.875  0.00  0.00    +0.000 C 
ATOM     35  O   UNL     1      12.376  -1.514  -1.082  0.00  0.00    +0.000 OA
ATOM     36  C   UNL     1      10.512  -0.385  -0.117  0.00  0.00    +0.000 C 
BRANCH  27  37
ATOM     37  O   UNL     1       6.186   1.541  -0.651  0.00  0.00    +0.000 OA
ATOM     38  H   UNL     1       6.028   2.508  -0.481  0.00  0.00    +0.000 HD
ENDBRANCH  27  37
ENDBRANCH  11  22
ENDBRANCH   1  11
BRANCH   3  39
ATOM     39  C   UNL     1      -3.121   3.489  -2.136  0.00  0.00    +0.000 C 
BRANCH  39  40
ATOM     40  O   UNL     1      -2.039   2.722  -2.588  0.00  0.00    +0.000 OA
ATOM     41  H   UNL     1      -1.265   2.951  -2.010  0.00  0.00    +0.000 HD
ENDBRANCH  39  40
ENDBRANCH   3  39
BRANCH   5  42
ATOM     42  O   UNL     1      -6.052  -0.294  -0.600  0.00  0.00    +0.000 OA
BRANCH  42  43
ATOM     43  C   UNL     1      -7.192  -0.377   0.244  0.00  0.00    +0.000 C 
ATOM     44  O   UNL     1      -8.329   0.081  -0.480  0.00  0.00    +0.000 OA
ATOM     45  C   UNL     1      -9.472   0.143   0.366  0.00  0.00    +0.000 C 
ATOM     46  C   UNL     1      -9.867  -1.279   0.860  0.00  0.00    +0.000 C 
ATOM     47  C   UNL     1      -8.651  -1.901   1.581  0.00  0.00    +0.000 C 
ATOM     48  C   UNL     1      -7.389  -1.842   0.692  0.00  0.00    +0.000 C 
BRANCH  46  49
ATOM     49  O   UNL     1     -10.320  -2.108  -0.188  0.00  0.00    +0.000 OA
ATOM     50  H   UNL     1      -9.790  -1.926  -1.004  0.00  0.00    +0.000 HD
ENDBRANCH  46  49
BRANCH  47  51
ATOM     51  O   UNL     1      -8.918  -3.201   2.044  0.00  0.00    +0.000 OA
ATOM     52  H   UNL     1      -9.085  -3.779   1.256  0.00  0.00    +0.000 HD
ENDBRANCH  47  51
BRANCH  48  53
ATOM     53  O   UNL     1      -7.531  -2.683  -0.426  0.00  0.00    +0.000 OA
ATOM     54  H   UNL     1      -6.620  -2.846  -0.783  0.00  0.00    +0.000 HD
ENDBRANCH  48  53
BRANCH  45  55
ATOM     55  C   UNL     1     -10.633   0.805  -0.392  0.00  0.00    +0.000 C 
BRANCH  55  56
ATOM     56  O   UNL     1     -10.266   2.086  -0.830  0.00  0.00    +0.000 OA
ATOM     57  H   UNL     1     -10.360   2.692  -0.049  0.00  0.00    +0.000 HD
ENDBRANCH  55  56
ENDBRANCH  45  55
ENDBRANCH  42  43
ENDBRANCH   5  42
TORSDOF 14
