REMARK  Name = 
REMARK  19 active torsions:
REMARK  status: ('A' for Active; 'I' for Inactive)
REMARK    1  A    between atoms: C_1  and  C_2
REMARK    2  A    between atoms: C_4  and  O_5
REMARK    3  A    between atoms: O_5  and  C_6
REMARK    4  A    between atoms: C_7  and  O_8
REMARK    5  A    between atoms: C_10  and  C_11
REMARK    6  A    between atoms: C_21  and  O_22
REMARK    7  A    between atoms: C_24  and  C_25
REMARK    8  A    between atoms: C_24  and  O_26
REMARK    9  A    between atoms: O_26  and  C_27
REMARK   10  A    between atoms: C_30  and  O_31
REMARK   11  A    between atoms: O_31  and  C_32
REMARK   12  A    between atoms: C_35  and  O_36
REMARK   13  A    between atoms: O_36  and  C_37
REMARK   14  A    between atoms: C_42  and  C_43
REMARK   15  A    between atoms: C_45  and  C_46
REMARK   16  A    between atoms: C_48  and  C_49
REMARK   17  A    between atoms: C_54  and  O_55
REMARK   18  A    between atoms: C_59  and  O_60
REMARK   19  A    between atoms: C_62  and  C_63
REMARK                            x       y       z     vdW  Elec       q    Type
REMARK                         _______ _______ _______ _____ _____    ______ ____
ROOT
ATOM      1  C   UNL     1       6.546   0.570  -0.269  0.00  0.00    +0.000 A 
ATOM      2  C   UNL     1       5.701   1.618  -0.653  0.00  0.00    +0.000 A 
ATOM      3  C   UNL     1       4.327   1.530  -0.497  0.00  0.00    +0.000 A 
ATOM      4  C   UNL     1       3.739   0.389   0.058  0.00  0.00    +0.000 A 
ATOM      5  C   UNL     1       2.258   0.346   0.223  0.00  0.00    +0.000 C 
ATOM      6  O   UNL     1       1.593   1.314  -0.113  0.00  0.00    +0.000 OA
ATOM      7  C   UNL     1       1.587  -0.838   0.840  0.00  0.00    +0.000 C 
ATOM      8  C   UNL     1       2.357  -1.873   1.268  0.00  0.00    +0.000 C 
ATOM      9  C   UNL     1       1.733  -3.016   1.992  0.00  0.00    +0.000 C 
ATOM     10  C   UNL     1       0.407  -3.173   2.047  0.00  0.00    +0.000 C 
ATOM     11  C   UNL     1      -0.520  -2.259   1.273  0.00  0.00    +0.000 C 
ATOM     12  C   UNL     1      -0.711  -2.866  -0.156  0.00  0.00    +0.000 C 
ATOM     13  C   UNL     1      -1.619  -1.992  -1.080  0.00  0.00    +0.000 C 
ATOM     14  C   UNL     1      -1.658  -2.589  -2.511  0.00  0.00    +0.000 C 
ATOM     15  C   UNL     1      -0.964  -0.595  -1.179  0.00  0.00    +0.000 C 
ATOM     16  C   UNL     1      -0.781  -0.039   0.206  0.00  0.00    +0.000 C 
ATOM     17  O   UNL     1      -1.363   0.985   0.534  0.00  0.00    +0.000 OA
ATOM     18  C   UNL     1       0.079  -0.813   1.204  0.00  0.00    +0.000 C 
ATOM     19  C   UNL     1       3.841  -1.872   1.080  0.00  0.00    +0.000 C 
ATOM     20  O   UNL     1       4.464  -2.846   1.466  0.00  0.00    +0.000 OA
ATOM     21  C   UNL     1       4.548  -0.697   0.469  0.00  0.00    +0.000 A 
ATOM     22  C   UNL     1       5.977  -0.606   0.294  0.00  0.00    +0.000 A 
ENDROOT
BRANCH   1  26
ATOM     23  C   UNL     1      10.776   0.836   0.548  0.00  0.00    +0.000 C 
ATOM     24  C   UNL     1       9.612   1.477   1.355  0.00  0.00    +0.000 C 
ATOM     25  C   UNL     1       8.576   1.984   0.349  0.00  0.00    +0.000 C 
ATOM     26  C   UNL     1       8.046   0.789  -0.514  0.00  0.00    +0.000 C 
ATOM     27  O   UNL     1       8.821  -0.395  -0.308  0.00  0.00    +0.000 OA
ATOM     28  C   UNL     1      10.196  -0.120  -0.541  0.00  0.00    +0.000 C 
ATOM     29  C   UNL     1      10.980  -1.430  -0.594  0.00  0.00    +0.000 C 
BRANCH  24  30
ATOM     30  O   UNL     1       8.971   0.553   2.210  0.00  0.00    +0.000 OA
ATOM     31  H   UNL     1       9.639  -0.091   2.558  0.00  0.00    +0.000 HD
ENDBRANCH  24  30
BRANCH  23  32
ATOM     32  O   UNL     1      11.494   1.887  -0.091  0.00  0.00    +0.000 OA
BRANCH  32  36
ATOM     33  C   UNL     1      15.509   2.089   1.524  0.00  0.00    +0.000 C 
ATOM     34  C   UNL     1      14.968   2.758   0.257  0.00  0.00    +0.000 C 
ATOM     35  O   UNL     1      13.540   2.858   0.283  0.00  0.00    +0.000 OA
ATOM     36  C   UNL     1      12.895   1.678  -0.169  0.00  0.00    +0.000 C 
ATOM     37  C   UNL     1      13.271   1.393  -1.603  0.00  0.00    +0.000 C 
ATOM     38  C   UNL     1      14.543   1.539  -1.976  0.00  0.00    +0.000 C 
ATOM     39  C   UNL     1      15.497   2.103  -1.009  0.00  0.00    +0.000 C 
ATOM     40  O   UNL     1      16.692   2.109  -1.258  0.00  0.00    +0.000 OA
ENDBRANCH  32  36
ENDBRANCH  23  32
ENDBRANCH   1  26
BRANCH  11  41
ATOM     41  O   UNL     1      -1.764  -2.194   1.930  0.00  0.00    +0.000 OA
ATOM     42  H   UNL     1      -2.110  -3.120   2.024  0.00  0.00    +0.000 HD
ENDBRANCH  11  41
BRANCH  18  43
ATOM     43  O   UNL     1      -0.029  -0.233   2.486  0.00  0.00    +0.000 OA
ATOM     44  H   UNL     1       0.347   0.686   2.442  0.00  0.00    +0.000 HD
ENDBRANCH  18  43
BRANCH  22  45
ATOM     45  O   UNL     1       6.827  -1.593   0.660  0.00  0.00    +0.000 OA
ATOM     46  H   UNL     1       6.609  -2.442   1.051  0.00  0.00    +0.000 HD
ENDBRANCH  22  45
BRANCH  13  47
ATOM     47  O   UNL     1      -2.935  -1.797  -0.531  0.00  0.00    +0.000 OA
BRANCH  47  48
ATOM     48  C   UNL     1      -3.818  -2.915  -0.623  0.00  0.00    +0.000 C 
ATOM     49  C   UNL     1      -4.822  -2.930   0.564  0.00  0.00    +0.000 C 
ATOM     50  C   UNL     1      -6.103  -2.122   0.285  0.00  0.00    +0.000 C 
ATOM     51  C   UNL     1      -5.800  -1.036  -0.742  0.00  0.00    +0.000 C 
ATOM     52  C   UNL     1      -5.337  -1.751  -2.064  0.00  0.00    +0.000 C 
ATOM     53  C   UNL     1      -6.532  -2.226  -2.904  0.00  0.00    +0.000 C 
ATOM     54  O   UNL     1      -4.503  -2.904  -1.863  0.00  0.00    +0.000 OA
BRANCH  51  55
ATOM     55  O   UNL     1      -6.941  -0.208  -0.991  0.00  0.00    +0.000 OA
BRANCH  55  56
ATOM     56  C   UNL     1      -6.955   0.949  -0.159  0.00  0.00    +0.000 C 
ATOM     57  C   UNL     1      -7.716   2.122  -0.826  0.00  0.00    +0.000 C 
ATOM     58  C   UNL     1      -9.120   2.314  -0.237  0.00  0.00    +0.000 C 
ATOM     59  C   UNL     1      -9.746   0.953   0.011  0.00  0.00    +0.000 C 
ATOM     60  C   UNL     1      -8.856   0.193   1.062  0.00  0.00    +0.000 C 
ATOM     61  C   UNL     1      -9.401   0.353   2.489  0.00  0.00    +0.000 C 
ATOM     62  O   UNL     1      -7.493   0.636   1.112  0.00  0.00    +0.000 OA
BRANCH  59  63
ATOM     63  O   UNL     1     -11.063   1.137   0.515  0.00  0.00    +0.000 OA
BRANCH  63  64
ATOM     64  C   UNL     1     -12.102   0.690  -0.335  0.00  0.00    +0.000 C 
ATOM     65  C   UNL     1     -13.006  -0.245   0.460  0.00  0.00    +0.000 C 
ATOM     66  C   UNL     1     -14.257   0.100   0.785  0.00  0.00    +0.000 C 
ATOM     67  C   UNL     1     -14.719   1.444   0.433  0.00  0.00    +0.000 C 
ATOM     68  O   UNL     1     -15.903   1.742   0.499  0.00  0.00    +0.000 OA
ATOM     69  C   UNL     1     -13.650   2.427   0.026  0.00  0.00    +0.000 C 
ATOM     70  C   UNL     1     -14.234   3.713  -0.563  0.00  0.00    +0.000 C 
ATOM     71  O   UNL     1     -12.789   1.808  -0.911  0.00  0.00    +0.000 OA
ENDBRANCH  63  64
ENDBRANCH  59  63
ENDBRANCH  55  56
ENDBRANCH  51  55
ENDBRANCH  47  48
ENDBRANCH  13  47
TORSDOF 13
