REMARK  Name = 
REMARK  14 active torsions:
REMARK  status: ('A' for Active; 'I' for Inactive)
REMARK    1  A    between atoms: C_1  and  C_2
REMARK    2  A    between atoms: C_6  and  O_7
REMARK    3  A    between atoms: C_12  and  O_13
REMARK    4  A    between atoms: O_13  and  C_14
REMARK    5  A    between atoms: C_17  and  N_18
REMARK    6  A    between atoms: C_19  and  C_20
REMARK    7  A    between atoms: C_22  and  O_23
REMARK    8  A    between atoms: C_31  and  C_32
REMARK    9  A    between atoms: C_35  and  O_36
REMARK   10  A    between atoms: O_36  and  C_37
REMARK   11  A    between atoms: C_40  and  O_41
REMARK   12  A    between atoms: C_42  and  C_43
REMARK   13  A    between atoms: C_45  and  C_46
REMARK   14  A    between atoms: C_48  and  O_49
REMARK                            x       y       z     vdW  Elec       q    Type
REMARK                         _______ _______ _______ _____ _____    ______ ____
ROOT
ATOM      1  C   UNL     1      -7.428   2.380  -2.968  0.00  0.00    +0.000 C 
ATOM      2  C   UNL     1      -6.175   2.101  -2.184  0.00  0.00    +0.000 C 
ATOM      3  C   UNL     1      -5.014   1.860  -2.820  0.00  0.00    +0.000 C 
ATOM      4  C   UNL     1      -3.765   1.671  -2.063  0.00  0.00    +0.000 C 
ATOM      5  O   UNL     1      -2.786   1.222  -2.641  0.00  0.00    +0.000 OA
ATOM      6  C   UNL     1      -3.723   2.027  -0.570  0.00  0.00    +0.000 C 
ATOM      7  C   UNL     1      -2.445   1.409   0.078  0.00  0.00    +0.000 C 
ATOM      8  O   UNL     1      -2.569   1.308   1.457  0.00  0.00    +0.000 OA
ATOM      9  C   UNL     1      -2.524   0.074   0.743  0.00  0.00    +0.000 C 
ATOM     10  C   UNL     1      -3.888  -0.620   0.944  0.00  0.00    +0.000 C 
ATOM     11  C   UNL     1      -5.023  -0.062   0.050  0.00  0.00    +0.000 C 
ATOM     12  C   UNL     1      -5.040   1.500   0.086  0.00  0.00    +0.000 C 
ATOM     13  C   UNL     1      -6.258   2.132  -0.670  0.00  0.00    +0.000 C 
ATOM     14  C   UNL     1      -1.266  -0.615   1.214  0.00  0.00    +0.000 C 
ATOM     15  O   UNL     1      -1.361  -1.683   1.800  0.00  0.00    +0.000 OA
ATOM     16  C   UNL     1       0.078  -0.011   0.939  0.00  0.00    +0.000 A 
ATOM     17  C   UNL     1       0.149   1.191   0.186  0.00  0.00    +0.000 A 
ATOM     18  C   UNL     1       1.395   1.732  -0.136  0.00  0.00    +0.000 A 
ATOM     19  C   UNL     1       2.559   1.119   0.277  0.00  0.00    +0.000 A 
ATOM     20  C   UNL     1       2.537  -0.050   1.056  0.00  0.00    +0.000 A 
ATOM     21  C   UNL     1       1.283  -0.630   1.387  0.00  0.00    +0.000 A 
ATOM     22  C   UNL     1      -1.071   1.904  -0.281  0.00  0.00    +0.000 C 
ATOM     23  O   UNL     1      -0.959   2.924  -0.945  0.00  0.00    +0.000 OA
ENDROOT
BRANCH  20  24
ATOM     24  C   UNL     1       3.898  -0.620   1.439  0.00  0.00    +0.000 C 
ATOM     25  C   UNL     1       4.389  -1.387   0.185  0.00  0.00    +0.000 C 
ATOM     26  C   UNL     1       5.869  -1.700   0.261  0.00  0.00    +0.000 C 
ATOM     27  C   UNL     1       6.574  -0.366   0.465  0.00  0.00    +0.000 C 
ATOM     28  C   UNL     1       6.122   0.262   1.799  0.00  0.00    +0.000 C 
ATOM     29  C   UNL     1       6.588  -0.475   3.062  0.00  0.00    +0.000 C 
ATOM     30  O   UNL     1       4.718   0.491   1.826  0.00  0.00    +0.000 OA
BRANCH  27  31
ATOM     31  O   UNL     1       7.983  -0.543   0.420  0.00  0.00    +0.000 OA
BRANCH  31  32
ATOM     32  C   UNL     1       8.564   0.058  -0.734  0.00  0.00    +0.000 C 
ATOM     33  C   UNL     1       9.207   1.405  -0.366  0.00  0.00    +0.000 C 
ATOM     34  C   UNL     1      10.384   1.228   0.605  0.00  0.00    +0.000 C 
ATOM     35  C   UNL     1      10.994  -0.181   0.480  0.00  0.00    +0.000 C 
ATOM     36  C   UNL     1      10.845  -0.772  -0.941  0.00  0.00    +0.000 C 
ATOM     37  C   UNL     1      11.683  -0.066  -2.018  0.00  0.00    +0.000 C 
ATOM     38  O   UNL     1       9.476  -0.855  -1.354  0.00  0.00    +0.000 OA
BRANCH  35  39
ATOM     39  O   UNL     1      12.309  -0.237   0.972  0.00  0.00    +0.000 OA
ATOM     40  H   UNL     1      12.842   0.438   0.479  0.00  0.00    +0.000 HD
ENDBRANCH  35  39
ENDBRANCH  31  32
ENDBRANCH  27  31
ENDBRANCH  20  24
BRANCH   6  41
ATOM     41  O   UNL     1      -3.710   3.429  -0.394  0.00  0.00    +0.000 OA
ATOM     42  H   UNL     1      -3.234   3.856  -1.153  0.00  0.00    +0.000 HD
ENDBRANCH   6  41
BRANCH  12  43
ATOM     43  O   UNL     1      -5.108   1.930   1.430  0.00  0.00    +0.000 OA
ATOM     44  H   UNL     1      -5.969   1.617   1.813  0.00  0.00    +0.000 HD
ENDBRANCH  12  43
BRANCH  21  45
ATOM     45  O   UNL     1       1.206  -1.777   2.101  0.00  0.00    +0.000 OA
ATOM     46  H   UNL     1       1.962  -2.286   2.415  0.00  0.00    +0.000 HD
ENDBRANCH  21  45
BRANCH  11  47
ATOM     47  O   UNL     1      -6.242  -0.559   0.573  0.00  0.00    +0.000 OA
BRANCH  47  48
ATOM     48  C   UNL     1      -6.960  -1.421  -0.297  0.00  0.00    +0.000 C 
ATOM     49  C   UNL     1      -7.144  -2.794   0.420  0.00  0.00    +0.000 C 
ATOM     50  C   UNL     1      -8.410  -3.440  -0.129  0.00  0.00    +0.000 C 
ATOM     51  C   UNL     1      -9.626  -2.546   0.231  0.00  0.00    +0.000 C 
ATOM     52  C   UNL     1      -9.196  -1.041   0.279  0.00  0.00    +0.000 C 
ATOM     53  C   UNL     1     -10.339  -0.039   0.119  0.00  0.00    +0.000 C 
ATOM     54  O   UNL     1      -8.189  -0.793  -0.678  0.00  0.00    +0.000 OA
BRANCH  51  55
ATOM     55  N   UNL     1     -10.714  -2.827  -0.708  0.00  0.00    +0.000 NA
ATOM     56  H   UNL     1     -10.468  -2.474  -1.661  0.00  0.00    +0.000 HD
ATOM     57  H   UNL     1     -11.595  -2.367  -0.383  0.00  0.00    +0.000 HD
ENDBRANCH  51  55
ENDBRANCH  47  48
ENDBRANCH  11  47
TORSDOF 10
