REMARK  Name = 
REMARK  24 active torsions:
REMARK  status: ('A' for Active; 'I' for Inactive)
REMARK    1  A    between atoms: C_1  and  O_2
REMARK    2  A    between atoms: O_2  and  C_3
REMARK    3  A    between atoms: C_5  and  O_6
REMARK    4  A    between atoms: O_6  and  C_7
REMARK    5  A    between atoms: C_8  and  O_9
REMARK    6  A    between atoms: O_9  and  C_10
REMARK    7  A    between atoms: C_12  and  C_13
REMARK    8  A    between atoms: C_25  and  C_26
REMARK    9  A    between atoms: C_33  and  C_34
REMARK   10  A    between atoms: C_36  and  O_37
REMARK   11  A    between atoms: C_40  and  C_41
REMARK   12  A    between atoms: C_43  and  C_44
REMARK   13  A    between atoms: C_45  and  O_46
REMARK   14  A    between atoms: O_46  and  C_47
REMARK   15  A    between atoms: C_49  and  O_50
REMARK   16  A    between atoms: O_50  and  C_51
REMARK   17  A    between atoms: C_52  and  O_53
REMARK   18  A    between atoms: O_53  and  C_54
REMARK   19  A    between atoms: C_56  and  C_57
REMARK   20  A    between atoms: C_57  and  O_58
REMARK   21  A    between atoms: C_59  and  O_60
REMARK   22  A    between atoms: C_61  and  O_62
REMARK   23  A    between atoms: C_63  and  O_64
REMARK   24  A    between atoms: C_65  and  C_66
REMARK                            x       y       z     vdW  Elec       q    Type
REMARK                         _______ _______ _______ _____ _____    ______ ____
ROOT
ATOM      1  O   UNL     1      -0.714   0.501   0.835  0.00  0.00    +0.000 OA
ENDROOT
BRANCH   1   4
ATOM      2  C   UNL     1      -3.749   1.721   1.291  0.00  0.00    +0.000 C 
ATOM      3  C   UNL     1      -3.037   0.375   1.215  0.00  0.00    +0.000 C 
ATOM      4  C   UNL     1      -1.931   0.403   0.132  0.00  0.00    +0.000 C 
ATOM      5  O   UNL     1      -1.994   1.519  -0.749  0.00  0.00    +0.000 OA
ATOM      6  C   UNL     1      -3.282   1.922  -1.190  0.00  0.00    +0.000 C 
ATOM      7  C   UNL     1      -3.665   1.156  -2.459  0.00  0.00    +0.000 C 
ATOM      8  C   UNL     1      -4.385   1.945  -0.084  0.00  0.00    +0.000 C 
BRANCH   2  10
ATOM      9  C   UNL     1      -4.448   2.496   3.376  0.00  0.00    +0.000 C 
ATOM     10  O   UNL     1      -4.769   1.670   2.278  0.00  0.00    +0.000 OA
ENDBRANCH   2  10
BRANCH   8  11
ATOM     11  O   UNL     1      -5.342   0.915  -0.328  0.00  0.00    +0.000 OA
BRANCH  11  12
ATOM     12  C   UNL     1      -6.633   1.430  -0.599  0.00  0.00    +0.000 C 
ATOM     13  C   UNL     1      -7.332   0.448  -1.585  0.00  0.00    +0.000 C 
ATOM     14  C   UNL     1      -7.955  -0.667  -0.758  0.00  0.00    +0.000 C 
ATOM     15  C   UNL     1      -9.078  -0.048   0.119  0.00  0.00    +0.000 C 
ATOM     16  C   UNL     1      -8.700   1.410   0.538  0.00  0.00    +0.000 C 
ATOM     17  C   UNL     1      -9.367   1.815   1.851  0.00  0.00    +0.000 C 
ATOM     18  O   UNL     1      -7.304   1.567   0.660  0.00  0.00    +0.000 OA
BRANCH  14  19
ATOM     19  O   UNL     1      -8.477  -1.678  -1.607  0.00  0.00    +0.000 OA
ATOM     20  C   UNL     1      -8.197  -2.958  -1.085  0.00  0.00    +0.000 C 
ENDBRANCH  14  19
BRANCH  15  21
ATOM     21  O   UNL     1     -10.279   0.028  -0.640  0.00  0.00    +0.000 OA
BRANCH  21  22
ATOM     22  C   UNL     1     -11.408  -0.461   0.058  0.00  0.00    +0.000 C 
ATOM     23  O   UNL     1     -11.576  -1.835  -0.264  0.00  0.00    +0.000 OA
ATOM     24  C   UNL     1     -12.671  -2.399   0.443  0.00  0.00    +0.000 C 
ATOM     25  C   UNL     1     -14.003  -1.712   0.033  0.00  0.00    +0.000 C 
ATOM     26  C   UNL     1     -13.899  -0.199   0.290  0.00  0.00    +0.000 C 
ATOM     27  C   UNL     1     -12.639   0.345  -0.411  0.00  0.00    +0.000 C 
BRANCH  25  28
ATOM     28  O   UNL     1     -15.101  -2.260   0.719  0.00  0.00    +0.000 OA
ATOM     29  H   UNL     1     -14.940  -2.136   1.691  0.00  0.00    +0.000 HD
ENDBRANCH  25  28
BRANCH  26  30
ATOM     30  O   UNL     1     -15.057   0.475  -0.137  0.00  0.00    +0.000 OA
ATOM     31  H   UNL     1     -15.136   0.346  -1.118  0.00  0.00    +0.000 HD
ENDBRANCH  26  30
BRANCH  27  32
ATOM     32  O   UNL     1     -12.471   1.720  -0.171  0.00  0.00    +0.000 OA
ATOM     33  H   UNL     1     -12.543   1.871   0.806  0.00  0.00    +0.000 HD
ENDBRANCH  27  32
BRANCH  24  34
ATOM     34  C   UNL     1     -12.714  -3.906   0.150  0.00  0.00    +0.000 C 
BRANCH  34  35
ATOM     35  O   UNL     1     -12.864  -4.150  -1.224  0.00  0.00    +0.000 OA
ATOM     36  H   UNL     1     -13.837  -4.251  -1.397  0.00  0.00    +0.000 HD
ENDBRANCH  34  35
ENDBRANCH  24  34
ENDBRANCH  21  22
ENDBRANCH  15  21
ENDBRANCH  11  12
ENDBRANCH   8  11
ENDBRANCH   1   4
BRANCH   1  37
ATOM     37  C   UNL     1       0.407   0.009   0.117  0.00  0.00    +0.000 C 
ATOM     38  C   UNL     1       1.121   1.176  -0.603  0.00  0.00    +0.000 C 
ATOM     39  C   UNL     1       2.506   0.698  -1.095  0.00  0.00    +0.000 C 
ATOM     40  C   UNL     1       3.253   0.172   0.143  0.00  0.00    +0.000 C 
ATOM     41  O   UNL     1       2.603  -1.002   0.600  0.00  0.00    +0.000 OA
ATOM     42  C   UNL     1       1.342  -0.668   1.159  0.00  0.00    +0.000 C 
ATOM     43  C   UNL     1       0.688  -1.952   1.680  0.00  0.00    +0.000 C 
BRANCH  40  44
ATOM     44  C   UNL     1       4.779  -0.053   0.010  0.00  0.00    +0.000 C 
ATOM     45  C   UNL     1       5.471   1.239  -0.456  0.00  0.00    +0.000 C 
ATOM     46  C   UNL     1       6.962   1.097  -0.300  0.00  0.00    +0.000 C 
ATOM     47  C   UNL     1       7.598   2.025   0.436  0.00  0.00    +0.000 C 
ATOM     48  C   UNL     1       9.066   2.039   0.668  0.00  0.00    +0.000 C 
ATOM     49  C   UNL     1       9.850   1.067  -0.228  0.00  0.00    +0.000 C 
ATOM     50  C   UNL     1      11.204   0.972   0.380  0.00  0.00    +0.000 C 
ATOM     51  O   UNL     1      12.190   1.374  -0.220  0.00  0.00    +0.000 OA
ATOM     52  O   UNL     1      11.284   0.380   1.598  0.00  0.00    +0.000 OA
ATOM     53  C   UNL     1      12.362  -0.205   2.233  0.00  0.00    +0.000 C 
ATOM     54  C   UNL     1      13.508   0.754   2.476  0.00  0.00    +0.000 C 
ATOM     55  O   UNL     1      14.316   0.727   1.324  0.00  0.00    +0.000 OA
ATOM     56  C   UNL     1      14.319  -0.630   0.909  0.00  0.00    +0.000 C 
ATOM     57  C   UNL     1      15.571  -1.345   1.435  0.00  0.00    +0.000 C 
ATOM     58  O   UNL     1      14.280  -0.702  -0.470  0.00  0.00    +0.000 OA
ATOM     59  C   UNL     1      13.146  -1.266  -0.913  0.00  0.00    +0.000 C 
ATOM     60  C   UNL     1      12.339  -1.609   0.075  0.00  0.00    +0.000 C 
ATOM     61  C   UNL     1      10.988  -2.247  -0.117  0.00  0.00    +0.000 C 
ATOM     62  C   UNL     1       9.937  -1.478  -0.980  0.00  0.00    +0.000 C 
ATOM     63  C   UNL     1       9.118  -0.312  -0.303  0.00  0.00    +0.000 C 
ATOM     64  C   UNL     1       7.670  -0.103  -0.956  0.00  0.00    +0.000 C 
ATOM     65  C   UNL     1       7.740   0.159  -2.481  0.00  0.00    +0.000 C 
ATOM     66  C   UNL     1       6.796  -1.388  -0.693  0.00  0.00    +0.000 C 
ATOM     67  C   UNL     1       5.263  -1.208  -0.898  0.00  0.00    +0.000 C 
ATOM     68  C   UNL     1      13.014  -1.291   1.388  0.00  0.00    +0.000 C 
BRANCH  67  69
ATOM     69  O   UNL     1       4.601  -2.414  -0.597  0.00  0.00    +0.000 OA
ATOM     70  H   UNL     1       4.793  -2.640   0.351  0.00  0.00    +0.000 HD
ENDBRANCH  67  69
ENDBRANCH  40  44
BRANCH  38  71
ATOM     71  O   UNL     1       1.278   2.249   0.316  0.00  0.00    +0.000 OA
ATOM     72  C   UNL     1       1.281   3.493  -0.351  0.00  0.00    +0.000 C 
ENDBRANCH  38  71
ENDBRANCH   1  37
TORSDOF 16
