REMARK  Name = 
REMARK  20 active torsions:
REMARK  status: ('A' for Active; 'I' for Inactive)
REMARK    1  A    between atoms: C_1  and  C_2
REMARK    2  A    between atoms: C_2  and  C_3
REMARK    3  A    between atoms: C_2  and  C_4
REMARK    4  A    between atoms: C_8  and  O_9
REMARK    5  A    between atoms: O_9  and  C_10
REMARK    6  A    between atoms: C_12  and  C_13
REMARK    7  A    between atoms: C_13  and  O_14
REMARK    8  A    between atoms: C_15  and  O_16
REMARK    9  A    between atoms: O_16  and  C_17
REMARK   10  A    between atoms: C_19  and  C_20
REMARK   11  A    between atoms: C_21  and  O_22
REMARK   12  A    between atoms: C_23  and  O_24
REMARK   13  A    between atoms: C_25  and  O_26
REMARK   14  A    between atoms: C_27  and  O_28
REMARK   15  A    between atoms: C_29  and  O_30
REMARK   16  A    between atoms: C_33  and  C_34
REMARK   17  A    between atoms: C_38  and  C_39
REMARK   18  A    between atoms: C_49  and  C_50
REMARK   19  A    between atoms: C_49  and  O_51
REMARK   20  A    between atoms: C_54  and  C_55
REMARK                            x       y       z     vdW  Elec       q    Type
REMARK                         _______ _______ _______ _____ _____    ______ ____
ROOT
ATOM      1  C   UNL     1      -1.789   1.600   0.842  0.00  0.00    +0.000 C 
ATOM      2  C   UNL     1      -0.514   1.661   0.023  0.00  0.00    +0.000 C 
ATOM      3  C   UNL     1       0.064   0.542  -0.452  0.00  0.00    +0.000 C 
ATOM      4  C   UNL     1       1.209   0.669  -1.433  0.00  0.00    +0.000 C 
ATOM      5  C   UNL     1       2.277  -0.417  -1.235  0.00  0.00    +0.000 C 
ATOM      6  C   UNL     1       1.661  -1.830  -1.019  0.00  0.00    +0.000 C 
ATOM      7  C   UNL     1       0.122  -1.853  -1.194  0.00  0.00    +0.000 C 
ATOM      8  C   UNL     1      -0.584  -0.834  -0.232  0.00  0.00    +0.000 C 
ATOM      9  C   UNL     1      -0.434  -1.370   1.224  0.00  0.00    +0.000 C 
ATOM     10  C   UNL     1      -2.084  -0.596  -0.609  0.00  0.00    +0.000 C 
ATOM     11  C   UNL     1      -2.932  -1.875  -0.827  0.00  0.00    +0.000 C 
ATOM     12  C   UNL     1      -4.313  -1.498  -1.405  0.00  0.00    +0.000 C 
ATOM     13  C   UNL     1      -5.053  -0.512  -0.477  0.00  0.00    +0.000 C 
ATOM     14  C   UNL     1      -5.431  -1.273   0.849  0.00  0.00    +0.000 C 
ATOM     15  C   UNL     1      -6.286   0.158  -1.149  0.00  0.00    +0.000 C 
ATOM     16  C   UNL     1      -6.540   1.375  -0.276  0.00  0.00    +0.000 C 
ATOM     17  C   UNL     1      -5.204   1.677   0.442  0.00  0.00    +0.000 C 
ATOM     18  C   UNL     1      -4.183   0.770  -0.266  0.00  0.00    +0.000 C 
ATOM     19  C   UNL     1      -2.794   0.436   0.377  0.00  0.00    +0.000 C 
ATOM     20  O   UNL     1      -7.523   1.006   0.659  0.00  0.00    +0.000 OA
ATOM     21  C   UNL     1      -8.436   0.179  -0.039  0.00  0.00    +0.000 C 
ATOM     22  C   UNL     1      -9.026  -0.877   0.966  0.00  0.00    +0.000 C 
ATOM     23  C   UNL     1     -10.400  -1.298   0.457  0.00  0.00    +0.000 C 
ATOM     24  C   UNL     1     -11.349  -0.059   0.443  0.00  0.00    +0.000 C 
ATOM     25  C   UNL     1     -12.135   0.070   1.765  0.00  0.00    +0.000 C 
ATOM     26  C   UNL     1     -10.516   1.241   0.262  0.00  0.00    +0.000 C 
ATOM     27  O   UNL     1      -9.442   1.026  -0.626  0.00  0.00    +0.000 OA
ATOM     28  C   UNL     1      -7.636  -0.547  -1.179  0.00  0.00    +0.000 C 
ATOM     29  C   UNL     1      -8.295  -0.441  -2.568  0.00  0.00    +0.000 C 
ENDROOT
BRANCH   1  31
ATOM     30  C   UNL     1      -1.406   3.801   2.098  0.00  0.00    +0.000 C 
ATOM     31  C   UNL     1      -2.363   3.008   1.187  0.00  0.00    +0.000 C 
ATOM     32  C   UNL     1      -2.662   3.859  -0.068  0.00  0.00    +0.000 C 
ENDBRANCH   1  31
BRANCH  24  33
ATOM     33  O   UNL     1     -12.250  -0.184  -0.631  0.00  0.00    +0.000 OA
ATOM     34  H   UNL     1     -12.792  -1.002  -0.478  0.00  0.00    +0.000 HD
ENDBRANCH  24  33
BRANCH   5  35
ATOM     35  O   UNL     1       3.098  -0.060  -0.131  0.00  0.00    +0.000 OA
BRANCH  35  36
ATOM     36  C   UNL     1       4.487  -0.193  -0.403  0.00  0.00    +0.000 C 
ATOM     37  O   UNL     1       4.943  -1.410   0.169  0.00  0.00    +0.000 OA
ATOM     38  C   UNL     1       6.320  -1.629  -0.113  0.00  0.00    +0.000 C 
ATOM     39  C   UNL     1       7.192  -0.523   0.552  0.00  0.00    +0.000 C 
ATOM     40  C   UNL     1       6.743   0.875   0.067  0.00  0.00    +0.000 C 
ATOM     41  C   UNL     1       5.217   1.002   0.252  0.00  0.00    +0.000 C 
BRANCH  40  42
ATOM     42  O   UNL     1       7.140   1.133  -1.262  0.00  0.00    +0.000 OA
ATOM     43  H   UNL     1       6.827   0.405  -1.853  0.00  0.00    +0.000 HD
ENDBRANCH  40  42
BRANCH  41  44
ATOM     44  O   UNL     1       4.747   2.236  -0.233  0.00  0.00    +0.000 OA
ATOM     45  H   UNL     1       4.809   2.215  -1.224  0.00  0.00    +0.000 HD
ENDBRANCH  41  44
BRANCH  38  46
ATOM     46  C   UNL     1       6.686  -3.024   0.425  0.00  0.00    +0.000 C 
BRANCH  46  47
ATOM     47  O   UNL     1       8.017  -3.359   0.140  0.00  0.00    +0.000 OA
ATOM     48  H   UNL     1       8.054  -3.579  -0.828  0.00  0.00    +0.000 HD
ENDBRANCH  46  47
ENDBRANCH  38  46
BRANCH  39  49
ATOM     49  O   UNL     1       8.558  -0.736   0.240  0.00  0.00    +0.000 OA
BRANCH  49  50
ATOM     50  C   UNL     1       9.444  -0.185   1.209  0.00  0.00    +0.000 C 
ATOM     51  O   UNL     1      10.058   1.001   0.711  0.00  0.00    +0.000 OA
ATOM     52  C   UNL     1      10.809   0.754  -0.474  0.00  0.00    +0.000 C 
ATOM     53  C   UNL     1      11.371   2.089  -0.969  0.00  0.00    +0.000 C 
ATOM     54  C   UNL     1      11.962  -0.253  -0.210  0.00  0.00    +0.000 C 
ATOM     55  C   UNL     1      11.378  -1.557   0.368  0.00  0.00    +0.000 C 
ATOM     56  C   UNL     1      10.507  -1.239   1.598  0.00  0.00    +0.000 C 
BRANCH  54  57
ATOM     57  O   UNL     1      12.699  -0.513  -1.380  0.00  0.00    +0.000 OA
ATOM     58  H   UNL     1      12.070  -0.877  -2.056  0.00  0.00    +0.000 HD
ENDBRANCH  54  57
BRANCH  55  59
ATOM     59  O   UNL     1      12.380  -2.495   0.672  0.00  0.00    +0.000 OA
ATOM     60  H   UNL     1      13.024  -2.059   1.291  0.00  0.00    +0.000 HD
ENDBRANCH  55  59
BRANCH  56  61
ATOM     61  O   UNL     1      11.292  -0.803   2.686  0.00  0.00    +0.000 OA
ATOM     62  H   UNL     1      11.554   0.142   2.540  0.00  0.00    +0.000 HD
ENDBRANCH  56  61
ENDBRANCH  49  50
ENDBRANCH  39  49
ENDBRANCH  35  36
ENDBRANCH   5  35
TORSDOF 13
