REMARK  Name = 
REMARK  24 active torsions:
REMARK  status: ('A' for Active; 'I' for Inactive)
REMARK    1  A    between atoms: C_5  and  C_6
REMARK    2  A    between atoms: C_6  and  O_8
REMARK    3  A    between atoms: O_8  and  C_9
REMARK    4  A    between atoms: C_11  and  C_12
REMARK    5  A    between atoms: C_12  and  O_13
REMARK    6  A    between atoms: C_14  and  O_15
REMARK    7  A    between atoms: C_16  and  O_17
REMARK    8  A    between atoms: C_18  and  O_19
REMARK    9  A    between atoms: C_22  and  C_23
REMARK   10  A    between atoms: C_28  and  C_29
REMARK   11  A    between atoms: C_32  and  O_33
REMARK   12  A    between atoms: O_33  and  C_34
REMARK   13  A    between atoms: C_37  and  O_38
REMARK   14  A    between atoms: C_39  and  O_40
REMARK   15  A    between atoms: O_40  and  C_41
REMARK   16  A    between atoms: C_43  and  C_44
REMARK   17  A    between atoms: C_44  and  O_45
REMARK   18  A    between atoms: C_46  and  O_47
REMARK   19  A    between atoms: C_48  and  O_49
REMARK   20  A    between atoms: C_50  and  O_51
REMARK   21  A    between atoms: C_52  and  O_53
REMARK   22  A    between atoms: C_54  and  C_55
REMARK   23  A    between atoms: C_54  and  C_56
REMARK   24  A    between atoms: C_60  and  C_61
REMARK                            x       y       z     vdW  Elec       q    Type
REMARK                         _______ _______ _______ _____ _____    ______ ____
ROOT
ATOM      1  C   UNL     1      -7.151   1.024   4.369  0.00  0.00    +0.000 C 
ATOM      2  C   UNL     1      -7.014   0.658   3.086  0.00  0.00    +0.000 C 
ATOM      3  C   UNL     1      -8.028  -0.213   2.400  0.00  0.00    +0.000 C 
ATOM      4  C   UNL     1      -7.313  -1.477   1.891  0.00  0.00    +0.000 C 
ATOM      5  C   UNL     1      -6.098  -1.141   0.962  0.00  0.00    +0.000 C 
ATOM      6  C   UNL     1      -5.365  -2.469   0.614  0.00  0.00    +0.000 C 
ATOM      7  C   UNL     1      -4.060  -2.231  -0.179  0.00  0.00    +0.000 C 
ATOM      8  C   UNL     1      -3.012  -1.292   0.530  0.00  0.00    +0.000 C 
ATOM      9  C   UNL     1      -2.531  -1.973   1.861  0.00  0.00    +0.000 C 
ATOM     10  C   UNL     1      -3.790  -0.022   0.967  0.00  0.00    +0.000 C 
ATOM     11  C   UNL     1      -3.357   1.222   0.683  0.00  0.00    +0.000 C 
ATOM     12  C   UNL     1      -2.073   1.541   0.007  0.00  0.00    +0.000 C 
ATOM     13  C   UNL     1      -1.063   0.369  -0.026  0.00  0.00    +0.000 C 
ATOM     14  C   UNL     1       0.334   0.783  -0.735  0.00  0.00    +0.000 C 
ATOM     15  C   UNL     1       0.095   1.726  -1.961  0.00  0.00    +0.000 C 
ATOM     16  C   UNL     1       1.125   1.593   0.346  0.00  0.00    +0.000 C 
ATOM     17  C   UNL     1       2.573   1.907  -0.029  0.00  0.00    +0.000 C 
ATOM     18  C   UNL     1       3.364   0.596  -0.199  0.00  0.00    +0.000 C 
ATOM     19  C   UNL     1       2.768  -0.274  -1.349  0.00  0.00    +0.000 C 
ATOM     20  C   UNL     1       3.095   0.363  -2.736  0.00  0.00    +0.000 C 
ATOM     21  C   UNL     1       3.537  -1.627  -1.371  0.00  0.00    +0.000 C 
ATOM     22  C   UNL     1       1.184  -0.503  -1.162  0.00  0.00    +0.000 C 
ATOM     23  C   UNL     1       0.804  -1.665  -0.212  0.00  0.00    +0.000 C 
ATOM     24  C   UNL     1      -0.655  -2.117  -0.483  0.00  0.00    +0.000 C 
ATOM     25  C   UNL     1      -1.749  -0.966  -0.477  0.00  0.00    +0.000 C 
ATOM     26  C   UNL     1      -2.228  -0.799  -1.953  0.00  0.00    +0.000 C 
ATOM     27  C   UNL     1      -5.105  -0.227   1.762  0.00  0.00    +0.000 C 
ATOM     28  C   UNL     1      -5.812   1.061   2.271  0.00  0.00    +0.000 C 
ENDROOT
BRANCH   5  29
ATOM     29  C   UNL     1      -6.615  -0.449  -0.312  0.00  0.00    +0.000 C 
ATOM     30  O   UNL     1      -5.989   0.480  -0.807  0.00  0.00    +0.000 OA
BRANCH  29  31
ATOM     31  O   UNL     1      -7.864  -0.744  -0.774  0.00  0.00    +0.000 OA
BRANCH  31  32
ATOM     32  C   UNL     1      -8.656   0.103  -1.538  0.00  0.00    +0.000 C 
ATOM     33  O   UNL     1      -9.824   0.384  -0.756  0.00  0.00    +0.000 OA
ATOM     34  C   UNL     1     -10.980   0.589  -1.540  0.00  0.00    +0.000 C 
ATOM     35  C   UNL     1     -11.391  -0.729  -2.263  0.00  0.00    +0.000 C 
ATOM     36  C   UNL     1     -10.139  -1.527  -2.757  0.00  0.00    +0.000 C 
ATOM     37  C   UNL     1      -8.944  -0.574  -2.921  0.00  0.00    +0.000 C 
BRANCH  35  38
ATOM     38  O   UNL     1     -12.275  -0.437  -3.318  0.00  0.00    +0.000 OA
ATOM     39  H   UNL     1     -11.784   0.105  -3.988  0.00  0.00    +0.000 HD
ENDBRANCH  35  38
BRANCH  36  40
ATOM     40  O   UNL     1      -9.795  -2.563  -1.862  0.00  0.00    +0.000 OA
ATOM     41  H   UNL     1      -9.920  -2.248  -0.930  0.00  0.00    +0.000 HD
ENDBRANCH  36  40
BRANCH  37  42
ATOM     42  O   UNL     1      -9.262   0.391  -3.893  0.00  0.00    +0.000 OA
ATOM     43  H   UNL     1      -8.418   0.863  -4.118  0.00  0.00    +0.000 HD
ENDBRANCH  37  42
BRANCH  34  44
ATOM     44  C   UNL     1     -12.125   1.109  -0.661  0.00  0.00    +0.000 C 
BRANCH  44  45
ATOM     45  O   UNL     1     -11.761   2.313  -0.041  0.00  0.00    +0.000 OA
ATOM     46  H   UNL     1     -11.260   2.072   0.782  0.00  0.00    +0.000 HD
ENDBRANCH  44  45
ENDBRANCH  34  44
ENDBRANCH  31  32
ENDBRANCH  29  31
ENDBRANCH   5  29
BRANCH  18  47
ATOM     47  O   UNL     1       4.721   0.888  -0.499  0.00  0.00    +0.000 OA
BRANCH  47  48
ATOM     48  C   UNL     1       5.500   1.213   0.639  0.00  0.00    +0.000 C 
ATOM     49  O   UNL     1       6.199   2.413   0.371  0.00  0.00    +0.000 OA
ATOM     50  C   UNL     1       6.947   2.880   1.498  0.00  0.00    +0.000 C 
ATOM     51  C   UNL     1       7.355   1.774   2.515  0.00  0.00    +0.000 C 
ATOM     52  C   UNL     1       7.738   0.514   1.725  0.00  0.00    +0.000 C 
ATOM     53  C   UNL     1       6.490   0.046   0.921  0.00  0.00    +0.000 C 
BRANCH  51  54
ATOM     54  O   UNL     1       8.385   2.213   3.366  0.00  0.00    +0.000 OA
ATOM     55  H   UNL     1       9.187   2.391   2.810  0.00  0.00    +0.000 HD
ENDBRANCH  51  54
BRANCH  53  56
ATOM     56  O   UNL     1       5.811  -0.996   1.576  0.00  0.00    +0.000 OA
ATOM     57  H   UNL     1       5.555  -0.670   2.477  0.00  0.00    +0.000 HD
ENDBRANCH  53  56
BRANCH  52  58
ATOM     58  O   UNL     1       8.779   0.859   0.812  0.00  0.00    +0.000 OA
BRANCH  58  59
ATOM     59  C   UNL     1       9.842  -0.085   0.773  0.00  0.00    +0.000 C 
ATOM     60  O   UNL     1      11.007   0.601   1.250  0.00  0.00    +0.000 OA
ATOM     61  C   UNL     1      12.198  -0.053   0.869  0.00  0.00    +0.000 C 
ATOM     62  C   UNL     1      12.419   0.050  -0.680  0.00  0.00    +0.000 C 
ATOM     63  C   UNL     1      11.068   0.169  -1.449  0.00  0.00    +0.000 C 
ATOM     64  C   UNL     1       9.972  -0.613  -0.705  0.00  0.00    +0.000 C 
BRANCH  62  65
ATOM     65  O   UNL     1      13.299   1.075  -1.071  0.00  0.00    +0.000 OA
ATOM     66  H   UNL     1      12.965   1.928  -0.693  0.00  0.00    +0.000 HD
ENDBRANCH  62  65
BRANCH  63  67
ATOM     67  O   UNL     1      10.666   1.509  -1.614  0.00  0.00    +0.000 OA
ATOM     68  H   UNL     1      10.672   1.969  -0.737  0.00  0.00    +0.000 HD
ENDBRANCH  63  67
BRANCH  64  69
ATOM     69  O   UNL     1      10.200  -2.002  -0.764  0.00  0.00    +0.000 OA
ATOM     70  H   UNL     1      11.020  -2.234  -0.267  0.00  0.00    +0.000 HD
ENDBRANCH  64  69
BRANCH  61  71
ATOM     71  C   UNL     1      13.386   0.471   1.689  0.00  0.00    +0.000 C 
BRANCH  71  72
ATOM     72  O   UNL     1      13.156   0.283   3.060  0.00  0.00    +0.000 OA
ATOM     73  H   UNL     1      12.584   1.037   3.360  0.00  0.00    +0.000 HD
ENDBRANCH  71  72
ENDBRANCH  61  71
ENDBRANCH  58  59
ENDBRANCH  52  58
ENDBRANCH  47  48
ENDBRANCH  18  47
TORSDOF 19
