REMARK  Name = 
REMARK  10 active torsions:
REMARK  status: ('A' for Active; 'I' for Inactive)
REMARK    1  A    between atoms: C_1  and  C_2
REMARK    2  A    between atoms: C_7  and  O_8
REMARK    3  A    between atoms: C_15  and  C_16
REMARK    4  A    between atoms: C_15  and  C_17
REMARK    5  A    between atoms: C_27  and  C_28
REMARK    6  A    between atoms: C_28  and  C_29
REMARK    7  A    between atoms: C_29  and  C_30
REMARK    8  A    between atoms: C_35  and  C_36
REMARK    9  A    between atoms: C_41  and  C_42
REMARK   10  A    between atoms: C_42  and  N_43
REMARK                            x       y       z     vdW  Elec       q    Type
REMARK                         _______ _______ _______ _____ _____    ______ ____
ROOT
ATOM      1  C   UNL     1     -11.089   1.558  -3.599  0.00  0.00    +0.000 C 
ATOM      2  C   UNL     1     -10.052   0.913  -2.733  0.00  0.00    +0.000 A 
ATOM      3  C   UNL     1     -10.117  -0.443  -2.419  0.00  0.00    +0.000 A 
ATOM      4  C   UNL     1      -9.149  -1.000  -1.581  0.00  0.00    +0.000 A 
ATOM      5  O   UNL     1      -9.242  -2.185  -1.325  0.00  0.00    +0.000 OA
ATOM      6  C   UNL     1      -8.103  -0.186  -1.059  0.00  0.00    +0.000 A 
ATOM      7  C   UNL     1      -7.070  -0.627  -0.161  0.00  0.00    +0.000 A 
ATOM      8  C   UNL     1      -6.068   0.299   0.288  0.00  0.00    +0.000 A 
ATOM      9  C   UNL     1      -6.093   1.607  -0.210  0.00  0.00    +0.000 A 
ATOM     10  C   UNL     1      -7.113   2.037  -1.046  0.00  0.00    +0.000 A 
ATOM     11  C   UNL     1      -8.112   1.173  -1.462  0.00  0.00    +0.000 A 
ATOM     12  O   UNL     1      -9.063   1.654  -2.256  0.00  0.00    +0.000 OA
ATOM     13  O   UNL     1      -5.113   2.491   0.063  0.00  0.00    +0.000 OA
ATOM     14  C   UNL     1      -3.864   2.264   0.623  0.00  0.00    +0.000 C 
ATOM     15  C   UNL     1      -2.839   2.692  -0.453  0.00  0.00    +0.000 C 
ATOM     16  C   UNL     1      -3.744   3.280   1.780  0.00  0.00    +0.000 C 
ATOM     17  C   UNL     1      -3.640   0.715   1.035  0.00  0.00    +0.000 C 
ATOM     18  C   UNL     1      -2.717   0.585   2.333  0.00  0.00    +0.000 C 
ATOM     19  C   UNL     1      -3.043  -0.626   3.256  0.00  0.00    +0.000 C 
ATOM     20  C   UNL     1      -3.471  -1.855   2.466  0.00  0.00    +0.000 C 
ATOM     21  C   UNL     1      -4.724  -1.510   1.612  0.00  0.00    +0.000 C 
ATOM     22  C   UNL     1      -4.980   0.013   1.341  0.00  0.00    +0.000 C 
ATOM     23  C   UNL     1      -2.302  -2.517   1.694  0.00  0.00    +0.000 C 
ATOM     24  C   UNL     1      -1.415  -1.556   0.884  0.00  0.00    +0.000 C 
ATOM     25  O   UNL     1      -0.291  -2.258   0.377  0.00  0.00    +0.000 OA
ATOM     26  C   UNL     1      -0.004  -1.238   1.300  0.00  0.00    +0.000 C 
ATOM     27  C   UNL     1      -2.057  -0.782  -0.251  0.00  0.00    +0.000 C 
ATOM     28  O   UNL     1      -1.633  -0.939  -1.387  0.00  0.00    +0.000 OA
ATOM     29  O   UNL     1      -3.130   0.044  -0.084  0.00  0.00    +0.000 OA
ENDROOT
BRANCH   7  30
ATOM     30  O   UNL     1      -7.022  -1.899   0.295  0.00  0.00    +0.000 OA
ATOM     31  H   UNL     1      -7.594  -2.638   0.074  0.00  0.00    +0.000 HD
ENDBRANCH   7  30
BRANCH  26  32
ATOM     32  C   UNL     1       0.524  -1.801   2.639  0.00  0.00    +0.000 C 
BRANCH  32  33
ATOM     33  C   UNL     1       1.944  -1.323   2.939  0.00  0.00    +0.000 C 
BRANCH  33  34
ATOM     34  C   UNL     1       2.933  -1.731   1.880  0.00  0.00    +0.000 A 
ATOM     35  C   UNL     1       3.265  -3.078   1.673  0.00  0.00    +0.000 A 
ATOM     36  C   UNL     1       4.210  -3.407   0.695  0.00  0.00    +0.000 A 
ATOM     37  N   UNL     1       4.584  -4.755   0.480  0.00  0.00    +0.000 N 
ATOM     38  N   UNL     1       4.786  -2.423  -0.048  0.00  0.00    +0.000 NA
ATOM     39  C   UNL     1       4.483  -1.104   0.113  0.00  0.00    +0.000 A 
ATOM     40  C   UNL     1       3.541  -0.747   1.097  0.00  0.00    +0.000 A 
ATOM     41  H   UNL     1       4.170  -5.516   1.041  0.00  0.00    +0.000 HD
ATOM     42  H   UNL     1       5.287  -4.990  -0.232  0.00  0.00    +0.000 HD
BRANCH  39  43
ATOM     43  C   UNL     1       5.170  -0.079  -0.729  0.00  0.00    +0.000 A 
ATOM     44  C   UNL     1       4.842   1.294  -0.680  0.00  0.00    +0.000 A 
ATOM     45  C   UNL     1       5.546   2.213  -1.463  0.00  0.00    +0.000 A 
ATOM     46  N   UNL     1       5.212   3.588  -1.423  0.00  0.00    +0.000 N 
ATOM     47  N   UNL     1       6.561   1.788  -2.256  0.00  0.00    +0.000 NA
ATOM     48  C   UNL     1       6.902   0.475  -2.348  0.00  0.00    +0.000 A 
ATOM     49  C   UNL     1       6.205  -0.479  -1.596  0.00  0.00    +0.000 A 
ATOM     50  H   UNL     1       4.442   3.929  -0.830  0.00  0.00    +0.000 HD
ATOM     51  H   UNL     1       5.730   4.264  -2.004  0.00  0.00    +0.000 HD
BRANCH  48  52
ATOM     52  C   UNL     1       8.058   0.070  -3.215  0.00  0.00    +0.000 C 
BRANCH  52  53
ATOM     53  N   UNL     1       9.303   0.437  -2.564  0.00  0.00    +0.000 N 
ATOM     54  C   UNL     1      10.211  -0.415  -2.204  0.00  0.00    +0.000 C 
ATOM     55  C   UNL     1      11.262   0.336  -1.549  0.00  0.00    +0.000 C 
ATOM     56  C   UNL     1      12.426   0.295  -0.930  0.00  0.00    +0.000 C 
ATOM     57  C   UNL     1      12.722   1.639  -0.591  0.00  0.00    +0.000 C 
ATOM     58  N   UNL     1      11.806   2.476  -0.973  0.00  0.00    +0.000 NA
ATOM     59  C   UNL     1      10.861   1.654  -1.590  0.00  0.00    +0.000 C 
ATOM     60  C   UNL     1       9.693   1.764  -2.194  0.00  0.00    +0.000 C 
ENDBRANCH  52  53
ENDBRANCH  48  52
ENDBRANCH  39  43
ENDBRANCH  33  34
ENDBRANCH  32  33
ENDBRANCH  26  32
TORSDOF 7
