REMARK  Name = 
REMARK  12 active torsions:
REMARK  status: ('A' for Active; 'I' for Inactive)
REMARK    1  A    between atoms: C_1  and  C_2
REMARK    2  A    between atoms: C_4  and  O_5
REMARK    3  A    between atoms: O_5  and  C_6
REMARK    4  A    between atoms: C_6  and  C_7
REMARK    5  A    between atoms: C_9  and  O_10
REMARK    6  A    between atoms: O_10  and  C_11
REMARK    7  A    between atoms: C_33  and  O_34
REMARK    8  A    between atoms: C_35  and  O_36
REMARK    9  A    between atoms: C_37  and  O_38
REMARK   10  A    between atoms: C_39  and  O_40
REMARK   11  A    between atoms: C_41  and  O_42
REMARK   12  A    between atoms: C_43  and  O_44
REMARK                            x       y       z     vdW  Elec       q    Type
REMARK                         _______ _______ _______ _____ _____    ______ ____
ROOT
ATOM      1  C   UNL     1      -3.117   1.000  -0.495  0.00  0.00    +0.000 C 
ATOM      2  O   UNL     1      -2.258   1.909   0.165  0.00  0.00    +0.000 OA
ATOM      3  C   UNL     1      -0.892   1.699  -0.223  0.00  0.00    +0.000 C 
ATOM      4  C   UNL     1      -0.744   1.270  -1.735  0.00  0.00    +0.000 C 
ATOM      5  C   UNL     1      -1.881   1.909  -2.557  0.00  0.00    +0.000 C 
ATOM      6  C   UNL     1      -3.251   1.406  -1.995  0.00  0.00    +0.000 C 
ENDROOT
BRANCH   4   7
ATOM      7  O   UNL     1       0.523   1.569  -2.260  0.00  0.00    +0.000 OA
ATOM      8  H   UNL     1       0.626   2.556  -2.252  0.00  0.00    +0.000 HD
ENDBRANCH   4   7
BRANCH   5   9
ATOM      9  O   UNL     1      -1.782   3.316  -2.513  0.00  0.00    +0.000 OA
ATOM     10  H   UNL     1      -2.151   3.643  -1.653  0.00  0.00    +0.000 HD
ENDBRANCH   5   9
BRANCH   6  11
ATOM     11  O   UNL     1      -3.739   0.315  -2.740  0.00  0.00    +0.000 OA
ATOM     12  H   UNL     1      -3.054  -0.403  -2.712  0.00  0.00    +0.000 HD
ENDBRANCH   6  11
BRANCH   1  13
ATOM     13  C   UNL     1      -4.469   0.910   0.219  0.00  0.00    +0.000 C 
BRANCH  13  14
ATOM     14  O   UNL     1      -5.261  -0.057  -0.438  0.00  0.00    +0.000 OA
BRANCH  14  18
ATOM     15  C   UNL     1      -7.353  -3.640   1.648  0.00  0.00    +0.000 C 
ATOM     16  C   UNL     1      -7.250  -2.111   1.762  0.00  0.00    +0.000 C 
ATOM     17  O   UNL     1      -6.194  -1.709   0.876  0.00  0.00    +0.000 OA
ATOM     18  C   UNL     1      -6.397  -0.424   0.323  0.00  0.00    +0.000 C 
ATOM     19  C   UNL     1      -7.641  -0.412  -0.612  0.00  0.00    +0.000 C 
ATOM     20  C   UNL     1      -8.801  -1.266  -0.040  0.00  0.00    +0.000 C 
ATOM     21  C   UNL     1      -8.630  -1.406   1.482  0.00  0.00    +0.000 C 
BRANCH  19  22
ATOM     22  O   UNL     1      -7.341  -0.837  -1.919  0.00  0.00    +0.000 OA
ATOM     23  H   UNL     1      -6.887  -1.717  -1.849  0.00  0.00    +0.000 HD
ENDBRANCH  19  22
BRANCH  20  24
ATOM     24  O   UNL     1     -10.050  -0.737  -0.408  0.00  0.00    +0.000 OA
ATOM     25  H   UNL     1     -10.149   0.136   0.054  0.00  0.00    +0.000 HD
ENDBRANCH  20  24
BRANCH  21  26
ATOM     26  O   UNL     1      -9.703  -2.073   2.106  0.00  0.00    +0.000 OA
ATOM     27  H   UNL     1      -9.986  -2.823   1.520  0.00  0.00    +0.000 HD
ENDBRANCH  21  26
ENDBRANCH  14  18
ENDBRANCH  13  14
ENDBRANCH   1  13
BRANCH   3  28
ATOM     28  O   UNL     1      -0.356   0.744   0.622  0.00  0.00    +0.000 OA
BRANCH  28  29
ATOM     29  C   UNL     1       0.919   0.305   0.742  0.00  0.00    +0.000 A 
ATOM     30  C   UNL     1       1.102  -0.934   1.396  0.00  0.00    +0.000 A 
ATOM     31  C   UNL     1       2.377  -1.490   1.556  0.00  0.00    +0.000 A 
ATOM     32  C   UNL     1       3.459  -0.780   1.054  0.00  0.00    +0.000 A 
ATOM     33  N   UNL     1       4.753  -1.140   1.110  0.00  0.00    +0.000 N 
ATOM     34  C   UNL     1       5.424  -0.139   0.504  0.00  0.00    +0.000 A 
ATOM     35  C   UNL     1       4.575   0.853   0.079  0.00  0.00    +0.000 A 
ATOM     36  C   UNL     1       5.098   2.115  -0.537  0.00  0.00    +0.000 C 
ATOM     37  C   UNL     1       6.411   1.800  -1.290  0.00  0.00    +0.000 C 
ATOM     38  N   UNL     1       7.359   0.963  -0.500  0.00  0.00    +0.000 N 
ATOM     39  C   UNL     1       6.865  -0.033   0.310  0.00  0.00    +0.000 A 
ATOM     40  N   UNL     1       7.696  -0.894   0.948  0.00  0.00    +0.000 NA
ATOM     41  C   UNL     1       9.039  -0.805   0.817  0.00  0.00    +0.000 A 
ATOM     42  C   UNL     1       9.862  -1.721   1.480  0.00  0.00    +0.000 A 
ATOM     43  C   UNL     1      11.249  -1.641   1.344  0.00  0.00    +0.000 A 
ATOM     44  C   UNL     1      11.818  -0.644   0.547  0.00  0.00    +0.000 A 
ATOM     45  C   UNL     1      11.002   0.278  -0.120  0.00  0.00    +0.000 A 
ATOM     46  C   UNL     1       9.601   0.205   0.010  0.00  0.00    +0.000 A 
ATOM     47  C   UNL     1       8.731   1.094  -0.652  0.00  0.00    +0.000 A 
ATOM     48  O   UNL     1       9.187   1.961  -1.382  0.00  0.00    +0.000 OA
ATOM     49  C   UNL     1       3.303   0.438   0.424  0.00  0.00    +0.000 A 
ATOM     50  C   UNL     1       2.044   1.020   0.255  0.00  0.00    +0.000 A 
ATOM     51  H   UNL     1       5.154  -2.007   1.533  0.00  0.00    +0.000 HD
ENDBRANCH  28  29
ENDBRANCH   3  28
TORSDOF 11
