REMARK  Name = 
REMARK  10 active torsions:
REMARK  status: ('A' for Active; 'I' for Inactive)
REMARK    1  A    between atoms: C_1  and  C_2
REMARK    2  A    between atoms: C_2  and  C_3
REMARK    3  A    between atoms: C_23  and  O_24
REMARK    4  A    between atoms: C_25  and  O_26
REMARK    5  A    between atoms: C_27  and  C_28
REMARK    6  A    between atoms: C_27  and  C_29
REMARK    7  A    between atoms: C_37  and  C_38
REMARK    8  A    between atoms: C_39  and  C_40
REMARK    9  A    between atoms: C_41  and  C_42
REMARK   10  A    between atoms: C_41  and  C_43
REMARK                            x       y       z     vdW  Elec       q    Type
REMARK                         _______ _______ _______ _____ _____    ______ ____
ROOT
ATOM      1  C   UNL     1      -8.352   1.822  -2.420  0.00  0.00    +0.000 C 
ATOM      2  C   UNL     1      -7.978   1.704  -0.936  0.00  0.00    +0.000 C 
ATOM      3  C   UNL     1      -8.403   2.979  -0.198  0.00  0.00    +0.000 C 
ATOM      4  C   UNL     1      -6.462   1.591  -0.871  0.00  0.00    +0.000 C 
ATOM      5  C   UNL     1      -5.895   0.594  -0.225  0.00  0.00    +0.000 C 
ATOM      6  C   UNL     1      -6.663  -0.398   0.471  0.00  0.00    +0.000 C 
ATOM      7  C   UNL     1      -5.837  -1.256   1.092  0.00  0.00    +0.000 C 
ATOM      8  C   UNL     1      -4.461  -0.855   0.790  0.00  0.00    +0.000 A 
ATOM      9  C   UNL     1      -3.254  -1.447   1.189  0.00  0.00    +0.000 A 
ATOM     10  C   UNL     1      -2.092  -0.824   0.723  0.00  0.00    +0.000 A 
ATOM     11  C   UNL     1      -2.119   0.324  -0.076  0.00  0.00    +0.000 A 
ATOM     12  C   UNL     1      -3.326   0.917  -0.467  0.00  0.00    +0.000 A 
ATOM     13  C   UNL     1      -4.493   0.282  -0.012  0.00  0.00    +0.000 A 
ATOM     14  N   UNL     1      -0.865   0.744  -0.372  0.00  0.00    +0.000 N 
ATOM     15  C   UNL     1      -0.065  -0.166   0.220  0.00  0.00    +0.000 A 
ATOM     16  C   UNL     1      -0.767  -1.118   0.896  0.00  0.00    +0.000 A 
ATOM     17  C   UNL     1       0.112  -2.093   1.616  0.00  0.00    +0.000 C 
ATOM     18  C   UNL     1       1.385  -1.842   0.778  0.00  0.00    +0.000 C 
ATOM     19  C   UNL     1       2.754  -2.423   1.134  0.00  0.00    +0.000 C 
ATOM     20  C   UNL     1       3.744  -2.164  -0.055  0.00  0.00    +0.000 C 
ATOM     21  C   UNL     1       3.865  -0.635  -0.364  0.00  0.00    +0.000 C 
ATOM     22  O   UNL     1       4.294  -0.076   0.877  0.00  0.00    +0.000 OA
ATOM     23  C   UNL     1       5.589   0.468   0.774  0.00  0.00    +0.000 C 
ATOM     24  C   UNL     1       6.731  -0.480   1.072  0.00  0.00    +0.000 C 
ATOM     25  C   UNL     1       7.867   0.137   0.232  0.00  0.00    +0.000 C 
ATOM     26  C   UNL     1       8.606   1.321   0.900  0.00  0.00    +0.000 C 
ATOM     27  C   UNL     1       8.903  -0.946  -0.113  0.00  0.00    +0.000 C 
ATOM     28  O   UNL     1       7.239   0.616  -0.951  0.00  0.00    +0.000 OA
ATOM     29  C   UNL     1       5.849   0.766  -0.659  0.00  0.00    +0.000 C 
ATOM     30  C   UNL     1       4.985  -0.249  -1.407  0.00  0.00    +0.000 C 
ATOM     31  C   UNL     1       4.513   0.503  -2.633  0.00  0.00    +0.000 C 
ATOM     32  O   UNL     1       5.035   0.291  -3.716  0.00  0.00    +0.000 OA
ATOM     33  C   UNL     1       3.401   1.539  -2.518  0.00  0.00    +0.000 C 
ATOM     34  C   UNL     1       2.614   1.418  -1.180  0.00  0.00    +0.000 C 
ATOM     35  C   UNL     1       2.413  -0.082  -0.789  0.00  0.00    +0.000 C 
ATOM     36  C   UNL     1       1.811  -0.822  -2.061  0.00  0.00    +0.000 C 
ATOM     37  C   UNL     1       1.409  -0.306   0.436  0.00  0.00    +0.000 C 
ATOM     38  C   UNL     1       1.689   0.588   1.693  0.00  0.00    +0.000 C 
ATOM     39  C   UNL     1      -8.170  -0.374   0.468  0.00  0.00    +0.000 C 
ATOM     40  C   UNL     1      -8.677  -1.744  -0.010  0.00  0.00    +0.000 C 
ATOM     41  C   UNL     1      -8.678  -0.103   1.891  0.00  0.00    +0.000 C 
ATOM     42  O   UNL     1      -8.741   0.601  -0.414  0.00  0.00    +0.000 OA
ATOM     43  H   UNL     1      -0.591   1.588  -0.920  0.00  0.00    +0.000 HD
ENDROOT
BRANCH  23  44
ATOM     44  O   UNL     1       5.676   1.653   1.529  0.00  0.00    +0.000 OA
ATOM     45  H   UNL     1       5.260   1.468   2.411  0.00  0.00    +0.000 HD
ENDBRANCH  23  44
BRANCH  24  46
ATOM     46  O   UNL     1       7.011  -0.705   2.433  0.00  0.00    +0.000 OA
ATOM     47  H   UNL     1       7.175   0.170   2.866  0.00  0.00    +0.000 HD
ENDBRANCH  24  46
TORSDOF 2
