REMARK  Name = 
REMARK  21 active torsions:
REMARK  status: ('A' for Active; 'I' for Inactive)
REMARK    1  A    between atoms: C_1  and  C_2
REMARK    2  A    between atoms: C_17  and  O_18
REMARK    3  A    between atoms: O_18  and  C_19
REMARK    4  A    between atoms: C_21  and  C_22
REMARK    5  A    between atoms: C_22  and  O_23
REMARK    6  A    between atoms: C_24  and  O_25
REMARK    7  A    between atoms: O_25  and  C_26
REMARK    8  A    between atoms: C_28  and  C_29
REMARK    9  A    between atoms: C_30  and  O_31
REMARK   10  A    between atoms: C_32  and  O_33
REMARK   11  A    between atoms: C_34  and  O_35
REMARK   12  A    between atoms: O_35  and  C_36
REMARK   13  A    between atoms: C_38  and  C_39
REMARK   14  A    between atoms: C_40  and  O_41
REMARK   15  A    between atoms: C_42  and  O_43
REMARK   16  A    between atoms: C_44  and  O_45
REMARK   17  A    between atoms: C_46  and  O_47
REMARK   18  A    between atoms: C_48  and  O_49
REMARK   19  A    between atoms: C_52  and  C_53
REMARK   20  A    between atoms: C_57  and  C_58
REMARK   21  A    between atoms: C_60  and  C_61
REMARK                            x       y       z     vdW  Elec       q    Type
REMARK                         _______ _______ _______ _____ _____    ______ ____
ROOT
ATOM      1  C   UNL     1       2.434  -0.825   0.097  0.00  0.00    +0.000 C 
ATOM      2  O   UNL     1       3.400  -0.106  -0.677  0.00  0.00    +0.000 OA
ATOM      3  C   UNL     1       4.743  -0.536  -0.528  0.00  0.00    +0.000 C 
ATOM      4  C   UNL     1       5.223  -0.596   0.964  0.00  0.00    +0.000 C 
ATOM      5  C   UNL     1       4.067  -0.850   1.953  0.00  0.00    +0.000 C 
ATOM      6  C   UNL     1       2.985  -1.682   1.273  0.00  0.00    +0.000 C 
ENDROOT
BRANCH   5   7
ATOM      7  O   UNL     1       4.535  -1.427   3.146  0.00  0.00    +0.000 OA
ATOM      8  H   UNL     1       4.829  -2.352   2.936  0.00  0.00    +0.000 HD
ENDBRANCH   5   7
BRANCH   6   9
ATOM      9  O   UNL     1       1.951  -2.035   2.160  0.00  0.00    +0.000 OA
ATOM     10  H   UNL     1       1.605  -1.203   2.577  0.00  0.00    +0.000 HD
ENDBRANCH   6   9
BRANCH   1  11
ATOM     11  O   UNL     1       1.627  -1.631  -0.757  0.00  0.00    +0.000 OA
BRANCH  11  28
ATOM     12  C   UNL     1     -14.604  -0.142   0.554  0.00  0.00    +0.000 C 
ATOM     13  C   UNL     1     -13.326   0.675   0.786  0.00  0.00    +0.000 C 
ATOM     14  C   UNL     1     -12.696   1.145  -0.553  0.00  0.00    +0.000 C 
ATOM     15  C   UNL     1     -11.611   0.165  -0.985  0.00  0.00    +0.000 C 
ATOM     16  C   UNL     1     -10.449   0.148   0.075  0.00  0.00    +0.000 C 
ATOM     17  N   UNL     1     -10.958   0.354   1.471  0.00  0.00    +0.000 NA
ATOM     18  C   UNL     1     -12.319  -0.168   1.625  0.00  0.00    +0.000 C 
ATOM     19  O   UNL     1      -9.811  -1.124   0.007  0.00  0.00    +0.000 OA
ATOM     20  C   UNL     1      -8.558  -0.920   0.625  0.00  0.00    +0.000 C 
ATOM     21  C   UNL     1      -7.449  -1.917   0.203  0.00  0.00    +0.000 C 
ATOM     22  C   UNL     1      -6.250  -0.984   0.003  0.00  0.00    +0.000 C 
ATOM     23  C   UNL     1      -4.950  -1.518  -0.654  0.00  0.00    +0.000 C 
ATOM     24  C   UNL     1      -4.328  -2.601   0.256  0.00  0.00    +0.000 C 
ATOM     25  C   UNL     1      -2.871  -2.877  -0.014  0.00  0.00    +0.000 C 
ATOM     26  C   UNL     1      -2.087  -2.110  -0.803  0.00  0.00    +0.000 C 
ATOM     27  C   UNL     1      -0.628  -2.497  -1.004  0.00  0.00    +0.000 C 
ATOM     28  C   UNL     1       0.253  -1.303  -0.615  0.00  0.00    +0.000 C 
ATOM     29  C   UNL     1      -0.100  -0.109  -1.522  0.00  0.00    +0.000 C 
ATOM     30  C   UNL     1      -1.549   0.310  -1.264  0.00  0.00    +0.000 C 
ATOM     31  C   UNL     1      -2.596  -0.830  -1.485  0.00  0.00    +0.000 C 
ATOM     32  C   UNL     1      -2.743  -1.136  -2.998  0.00  0.00    +0.000 C 
ATOM     33  C   UNL     1      -3.945  -0.345  -0.817  0.00  0.00    +0.000 C 
ATOM     34  C   UNL     1      -4.579   0.895  -1.526  0.00  0.00    +0.000 C 
ATOM     35  C   UNL     1      -5.864   1.353  -0.814  0.00  0.00    +0.000 C 
ATOM     36  C   UNL     1      -6.882   0.199  -0.750  0.00  0.00    +0.000 C 
ATOM     37  C   UNL     1      -7.346  -0.181  -2.205  0.00  0.00    +0.000 C 
ATOM     38  C   UNL     1      -8.072   0.472   0.216  0.00  0.00    +0.000 C 
ATOM     39  C   UNL     1      -9.320   1.167  -0.300  0.00  0.00    +0.000 C 
ATOM     40  C   UNL     1      -9.398   2.639   0.138  0.00  0.00    +0.000 C 
ATOM     41  H   UNL     1     -11.005   1.364   1.729  0.00  0.00    +0.000 HD
ENDBRANCH  11  28
ENDBRANCH   1  11
BRANCH   3  42
ATOM     42  C   UNL     1       4.983  -1.823  -1.351  0.00  0.00    +0.000 C 
BRANCH  42  43
ATOM     43  O   UNL     1       6.339  -2.180  -1.336  0.00  0.00    +0.000 OA
ATOM     44  H   UNL     1       6.806  -1.557  -1.952  0.00  0.00    +0.000 HD
ENDBRANCH  42  43
ENDBRANCH   3  42
BRANCH   4  45
ATOM     45  O   UNL     1       5.820   0.640   1.333  0.00  0.00    +0.000 OA
BRANCH  45  46
ATOM     46  C   UNL     1       7.243   0.602   1.405  0.00  0.00    +0.000 C 
ATOM     47  O   UNL     1       7.678   0.884   2.731  0.00  0.00    +0.000 OA
ATOM     48  C   UNL     1       7.250   2.173   3.165  0.00  0.00    +0.000 C 
ATOM     49  C   UNL     1       7.690   2.365   4.617  0.00  0.00    +0.000 C 
ATOM     50  C   UNL     1       7.849   3.286   2.266  0.00  0.00    +0.000 C 
ATOM     51  C   UNL     1       7.448   3.026   0.801  0.00  0.00    +0.000 C 
ATOM     52  C   UNL     1       7.860   1.600   0.402  0.00  0.00    +0.000 C 
BRANCH  50  53
ATOM     53  O   UNL     1       7.434   4.565   2.678  0.00  0.00    +0.000 OA
ATOM     54  H   UNL     1       6.443   4.593   2.620  0.00  0.00    +0.000 HD
ENDBRANCH  50  53
BRANCH  51  55
ATOM     55  O   UNL     1       8.004   3.982  -0.069  0.00  0.00    +0.000 OA
ATOM     56  H   UNL     1       8.989   3.974   0.057  0.00  0.00    +0.000 HD
ENDBRANCH  51  55
BRANCH  52  57
ATOM     57  O   UNL     1       9.277   1.500   0.454  0.00  0.00    +0.000 OA
BRANCH  57  58
ATOM     58  C   UNL     1       9.821   0.653  -0.547  0.00  0.00    +0.000 C 
ATOM     59  O   UNL     1      10.215  -0.599   0.030  0.00  0.00    +0.000 OA
ATOM     60  C   UNL     1      11.601  -0.655   0.305  0.00  0.00    +0.000 C 
ATOM     61  C   UNL     1      11.922  -1.921   1.099  0.00  0.00    +0.000 C 
ATOM     62  C   UNL     1      12.442  -0.596  -1.010  0.00  0.00    +0.000 C 
ATOM     63  C   UNL     1      11.839   0.416  -2.036  0.00  0.00    +0.000 C 
ATOM     64  C   UNL     1      10.967   1.426  -1.276  0.00  0.00    +0.000 C 
BRANCH  62  65
ATOM     65  O   UNL     1      13.774  -0.271  -0.696  0.00  0.00    +0.000 OA
ATOM     66  H   UNL     1      13.784   0.659  -0.349  0.00  0.00    +0.000 HD
ENDBRANCH  62  65
BRANCH  63  67
ATOM     67  O   UNL     1      11.076  -0.237  -3.028  0.00  0.00    +0.000 OA
ATOM     68  H   UNL     1      10.539  -0.957  -2.606  0.00  0.00    +0.000 HD
ENDBRANCH  63  67
BRANCH  64  69
ATOM     69  O   UNL     1      10.464   2.441  -2.107  0.00  0.00    +0.000 OA
ATOM     70  H   UNL     1       9.881   2.016  -2.788  0.00  0.00    +0.000 HD
ENDBRANCH  64  69
ENDBRANCH  57  58
ENDBRANCH  52  57
ENDBRANCH  45  46
ENDBRANCH   4  45
TORSDOF 15
