REMARK  Name = 
REMARK  10 active torsions:
REMARK  status: ('A' for Active; 'I' for Inactive)
REMARK    1  A    between atoms: C_1  and  C_2
REMARK    2  A    between atoms: C_7  and  O_8
REMARK    3  A    between atoms: C_15  and  C_16
REMARK    4  A    between atoms: C_15  and  C_17
REMARK    5  A    between atoms: C_24  and  C_25
REMARK    6  A    between atoms: C_25  and  C_26
REMARK    7  A    between atoms: C_26  and  C_27
REMARK    8  A    between atoms: C_32  and  C_33
REMARK    9  A    between atoms: C_38  and  C_39
REMARK   10  A    between atoms: C_39  and  N_40
REMARK                            x       y       z     vdW  Elec       q    Type
REMARK                         _______ _______ _______ _____ _____    ______ ____
ROOT
ATOM      1  C   UNL     1     -12.194   1.243  -1.386  0.00  0.00    +0.000 C 
ATOM      2  C   UNL     1     -10.990   0.821  -0.603  0.00  0.00    +0.000 A 
ATOM      3  C   UNL     1     -11.100  -0.083   0.452  0.00  0.00    +0.000 A 
ATOM      4  C   UNL     1      -9.956  -0.462   1.154  0.00  0.00    +0.000 A 
ATOM      5  O   UNL     1     -10.089  -1.259   2.062  0.00  0.00    +0.000 OA
ATOM      6  C   UNL     1      -8.688   0.072   0.788  0.00  0.00    +0.000 A 
ATOM      7  C   UNL     1      -7.441  -0.249   1.422  0.00  0.00    +0.000 A 
ATOM      8  C   UNL     1      -6.220   0.306   0.929  0.00  0.00    +0.000 A 
ATOM      9  C   UNL     1      -6.280   1.248  -0.120  0.00  0.00    +0.000 A 
ATOM     10  C   UNL     1      -7.494   1.576  -0.713  0.00  0.00    +0.000 A 
ATOM     11  C   UNL     1      -8.680   0.988  -0.294  0.00  0.00    +0.000 A 
ATOM     12  O   UNL     1      -9.804   1.317  -0.925  0.00  0.00    +0.000 OA
ATOM     13  O   UNL     1      -5.175   1.883  -0.565  0.00  0.00    +0.000 OA
ATOM     14  C   UNL     1      -3.898   1.388  -0.445  0.00  0.00    +0.000 C 
ATOM     15  C   UNL     1      -3.699   0.324  -1.548  0.00  0.00    +0.000 C 
ATOM     16  C   UNL     1      -2.913   2.543  -0.706  0.00  0.00    +0.000 C 
ATOM     17  C   UNL     1      -3.661   0.832   0.994  0.00  0.00    +0.000 C 
ATOM     18  O   UNL     1      -2.513   0.086   0.916  0.00  0.00    +0.000 OA
ATOM     19  C   UNL     1      -1.277   0.131   1.448  0.00  0.00    +0.000 C 
ATOM     20  O   UNL     1      -0.810   1.138   1.956  0.00  0.00    +0.000 OA
ATOM     21  C   UNL     1      -0.714  -1.255   1.646  0.00  0.00    +0.000 C 
ATOM     22  O   UNL     1       0.558  -1.333   2.244  0.00  0.00    +0.000 OA
ATOM     23  C   UNL     1       0.453  -1.732   0.880  0.00  0.00    +0.000 C 
ATOM     24  C   UNL     1      -1.760  -2.326   2.027  0.00  0.00    +0.000 C 
ATOM     25  C   UNL     1      -2.544  -2.603   0.736  0.00  0.00    +0.000 C 
ATOM     26  C   UNL     1      -3.841  -2.287   0.563  0.00  0.00    +0.000 C 
ATOM     27  C   UNL     1      -4.635  -1.659   1.670  0.00  0.00    +0.000 C 
ATOM     28  C   UNL     1      -4.084  -2.169   3.038  0.00  0.00    +0.000 C 
ATOM     29  C   UNL     1      -2.629  -1.784   3.211  0.00  0.00    +0.000 C 
ATOM     30  C   UNL     1      -4.861  -0.068   1.561  0.00  0.00    +0.000 C 
ENDROOT
BRANCH   7  31
ATOM     31  O   UNL     1      -7.364  -1.061   2.504  0.00  0.00    +0.000 OA
ATOM     32  H   UNL     1      -8.081  -1.491   2.976  0.00  0.00    +0.000 HD
ENDBRANCH   7  31
BRANCH  23  33
ATOM     33  C   UNL     1       1.095  -0.770  -0.125  0.00  0.00    +0.000 C 
BRANCH  33  34
ATOM     34  C   UNL     1       2.327  -1.453  -0.720  0.00  0.00    +0.000 C 
BRANCH  34  35
ATOM     35  C   UNL     1       3.053  -0.567  -1.697  0.00  0.00    +0.000 A 
ATOM     36  C   UNL     1       2.597  -0.388  -3.009  0.00  0.00    +0.000 A 
ATOM     37  C   UNL     1       3.335   0.416  -3.887  0.00  0.00    +0.000 A 
ATOM     38  N   UNL     1       2.925   0.580  -5.232  0.00  0.00    +0.000 N 
ATOM     39  N   UNL     1       4.466   1.034  -3.448  0.00  0.00    +0.000 NA
ATOM     40  C   UNL     1       4.933   0.899  -2.174  0.00  0.00    +0.000 A 
ATOM     41  C   UNL     1       4.223   0.072  -1.286  0.00  0.00    +0.000 A 
ATOM     42  H   UNL     1       2.085   0.103  -5.592  0.00  0.00    +0.000 HD
ATOM     43  H   UNL     1       3.483   1.159  -5.877  0.00  0.00    +0.000 HD
BRANCH  40  44
ATOM     44  C   UNL     1       6.177   1.622  -1.763  0.00  0.00    +0.000 A 
ATOM     45  C   UNL     1       6.875   2.410  -2.696  0.00  0.00    +0.000 A 
ATOM     46  C   UNL     1       8.044   3.083  -2.314  0.00  0.00    +0.000 A 
ATOM     47  N   UNL     1       8.753   3.873  -3.248  0.00  0.00    +0.000 N 
ATOM     48  N   UNL     1       8.504   2.976  -1.040  0.00  0.00    +0.000 NA
ATOM     49  C   UNL     1       7.856   2.230  -0.107  0.00  0.00    +0.000 A 
ATOM     50  C   UNL     1       6.690   1.546  -0.450  0.00  0.00    +0.000 A 
ATOM     51  H   UNL     1       8.425   3.967  -4.220  0.00  0.00    +0.000 HD
ATOM     52  H   UNL     1       9.614   4.363  -2.963  0.00  0.00    +0.000 HD
BRANCH  49  53
ATOM     53  C   UNL     1       8.411   2.124   1.286  0.00  0.00    +0.000 C 
BRANCH  53  54
ATOM     54  N   UNL     1       9.316   0.992   1.373  0.00  0.00    +0.000 N 
ATOM     55  C   UNL     1      10.568   1.075   1.682  0.00  0.00    +0.000 C 
ATOM     56  C   UNL     1      11.083  -0.276   1.646  0.00  0.00    +0.000 C 
ATOM     57  N   UNL     1      12.199  -0.866   1.840  0.00  0.00    +0.000 NA
ATOM     58  C   UNL     1      11.919  -2.250   1.610  0.00  0.00    +0.000 C 
ATOM     59  C   UNL     1      10.575  -2.450   1.269  0.00  0.00    +0.000 C 
ATOM     60  C   UNL     1      10.026  -1.116   1.298  0.00  0.00    +0.000 C 
ATOM     61  C   UNL     1       8.944  -0.374   1.131  0.00  0.00    +0.000 C 
ENDBRANCH  53  54
ENDBRANCH  49  53
ENDBRANCH  40  44
ENDBRANCH  34  35
ENDBRANCH  33  34
ENDBRANCH  23  33
TORSDOF 7
