REMARK  Name = 
REMARK  21 active torsions:
REMARK  status: ('A' for Active; 'I' for Inactive)
REMARK    1  A    between atoms: C_1  and  O_2
REMARK    2  A    between atoms: O_2  and  C_3
REMARK    3  A    between atoms: C_4  and  O_5
REMARK    4  A    between atoms: C_6  and  O_7
REMARK    5  A    between atoms: O_7  and  C_8
REMARK    6  A    between atoms: C_9  and  O_10
REMARK    7  A    between atoms: C_12  and  O_13
REMARK    8  A    between atoms: O_13  and  C_14
REMARK    9  A    between atoms: C_17  and  C_18
REMARK   10  A    between atoms: C_26  and  C_27
REMARK   11  A    between atoms: C_28  and  C_29
REMARK   12  A    between atoms: C_37  and  O_38
REMARK   13  A    between atoms: C_41  and  C_42
REMARK   14  A    between atoms: C_44  and  C_45
REMARK   15  A    between atoms: C_46  and  O_47
REMARK   16  A    between atoms: O_47  and  C_48
REMARK   17  A    between atoms: C_50  and  C_51
REMARK   18  A    between atoms: C_51  and  O_52
REMARK   19  A    between atoms: C_53  and  O_54
REMARK   20  A    between atoms: C_55  and  O_56
REMARK   21  A    between atoms: C_57  and  O_58
REMARK                            x       y       z     vdW  Elec       q    Type
REMARK                         _______ _______ _______ _____ _____    ______ ____
ROOT
ATOM      1  C   UNL     1      -2.553   0.259   0.796  0.00  0.00    +0.000 C 
ATOM      2  C   UNL     1      -1.591  -0.913   0.540  0.00  0.00    +0.000 C 
ATOM      3  C   UNL     1      -0.855  -0.629  -0.768  0.00  0.00    +0.000 C 
ATOM      4  C   UNL     1      -0.193   0.773  -0.760  0.00  0.00    +0.000 C 
ATOM      5  O   UNL     1      -1.044   1.829  -0.321  0.00  0.00    +0.000 OA
ATOM      6  C   UNL     1      -1.738   1.563   0.895  0.00  0.00    +0.000 C 
ATOM      7  C   UNL     1      -0.827   1.659   2.136  0.00  0.00    +0.000 C 
ENDROOT
BRANCH   2   8
ATOM      8  O   UNL     1      -2.276  -2.142   0.489  0.00  0.00    +0.000 OA
ATOM      9  H   UNL     1      -2.954  -2.091  -0.234  0.00  0.00    +0.000 HD
ENDBRANCH   2   8
BRANCH   1  10
ATOM     10  O   UNL     1      -3.436   0.393  -0.324  0.00  0.00    +0.000 OA
BRANCH  10  13
ATOM     11  C   UNL     1      -6.940   1.734  -0.326  0.00  0.00    +0.000 C 
ATOM     12  C   UNL     1      -5.498   1.535  -0.849  0.00  0.00    +0.000 C 
ATOM     13  C   UNL     1      -4.792   0.516   0.048  0.00  0.00    +0.000 C 
ATOM     14  O   UNL     1      -5.428  -0.723  -0.183  0.00  0.00    +0.000 OA
ATOM     15  C   UNL     1      -6.656  -0.762   0.504  0.00  0.00    +0.000 C 
ATOM     16  C   UNL     1      -7.249  -2.157   0.293  0.00  0.00    +0.000 C 
ATOM     17  C   UNL     1      -7.638   0.393   0.071  0.00  0.00    +0.000 C 
BRANCH  11  19
ATOM     18  C   UNL     1      -7.864   3.760  -1.074  0.00  0.00    +0.000 C 
ATOM     19  O   UNL     1      -7.714   2.386  -1.324  0.00  0.00    +0.000 OA
ENDBRANCH  11  19
BRANCH  12  20
ATOM     20  O   UNL     1      -4.804   2.760  -0.881  0.00  0.00    +0.000 OA
ATOM     21  H   UNL     1      -4.715   3.085   0.055  0.00  0.00    +0.000 HD
ENDBRANCH  12  20
BRANCH  17  22
ATOM     22  O   UNL     1      -8.591  -0.002  -0.933  0.00  0.00    +0.000 OA
BRANCH  22  23
ATOM     23  C   UNL     1      -9.909  -0.127  -0.380  0.00  0.00    +0.000 C 
ATOM     24  O   UNL     1     -10.195  -1.500  -0.178  0.00  0.00    +0.000 OA
ATOM     25  C   UNL     1     -11.341  -1.658   0.640  0.00  0.00    +0.000 C 
ATOM     26  C   UNL     1     -12.592  -1.116  -0.111  0.00  0.00    +0.000 C 
ATOM     27  C   UNL     1     -12.351   0.354  -0.537  0.00  0.00    +0.000 C 
ATOM     28  C   UNL     1     -10.995   0.485  -1.287  0.00  0.00    +0.000 C 
BRANCH  26  29
ATOM     29  O   UNL     1     -13.755  -1.219   0.670  0.00  0.00    +0.000 OA
ATOM     30  H   UNL     1     -13.593  -0.724   1.516  0.00  0.00    +0.000 HD
ENDBRANCH  26  29
BRANCH  27  31
ATOM     31  O   UNL     1     -13.419   0.850  -1.302  0.00  0.00    +0.000 OA
ATOM     32  H   UNL     1     -13.475   0.295  -2.128  0.00  0.00    +0.000 HD
ENDBRANCH  27  31
BRANCH  28  33
ATOM     33  O   UNL     1     -10.718   1.831  -1.586  0.00  0.00    +0.000 OA
ATOM     34  H   UNL     1     -10.682   2.332  -0.728  0.00  0.00    +0.000 HD
ENDBRANCH  28  33
BRANCH  25  35
ATOM     35  C   UNL     1     -11.470  -3.149   0.982  0.00  0.00    +0.000 C 
BRANCH  35  36
ATOM     36  O   UNL     1     -12.532  -3.384   1.865  0.00  0.00    +0.000 OA
ATOM     37  H   UNL     1     -12.205  -3.140   2.771  0.00  0.00    +0.000 HD
ENDBRANCH  35  36
ENDBRANCH  25  35
ENDBRANCH  22  23
ENDBRANCH  17  22
ENDBRANCH  10  13
ENDBRANCH   1  10
BRANCH   4  38
ATOM     38  O   UNL     1       1.028   0.797  -0.024  0.00  0.00    +0.000 OA
BRANCH  38  39
ATOM     39  C   UNL     1       2.174   0.766  -0.871  0.00  0.00    +0.000 C 
ATOM     40  C   UNL     1       3.205   1.857  -0.469  0.00  0.00    +0.000 C 
ATOM     41  C   UNL     1       4.242   1.473   0.599  0.00  0.00    +0.000 C 
ATOM     42  C   UNL     1       4.800  -0.009   0.482  0.00  0.00    +0.000 C 
ATOM     43  C   UNL     1       4.205  -0.749   1.723  0.00  0.00    +0.000 C 
ATOM     44  C   UNL     1       4.275  -0.705  -0.833  0.00  0.00    +0.000 C 
ATOM     45  C   UNL     1       4.899  -0.175  -2.163  0.00  0.00    +0.000 C 
ATOM     46  C   UNL     1       6.304   0.418  -1.984  0.00  0.00    +0.000 C 
ATOM     47  C   UNL     1       7.057  -0.381  -0.919  0.00  0.00    +0.000 C 
ATOM     48  C   UNL     1       6.417  -0.085   0.484  0.00  0.00    +0.000 C 
ATOM     49  C   UNL     1       7.127  -0.944   1.591  0.00  0.00    +0.000 C 
ATOM     50  C   UNL     1       8.300  -1.785   1.056  0.00  0.00    +0.000 C 
ATOM     51  C   UNL     1       9.350  -1.074   0.129  0.00  0.00    +0.000 C 
ATOM     52  C   UNL     1      10.171  -2.248  -0.479  0.00  0.00    +0.000 C 
ATOM     53  C   UNL     1      10.248  -0.095   0.962  0.00  0.00    +0.000 C 
ATOM     54  C   UNL     1       9.537   1.253   0.849  0.00  0.00    +0.000 C 
ATOM     55  C   UNL     1       9.062   1.291  -0.604  0.00  0.00    +0.000 C 
ATOM     56  C   UNL     1       8.618  -0.167  -0.954  0.00  0.00    +0.000 C 
ATOM     57  C   UNL     1       2.741  -0.675  -0.918  0.00  0.00    +0.000 C 
BRANCH  53  58
ATOM     58  C   UNL     1      11.723  -0.002   0.531  0.00  0.00    +0.000 C 
ATOM     59  C   UNL     1      12.710  -0.433   1.311  0.00  0.00    +0.000 C 
ATOM     60  C   UNL     1      13.933  -0.207   0.589  0.00  0.00    +0.000 C 
ATOM     61  O   UNL     1      15.050  -0.498   0.985  0.00  0.00    +0.000 OA
ATOM     62  O   UNL     1      13.692   0.364  -0.599  0.00  0.00    +0.000 OA
ATOM     63  C   UNL     1      12.332   0.549  -0.750  0.00  0.00    +0.000 C 
ENDBRANCH  53  58
BRANCH  56  64
ATOM     64  O   UNL     1       9.008  -0.496  -2.273  0.00  0.00    +0.000 OA
ATOM     65  H   UNL     1       9.953  -0.247  -2.418  0.00  0.00    +0.000 HD
ENDBRANCH  56  64
ENDBRANCH  38  39
ENDBRANCH   4  38
TORSDOF 16
