REMARK  Name = 
REMARK  20 active torsions:
REMARK  status: ('A' for Active; 'I' for Inactive)
REMARK    1  A    between atoms: C_1  and  C_2
REMARK    2  A    between atoms: C_2  and  C_3
REMARK    3  A    between atoms: C_4  and  C_5
REMARK    4  A    between atoms: C_17  and  C_18
REMARK    5  A    between atoms: C_21  and  O_22
REMARK    6  A    between atoms: O_22  and  C_23
REMARK    7  A    between atoms: C_26  and  O_27
REMARK    8  A    between atoms: C_28  and  O_29
REMARK    9  A    between atoms: O_29  and  C_30
REMARK   10  A    between atoms: C_32  and  C_33
REMARK   11  A    between atoms: C_33  and  O_34
REMARK   12  A    between atoms: C_35  and  O_36
REMARK   13  A    between atoms: C_37  and  O_38
REMARK   14  A    between atoms: C_39  and  O_40
REMARK   15  A    between atoms: C_41  and  O_42
REMARK   16  A    between atoms: C_43  and  C_44
REMARK   17  A    between atoms: C_43  and  C_45
REMARK   18  A    between atoms: C_49  and  C_50
REMARK   19  A    between atoms: C_52  and  C_53
REMARK   20  A    between atoms: C_52  and  O_54
REMARK                            x       y       z     vdW  Elec       q    Type
REMARK                         _______ _______ _______ _____ _____    ______ ____
ROOT
ATOM      1  C   UNL     1      -8.887   0.262   0.514  0.00  0.00    +0.000 C 
ATOM      2  C   UNL     1      -8.800   0.352   2.038  0.00  0.00    +0.000 C 
ATOM      3  O   UNL     1      -7.576  -0.149   2.537  0.00  0.00    +0.000 OA
ATOM      4  C   UNL     1      -6.415   0.221   1.805  0.00  0.00    +0.000 C 
ATOM      5  C   UNL     1      -5.729  -0.983   1.155  0.00  0.00    +0.000 C 
ATOM      6  C   UNL     1      -4.551  -0.138   0.728  0.00  0.00    +0.000 C 
ATOM      7  C   UNL     1      -4.222   0.462   2.125  0.00  0.00    +0.000 C 
ATOM      8  O   UNL     1      -5.466   0.745   2.713  0.00  0.00    +0.000 OA
ATOM      9  C   UNL     1      -5.259   0.925  -0.148  0.00  0.00    +0.000 C 
ATOM     10  C   UNL     1      -4.328   2.078  -0.536  0.00  0.00    +0.000 C 
ATOM     11  C   UNL     1      -3.067   1.531  -1.244  0.00  0.00    +0.000 C 
ATOM     12  C   UNL     1      -2.323   0.439  -0.391  0.00  0.00    +0.000 C 
ATOM     13  C   UNL     1      -0.878   0.020  -0.927  0.00  0.00    +0.000 C 
ATOM     14  C   UNL     1      -0.970  -0.500  -2.398  0.00  0.00    +0.000 C 
ATOM     15  C   UNL     1       0.139   1.234  -1.012  0.00  0.00    +0.000 C 
ATOM     16  C   UNL     1       0.904   1.451   0.287  0.00  0.00    +0.000 C 
ATOM     17  C   UNL     1       1.835   0.235   0.597  0.00  0.00    +0.000 C 
ATOM     18  C   UNL     1       1.220  -1.185   0.224  0.00  0.00    +0.000 C 
ATOM     19  C   UNL     1       1.806  -1.758  -1.091  0.00  0.00    +0.000 C 
ATOM     20  C   UNL     1       1.642  -2.173   1.344  0.00  0.00    +0.000 C 
ATOM     21  C   UNL     1      -0.337  -1.017   0.164  0.00  0.00    +0.000 C 
ATOM     22  C   UNL     1      -1.227  -2.281   0.229  0.00  0.00    +0.000 C 
ATOM     23  C   UNL     1      -2.604  -1.863   0.795  0.00  0.00    +0.000 C 
ATOM     24  C   UNL     1      -3.324  -0.779  -0.061  0.00  0.00    +0.000 C 
ATOM     25  C   UNL     1      -3.877  -1.545  -1.315  0.00  0.00    +0.000 C 
ATOM     26  C   UNL     1      -6.540   1.275   0.655  0.00  0.00    +0.000 C 
ATOM     27  C   UNL     1      -7.922   1.300  -0.122  0.00  0.00    +0.000 C 
ATOM     28  C   UNL     1      -7.857   1.022  -1.647  0.00  0.00    +0.000 C 
ENDROOT
BRANCH   1  32
ATOM     29  C   UNL     1     -12.500  -0.040  -0.945  0.00  0.00    +0.000 C 
ATOM     30  C   UNL     1     -11.088  -0.419  -0.582  0.00  0.00    +0.000 C 
ATOM     31  C   UNL     1     -10.570  -1.789  -0.951  0.00  0.00    +0.000 C 
ATOM     32  C   UNL     1     -10.327   0.488   0.071  0.00  0.00    +0.000 C 
ENDBRANCH   1  32
BRANCH  27  33
ATOM     33  O   UNL     1      -8.480   2.585   0.060  0.00  0.00    +0.000 OA
ATOM     34  H   UNL     1      -7.891   3.241  -0.399  0.00  0.00    +0.000 HD
ENDBRANCH  27  33
BRANCH  17  35
ATOM     35  O   UNL     1       3.074   0.392  -0.076  0.00  0.00    +0.000 OA
BRANCH  35  36
ATOM     36  C   UNL     1       4.162   0.676   0.787  0.00  0.00    +0.000 C 
ATOM     37  O   UNL     1       4.317   2.095   0.841  0.00  0.00    +0.000 OA
ATOM     38  C   UNL     1       5.605   2.561   1.249  0.00  0.00    +0.000 C 
ATOM     39  C   UNL     1       6.490   1.482   1.896  0.00  0.00    +0.000 C 
ATOM     40  C   UNL     1       6.720   0.326   0.909  0.00  0.00    +0.000 C 
ATOM     41  C   UNL     1       5.400  -0.021   0.180  0.00  0.00    +0.000 C 
BRANCH  39  42
ATOM     42  O   UNL     1       7.703   1.996   2.386  0.00  0.00    +0.000 OA
ATOM     43  H   UNL     1       8.125   2.524   1.660  0.00  0.00    +0.000 HD
ENDBRANCH  39  42
BRANCH  41  44
ATOM     44  O   UNL     1       5.234  -1.413   0.081  0.00  0.00    +0.000 OA
ATOM     45  H   UNL     1       5.102  -1.757   1.003  0.00  0.00    +0.000 HD
ENDBRANCH  41  44
BRANCH  40  46
ATOM     46  O   UNL     1       7.651   0.714  -0.092  0.00  0.00    +0.000 OA
BRANCH  46  47
ATOM     47  C   UNL     1       8.861  -0.017  -0.078  0.00  0.00    +0.000 C 
ATOM     48  O   UNL     1       9.870   0.786   0.496  0.00  0.00    +0.000 OA
ATOM     49  C   UNL     1      11.085   0.063   0.716  0.00  0.00    +0.000 C 
ATOM     50  C   UNL     1      11.370  -1.055  -0.356  0.00  0.00    +0.000 C 
ATOM     51  C   UNL     1      10.763  -0.629  -1.707  0.00  0.00    +0.000 C 
ATOM     52  C   UNL     1       9.227  -0.377  -1.543  0.00  0.00    +0.000 C 
BRANCH  50  53
ATOM     53  O   UNL     1      10.777  -2.267   0.036  0.00  0.00    +0.000 OA
ATOM     54  H   UNL     1      11.311  -2.617   0.796  0.00  0.00    +0.000 HD
ENDBRANCH  50  53
BRANCH  51  55
ATOM     55  O   UNL     1      11.436   0.512  -2.191  0.00  0.00    +0.000 OA
ATOM     56  H   UNL     1      10.964   1.331  -1.891  0.00  0.00    +0.000 HD
ENDBRANCH  51  55
BRANCH  52  57
ATOM     57  O   UNL     1       8.458  -1.476  -1.968  0.00  0.00    +0.000 OA
ATOM     58  H   UNL     1       8.754  -2.274  -1.459  0.00  0.00    +0.000 HD
ENDBRANCH  52  57
BRANCH  49  59
ATOM     59  C   UNL     1      12.233   1.088   0.773  0.00  0.00    +0.000 C 
BRANCH  59  60
ATOM     60  O   UNL     1      12.008   2.016   1.802  0.00  0.00    +0.000 OA
ATOM     61  H   UNL     1      11.390   2.703   1.439  0.00  0.00    +0.000 HD
ENDBRANCH  59  60
ENDBRANCH  49  59
ENDBRANCH  46  47
ENDBRANCH  40  46
ENDBRANCH  35  36
ENDBRANCH  17  35
TORSDOF 13
