REMARK  Name = 
REMARK  21 active torsions:
REMARK  status: ('A' for Active; 'I' for Inactive)
REMARK    1  A    between atoms: C_1  and  C_2
REMARK    2  A    between atoms: C_3  and  C_4
REMARK    3  A    between atoms: C_8  and  C_9
REMARK    4  A    between atoms: C_9  and  C_10
REMARK    5  A    between atoms: C_9  and  O_11
REMARK    6  A    between atoms: C_9  and  C_12
REMARK    7  A    between atoms: C_21  and  O_22
REMARK    8  A    between atoms: O_22  and  C_23
REMARK    9  A    between atoms: C_25  and  C_26
REMARK   10  A    between atoms: C_26  and  O_27
REMARK   11  A    between atoms: O_27  and  C_28
REMARK   12  A    between atoms: C_30  and  C_31
REMARK   13  A    between atoms: C_31  and  O_32
REMARK   14  A    between atoms: C_33  and  O_34
REMARK   15  A    between atoms: C_35  and  O_36
REMARK   16  A    between atoms: C_37  and  O_38
REMARK   17  A    between atoms: C_39  and  O_40
REMARK   18  A    between atoms: C_41  and  O_42
REMARK   19  A    between atoms: C_43  and  O_44
REMARK   20  A    between atoms: C_48  and  C_49
REMARK   21  A    between atoms: C_53  and  C_54
REMARK                            x       y       z     vdW  Elec       q    Type
REMARK                         _______ _______ _______ _____ _____    ______ ____
ROOT
ATOM      1  C   UNL     1       6.565  -0.864  -1.236  0.00  0.00    +0.000 C 
ATOM      2  C   UNL     1       6.499  -2.392  -0.968  0.00  0.00    +0.000 C 
ATOM      3  C   UNL     1       5.150  -2.521  -0.331  0.00  0.00    +0.000 C 
ATOM      4  C   UNL     1       4.351  -1.518  -0.708  0.00  0.00    +0.000 C 
ATOM      5  C   UNL     1       2.981  -1.247  -0.142  0.00  0.00    +0.000 C 
ATOM      6  C   UNL     1       1.896  -1.728  -1.117  0.00  0.00    +0.000 C 
ATOM      7  C   UNL     1       0.581  -1.515  -0.427  0.00  0.00    +0.000 C 
ATOM      8  C   UNL     1       0.299  -0.320   0.130  0.00  0.00    +0.000 C 
ATOM      9  C   UNL     1      -0.952  -0.198   0.972  0.00  0.00    +0.000 C 
ATOM     10  C   UNL     1      -1.474   1.225   0.894  0.00  0.00    +0.000 C 
ATOM     11  C   UNL     1      -0.451   2.186   1.503  0.00  0.00    +0.000 C 
ATOM     12  C   UNL     1       0.946   1.982   0.959  0.00  0.00    +0.000 C 
ATOM     13  O   UNL     1       1.805   2.768   1.326  0.00  0.00    +0.000 OA
ATOM     14  C   UNL     1       1.307   0.841  -0.010  0.00  0.00    +0.000 C 
ATOM     15  C   UNL     1       1.160   1.457  -1.429  0.00  0.00    +0.000 C 
ATOM     16  C   UNL     1       2.771   0.269   0.297  0.00  0.00    +0.000 C 
ATOM     17  C   UNL     1       3.946   1.215  -0.146  0.00  0.00    +0.000 C 
ATOM     18  C   UNL     1       4.495   0.869  -1.542  0.00  0.00    +0.000 C 
ATOM     19  C   UNL     1       5.061  -0.584  -1.635  0.00  0.00    +0.000 C 
ATOM     20  C   UNL     1       4.849  -1.042  -3.113  0.00  0.00    +0.000 C 
ENDROOT
BRANCH   1  21
ATOM     21  C   UNL     1       7.241  -0.109   0.004  0.00  0.00    +0.000 C 
ATOM     22  C   UNL     1       6.693  -0.589   1.388  0.00  0.00    +0.000 C 
BRANCH  21  30
ATOM     23  C   UNL     1      11.735  -0.182  -2.425  0.00  0.00    +0.000 C 
ATOM     24  C   UNL     1      11.029  -0.011  -1.097  0.00  0.00    +0.000 C 
ATOM     25  C   UNL     1      11.616  -0.124   0.134  0.00  0.00    +0.000 C 
ATOM     26  C   UNL     1      13.080  -0.417   0.381  0.00  0.00    +0.000 C 
ATOM     27  C   UNL     1      10.734   0.025   1.330  0.00  0.00    +0.000 C 
ATOM     28  O   UNL     1      11.206   0.089   2.454  0.00  0.00    +0.000 OA
ATOM     29  O   UNL     1       9.386   0.063   1.167  0.00  0.00    +0.000 OA
ATOM     30  C   UNL     1       8.799  -0.366  -0.015  0.00  0.00    +0.000 C 
ATOM     31  C   UNL     1       9.550   0.333  -1.171  0.00  0.00    +0.000 C 
ENDBRANCH  21  30
BRANCH  21  32
ATOM     32  O   UNL     1       7.026   1.275  -0.139  0.00  0.00    +0.000 OA
ATOM     33  H   UNL     1       7.449   1.741   0.629  0.00  0.00    +0.000 HD
ENDBRANCH  21  32
ENDBRANCH   1  21
BRANCH  10  34
ATOM     34  O   UNL     1      -2.687   1.322   1.627  0.00  0.00    +0.000 OA
BRANCH  34  35
ATOM     35  C   UNL     1      -3.816   1.662   0.834  0.00  0.00    +0.000 C 
ATOM     36  O   UNL     1      -4.730   0.561   0.933  0.00  0.00    +0.000 OA
ATOM     37  C   UNL     1      -6.080   0.962   0.829  0.00  0.00    +0.000 C 
ATOM     38  C   UNL     1      -6.492   1.795   2.083  0.00  0.00    +0.000 C 
ATOM     39  C   UNL     1      -5.357   2.773   2.524  0.00  0.00    +0.000 C 
ATOM     40  C   UNL     1      -4.359   3.028   1.371  0.00  0.00    +0.000 C 
BRANCH  38  41
ATOM     41  O   UNL     1      -7.718   2.457   1.883  0.00  0.00    +0.000 OA
ATOM     42  H   UNL     1      -7.621   3.079   1.121  0.00  0.00    +0.000 HD
ENDBRANCH  38  41
BRANCH  39  43
ATOM     43  O   UNL     1      -4.653   2.248   3.630  0.00  0.00    +0.000 OA
ATOM     44  H   UNL     1      -4.442   1.294   3.459  0.00  0.00    +0.000 HD
ENDBRANCH  39  43
BRANCH  40  45
ATOM     45  O   UNL     1      -4.880   3.831   0.334  0.00  0.00    +0.000 OA
ATOM     46  H   UNL     1      -5.805   3.581   0.121  0.00  0.00    +0.000 HD
ENDBRANCH  40  45
BRANCH  37  47
ATOM     47  C   UNL     1      -6.975  -0.269   0.655  0.00  0.00    +0.000 C 
BRANCH  47  48
ATOM     48  O   UNL     1      -8.300   0.170   0.442  0.00  0.00    +0.000 OA
BRANCH  48  49
ATOM     49  C   UNL     1      -9.200  -0.912   0.278  0.00  0.00    +0.000 C 
ATOM     50  O   UNL     1      -9.991  -0.636  -0.871  0.00  0.00    +0.000 OA
ATOM     51  C   UNL     1     -10.873  -1.716  -1.153  0.00  0.00    +0.000 C 
ATOM     52  C   UNL     1     -11.912  -1.879  -0.006  0.00  0.00    +0.000 C 
ATOM     53  C   UNL     1     -11.139  -2.126   1.307  0.00  0.00    +0.000 C 
ATOM     54  C   UNL     1     -10.095  -1.018   1.548  0.00  0.00    +0.000 C 
BRANCH  52  55
ATOM     55  O   UNL     1     -12.777  -0.769   0.104  0.00  0.00    +0.000 OA
ATOM     56  H   UNL     1     -12.282   0.060  -0.122  0.00  0.00    +0.000 HD
ENDBRANCH  52  55
BRANCH  53  57
ATOM     57  O   UNL     1     -12.000  -2.293   2.407  0.00  0.00    +0.000 OA
ATOM     58  H   UNL     1     -12.515  -1.453   2.524  0.00  0.00    +0.000 HD
ENDBRANCH  53  57
BRANCH  54  59
ATOM     59  O   UNL     1     -10.736   0.196   1.881  0.00  0.00    +0.000 OA
ATOM     60  H   UNL     1     -10.524   0.896   1.211  0.00  0.00    +0.000 HD
ENDBRANCH  54  59
BRANCH  51  61
ATOM     61  C   UNL     1     -11.546  -1.457  -2.509  0.00  0.00    +0.000 C 
BRANCH  61  62
ATOM     62  O   UNL     1     -12.418  -2.501  -2.847  0.00  0.00    +0.000 OA
ATOM     63  H   UNL     1     -11.852  -3.251  -3.168  0.00  0.00    +0.000 HD
ENDBRANCH  61  62
ENDBRANCH  51  61
ENDBRANCH  48  49
ENDBRANCH  47  48
ENDBRANCH  37  47
ENDBRANCH  34  35
ENDBRANCH  10  34
TORSDOF 16
