REMARK  Name = 
REMARK  18 active torsions:
REMARK  status: ('A' for Active; 'I' for Inactive)
REMARK    1  A    between atoms: C_1  and  C_2
REMARK    2  A    between atoms: C_4  and  O_5
REMARK    3  A    between atoms: O_5  and  C_6
REMARK    4  A    between atoms: C_7  and  O_8
REMARK    5  A    between atoms: C_10  and  O_11
REMARK    6  A    between atoms: O_11  and  C_12
REMARK    7  A    between atoms: C_13  and  O_14
REMARK    8  A    between atoms: C_16  and  O_17
REMARK    9  A    between atoms: O_17  and  C_18
REMARK   10  A    between atoms: C_21  and  C_22
REMARK   11  A    between atoms: C_30  and  C_31
REMARK   12  A    between atoms: C_32  and  C_33
REMARK   13  A    between atoms: C_39  and  O_40
REMARK   14  A    between atoms: C_42  and  O_43
REMARK   15  A    between atoms: C_46  and  C_47
REMARK   16  A    between atoms: C_49  and  C_50
REMARK   17  A    between atoms: C_52  and  O_53
REMARK   18  A    between atoms: C_54  and  O_55
REMARK                            x       y       z     vdW  Elec       q    Type
REMARK                         _______ _______ _______ _____ _____    ______ ____
ROOT
ATOM      1  C   UNL     1       3.183  -0.199   2.695  0.00  0.00    +0.000 C 
ATOM      2  C   UNL     1       2.410   1.093   2.981  0.00  0.00    +0.000 C 
ATOM      3  C   UNL     1       1.233   1.259   1.998  0.00  0.00    +0.000 C 
ATOM      4  C   UNL     1       0.690  -0.115   1.552  0.00  0.00    +0.000 C 
ATOM      5  O   UNL     1       0.816  -1.075   2.584  0.00  0.00    +0.000 OA
ATOM      6  C   UNL     1       2.187  -1.402   2.852  0.00  0.00    +0.000 C 
ATOM      7  C   UNL     1       2.243  -1.954   4.280  0.00  0.00    +0.000 C 
ENDROOT
BRANCH   2   8
ATOM      8  O   UNL     1       3.233   2.233   3.000  0.00  0.00    +0.000 OA
ATOM      9  H   UNL     1       3.606   2.347   2.087  0.00  0.00    +0.000 HD
ENDBRANCH   2   8
BRANCH   1  10
ATOM     10  O   UNL     1       3.682  -0.174   1.363  0.00  0.00    +0.000 OA
BRANCH  10  14
ATOM     11  C   UNL     1       7.349   0.024  -0.505  0.00  0.00    +0.000 C 
ATOM     12  C   UNL     1       6.897  -1.413  -0.093  0.00  0.00    +0.000 C 
ATOM     13  C   UNL     1       5.406  -1.439   0.229  0.00  0.00    +0.000 C 
ATOM     14  C   UNL     1       5.088  -0.353   1.292  0.00  0.00    +0.000 C 
ATOM     15  O   UNL     1       5.710   0.923   1.107  0.00  0.00    +0.000 OA
ATOM     16  C   UNL     1       6.292   1.121  -0.170  0.00  0.00    +0.000 C 
ATOM     17  C   UNL     1       5.220   1.410  -1.245  0.00  0.00    +0.000 C 
BRANCH  12  18
ATOM     18  O   UNL     1       7.640  -1.924   0.993  0.00  0.00    +0.000 OA
ATOM     19  H   UNL     1       7.611  -1.277   1.743  0.00  0.00    +0.000 HD
ENDBRANCH  12  18
BRANCH  11  20
ATOM     20  O   UNL     1       8.536   0.347   0.212  0.00  0.00    +0.000 OA
BRANCH  20  24
ATOM     21  C   UNL     1      12.631  -1.271  -1.341  0.00  0.00    +0.000 C 
ATOM     22  C   UNL     1      11.705  -0.054  -1.384  0.00  0.00    +0.000 C 
ATOM     23  O   UNL     1      10.573  -0.339  -0.574  0.00  0.00    +0.000 OA
ATOM     24  C   UNL     1       9.631   0.722  -0.603  0.00  0.00    +0.000 C 
ATOM     25  C   UNL     1      10.242   1.996   0.008  0.00  0.00    +0.000 C 
ATOM     26  C   UNL     1      11.492   2.417  -0.774  0.00  0.00    +0.000 C 
ATOM     27  C   UNL     1      12.447   1.207  -0.858  0.00  0.00    +0.000 C 
BRANCH  26  28
ATOM     28  O   UNL     1      11.151   2.942  -2.039  0.00  0.00    +0.000 OA
ATOM     29  H   UNL     1      10.874   2.209  -2.642  0.00  0.00    +0.000 HD
ENDBRANCH  26  28
BRANCH  27  30
ATOM     30  O   UNL     1      13.589   1.514  -1.621  0.00  0.00    +0.000 OA
ATOM     31  H   UNL     1      13.302   1.590  -2.569  0.00  0.00    +0.000 HD
ENDBRANCH  27  30
ENDBRANCH  20  24
ENDBRANCH  11  20
ENDBRANCH  10  14
ENDBRANCH   1  10
BRANCH   4  32
ATOM     32  O   UNL     1      -0.682   0.044   1.228  0.00  0.00    +0.000 OA
BRANCH  32  33
ATOM     33  C   UNL     1      -1.091  -0.666   0.069  0.00  0.00    +0.000 C 
ATOM     34  C   UNL     1      -2.140  -1.712   0.478  0.00  0.00    +0.000 C 
ATOM     35  C   UNL     1      -3.494  -1.108   0.936  0.00  0.00    +0.000 C 
ATOM     36  C   UNL     1      -3.968   0.182   0.144  0.00  0.00    +0.000 C 
ATOM     37  C   UNL     1      -3.617   1.414   1.036  0.00  0.00    +0.000 C 
ATOM     38  C   UNL     1      -3.178   0.280  -1.200  0.00  0.00    +0.000 C 
ATOM     39  C   UNL     1      -3.537  -0.842  -2.231  0.00  0.00    +0.000 C 
ATOM     40  C   UNL     1      -4.953  -1.427  -2.061  0.00  0.00    +0.000 C 
ATOM     41  C   UNL     1      -5.909  -0.314  -1.634  0.00  0.00    +0.000 C 
ATOM     42  C   UNL     1      -5.550   0.146  -0.178  0.00  0.00    +0.000 C 
ATOM     43  C   UNL     1      -6.437   1.377   0.223  0.00  0.00    +0.000 C 
ATOM     44  C   UNL     1      -7.498   1.744  -0.831  0.00  0.00    +0.000 C 
ATOM     45  C   UNL     1      -8.360   0.575  -1.422  0.00  0.00    +0.000 C 
ATOM     46  C   UNL     1      -9.083   1.209  -2.647  0.00  0.00    +0.000 C 
ATOM     47  C   UNL     1      -9.373   0.049  -0.344  0.00  0.00    +0.000 C 
ATOM     48  C   UNL     1      -8.663  -1.149   0.304  0.00  0.00    +0.000 C 
ATOM     49  C   UNL     1      -7.934  -1.822  -0.880  0.00  0.00    +0.000 C 
ATOM     50  C   UNL     1      -7.440  -0.669  -1.806  0.00  0.00    +0.000 C 
ATOM     51  C   UNL     1      -1.640   0.350  -0.986  0.00  0.00    +0.000 C 
BRANCH  47  52
ATOM     52  C   UNL     1     -10.790  -0.251  -0.857  0.00  0.00    +0.000 C 
ATOM     53  C   UNL     1     -11.252  -1.318  -1.506  0.00  0.00    +0.000 C 
ATOM     54  C   UNL     1     -12.656  -1.072  -1.725  0.00  0.00    +0.000 C 
ATOM     55  O   UNL     1     -13.427  -1.842  -2.272  0.00  0.00    +0.000 OA
ATOM     56  O   UNL     1     -13.024   0.119  -1.233  0.00  0.00    +0.000 OA
ATOM     57  C   UNL     1     -11.928   0.730  -0.659  0.00  0.00    +0.000 C 
ENDBRANCH  47  52
BRANCH  48  58
ATOM     58  O   UNL     1      -9.553  -1.981   1.013  0.00  0.00    +0.000 OA
ATOM     59  H   UNL     1      -9.383  -2.925   0.757  0.00  0.00    +0.000 HD
ENDBRANCH  48  58
BRANCH  50  60
ATOM     60  O   UNL     1      -7.594  -1.049  -3.160  0.00  0.00    +0.000 OA
ATOM     61  H   UNL     1      -8.522  -1.360  -3.313  0.00  0.00    +0.000 HD
ENDBRANCH  50  60
ENDBRANCH  32  33
ENDBRANCH   4  32
TORSDOF 13
