REMARK  Name = 
REMARK  18 active torsions:
REMARK  status: ('A' for Active; 'I' for Inactive)
REMARK    1  A    between atoms: C_1  and  C_2
REMARK    2  A    between atoms: C_4  and  O_5
REMARK    3  A    between atoms: O_5  and  C_6
REMARK    4  A    between atoms: C_7  and  O_8
REMARK    5  A    between atoms: C_10  and  O_11
REMARK    6  A    between atoms: O_11  and  C_12
REMARK    7  A    between atoms: C_13  and  O_14
REMARK    8  A    between atoms: C_16  and  O_17
REMARK    9  A    between atoms: O_17  and  C_18
REMARK   10  A    between atoms: C_21  and  C_22
REMARK   11  A    between atoms: C_29  and  O_30
REMARK   12  A    between atoms: C_31  and  C_32
REMARK   13  A    between atoms: C_33  and  C_34
REMARK   14  A    between atoms: C_42  and  O_43
REMARK   15  A    between atoms: C_46  and  C_47
REMARK   16  A    between atoms: C_49  and  C_50
REMARK   17  A    between atoms: C_52  and  O_53
REMARK   18  A    between atoms: C_54  and  O_55
REMARK                            x       y       z     vdW  Elec       q    Type
REMARK                         _______ _______ _______ _____ _____    ______ ____
ROOT
ATOM      1  C   UNL     1      -3.017  -0.118   0.376  0.00  0.00    +0.000 C 
ATOM      2  C   UNL     1      -2.358  -0.133   1.770  0.00  0.00    +0.000 C 
ATOM      3  C   UNL     1      -1.607   1.193   2.007  0.00  0.00    +0.000 C 
ATOM      4  C   UNL     1      -0.603   1.405   0.863  0.00  0.00    +0.000 C 
ATOM      5  O   UNL     1      -1.282   1.452  -0.387  0.00  0.00    +0.000 OA
ATOM      6  C   UNL     1      -1.926   0.213  -0.677  0.00  0.00    +0.000 C 
ATOM      7  C   UNL     1      -2.530   0.297  -2.081  0.00  0.00    +0.000 C 
ENDROOT
BRANCH   2   8
ATOM      8  O   UNL     1      -3.291  -0.407   2.785  0.00  0.00    +0.000 OA
ATOM      9  H   UNL     1      -3.743   0.439   3.031  0.00  0.00    +0.000 HD
ENDBRANCH   2   8
BRANCH   1  10
ATOM     10  O   UNL     1      -4.035   0.874   0.314  0.00  0.00    +0.000 OA
BRANCH  10  14
ATOM     11  C   UNL     1      -8.152   0.653   0.897  0.00  0.00    +0.000 C 
ATOM     12  C   UNL     1      -7.388   1.837   0.288  0.00  0.00    +0.000 C 
ATOM     13  C   UNL     1      -6.228   1.299  -0.557  0.00  0.00    +0.000 C 
ATOM     14  C   UNL     1      -5.346   0.326   0.264  0.00  0.00    +0.000 C 
ATOM     15  O   UNL     1      -5.795   0.168   1.600  0.00  0.00    +0.000 OA
ATOM     16  C   UNL     1      -7.158  -0.219   1.731  0.00  0.00    +0.000 C 
ATOM     17  C   UNL     1      -7.328  -1.735   1.574  0.00  0.00    +0.000 C 
BRANCH  12  18
ATOM     18  O   UNL     1      -8.236   2.673  -0.461  0.00  0.00    +0.000 OA
ATOM     19  H   UNL     1      -8.473   2.198  -1.300  0.00  0.00    +0.000 HD
ENDBRANCH  12  18
BRANCH  11  20
ATOM     20  O   UNL     1      -8.767  -0.101  -0.149  0.00  0.00    +0.000 OA
BRANCH  20  24
ATOM     21  C   UNL     1     -11.841  -3.111  -0.823  0.00  0.00    +0.000 C 
ATOM     22  C   UNL     1     -11.815  -2.016   0.254  0.00  0.00    +0.000 C 
ATOM     23  O   UNL     1     -10.467  -1.559   0.451  0.00  0.00    +0.000 OA
ATOM     24  C   UNL     1     -10.179  -0.229   0.004  0.00  0.00    +0.000 C 
ATOM     25  C   UNL     1     -10.838   0.056  -1.354  0.00  0.00    +0.000 C 
ATOM     26  C   UNL     1     -12.380  -0.019  -1.245  0.00  0.00    +0.000 C 
ATOM     27  C   UNL     1     -12.810  -0.865  -0.021  0.00  0.00    +0.000 C 
BRANCH  26  28
ATOM     28  O   UNL     1     -12.960   1.259  -1.158  0.00  0.00    +0.000 OA
ATOM     29  H   UNL     1     -12.520   1.741  -0.408  0.00  0.00    +0.000 HD
ENDBRANCH  26  28
BRANCH  27  30
ATOM     30  O   UNL     1     -14.148  -1.290  -0.103  0.00  0.00    +0.000 OA
ATOM     31  H   UNL     1     -14.277  -1.724  -0.985  0.00  0.00    +0.000 HD
ENDBRANCH  27  30
ENDBRANCH  20  24
ENDBRANCH  11  20
ENDBRANCH  10  14
ENDBRANCH   1  10
BRANCH   4  32
ATOM     32  O   UNL     1       0.331   0.338   0.883  0.00  0.00    +0.000 OA
BRANCH  32  33
ATOM     33  C   UNL     1       1.686   0.723   0.776  0.00  0.00    +0.000 C 
ATOM     34  C   UNL     1       2.478  -0.232   1.692  0.00  0.00    +0.000 C 
ATOM     35  C   UNL     1       4.004  -0.116   1.505  0.00  0.00    +0.000 C 
ATOM     36  C   UNL     1       4.407  -0.335   0.016  0.00  0.00    +0.000 C 
ATOM     37  C   UNL     1       3.980  -1.774  -0.441  0.00  0.00    +0.000 C 
ATOM     38  C   UNL     1       3.667   0.822  -0.772  0.00  0.00    +0.000 C 
ATOM     39  C   UNL     1       4.293   0.992  -2.160  0.00  0.00    +0.000 C 
ATOM     40  C   UNL     1       5.759   1.519  -2.004  0.00  0.00    +0.000 C 
ATOM     41  C   UNL     1       6.427   1.168  -0.625  0.00  0.00    +0.000 C 
ATOM     42  C   UNL     1       5.971  -0.269  -0.250  0.00  0.00    +0.000 C 
ATOM     43  C   UNL     1       6.832  -0.885   0.848  0.00  0.00    +0.000 C 
ATOM     44  C   UNL     1       8.324  -0.988   0.421  0.00  0.00    +0.000 C 
ATOM     45  C   UNL     1       8.828   0.086  -0.641  0.00  0.00    +0.000 C 
ATOM     46  C   UNL     1       8.815  -0.470  -2.102  0.00  0.00    +0.000 C 
ATOM     47  C   UNL     1      10.241   0.601  -0.237  0.00  0.00    +0.000 C 
ATOM     48  C   UNL     1       9.969   1.666   0.863  0.00  0.00    +0.000 C 
ATOM     49  C   UNL     1       8.469   1.983   0.782  0.00  0.00    +0.000 C 
ATOM     50  C   UNL     1       7.992   1.407  -0.574  0.00  0.00    +0.000 C 
ATOM     51  C   UNL     1       2.137   0.642  -0.709  0.00  0.00    +0.000 C 
BRANCH  47  52
ATOM     52  C   UNL     1      11.320  -0.434   0.102  0.00  0.00    +0.000 C 
ATOM     53  C   UNL     1      11.989  -0.525   1.253  0.00  0.00    +0.000 C 
ATOM     54  C   UNL     1      12.906  -1.624   1.103  0.00  0.00    +0.000 C 
ATOM     55  O   UNL     1      13.684  -2.012   1.959  0.00  0.00    +0.000 OA
ATOM     56  O   UNL     1      12.804  -2.175  -0.113  0.00  0.00    +0.000 OA
ATOM     57  C   UNL     1      11.827  -1.516  -0.832  0.00  0.00    +0.000 C 
ENDBRANCH  47  52
BRANCH  44  58
ATOM     58  O   UNL     1       8.646  -2.294   0.005  0.00  0.00    +0.000 OA
ATOM     59  H   UNL     1       7.957  -2.583  -0.649  0.00  0.00    +0.000 HD
ENDBRANCH  44  58
BRANCH  50  60
ATOM     60  O   UNL     1       8.367   2.285  -1.627  0.00  0.00    +0.000 OA
ATOM     61  H   UNL     1       8.898   3.055  -1.295  0.00  0.00    +0.000 HD
ENDBRANCH  50  60
ENDBRANCH  32  33
ENDBRANCH   4  32
TORSDOF 13
