REMARK  Name = 
REMARK  15 active torsions:
REMARK  status: ('A' for Active; 'I' for Inactive)
REMARK    1  A    between atoms: C_1  and  C_2
REMARK    2  A    between atoms: C_18  and  O_19
REMARK    3  A    between atoms: O_19  and  C_20
REMARK    4  A    between atoms: C_23  and  O_24
REMARK    5  A    between atoms: O_24  and  C_25
REMARK    6  A    between atoms: C_27  and  C_28
REMARK    7  A    between atoms: C_28  and  O_29
REMARK    8  A    between atoms: C_30  and  O_31
REMARK    9  A    between atoms: C_32  and  O_33
REMARK   10  A    between atoms: C_34  and  O_35
REMARK   11  A    between atoms: C_36  and  O_37
REMARK   12  A    between atoms: C_38  and  O_39
REMARK   13  A    between atoms: C_42  and  C_43
REMARK   14  A    between atoms: C_47  and  C_48
REMARK   15  A    between atoms: C_50  and  C_51
REMARK                            x       y       z     vdW  Elec       q    Type
REMARK                         _______ _______ _______ _____ _____    ______ ____
ROOT
ATOM      1  C   UNL     1     -12.747   0.283  -0.470  0.00  0.00    +0.000 C 
ATOM      2  C   UNL     1     -11.293  -0.132  -0.694  0.00  0.00    +0.000 C 
ATOM      3  C   UNL     1     -10.736  -0.959   0.465  0.00  0.00    +0.000 C 
ATOM      4  C   UNL     1      -9.346  -1.428   0.049  0.00  0.00    +0.000 C 
ATOM      5  C   UNL     1      -8.424  -0.239  -0.371  0.00  0.00    +0.000 C 
ATOM      6  O   UNL     1      -9.069   0.703  -1.238  0.00  0.00    +0.000 OA
ATOM      7  C   UNL     1     -10.373   1.083  -0.855  0.00  0.00    +0.000 C 
ATOM      8  O   UNL     1      -7.878   0.414   0.772  0.00  0.00    +0.000 OA
ATOM      9  C   UNL     1      -6.577   0.878   0.403  0.00  0.00    +0.000 C 
ATOM     10  C   UNL     1      -5.374   0.304   1.238  0.00  0.00    +0.000 C 
ATOM     11  C   UNL     1      -4.469  -0.439   0.217  0.00  0.00    +0.000 C 
ATOM     12  C   UNL     1      -2.934  -0.589   0.439  0.00  0.00    +0.000 C 
ATOM     13  C   UNL     1      -2.577  -1.292   1.758  0.00  0.00    +0.000 C 
ATOM     14  C   UNL     1      -1.092  -1.534   1.773  0.00  0.00    +0.000 C 
ATOM     15  O   UNL     1      -0.653  -2.671   1.880  0.00  0.00    +0.000 OA
ATOM     16  C   UNL     1      -0.175  -0.341   1.602  0.00  0.00    +0.000 C 
ATOM     17  C   UNL     1       1.325  -0.729   1.623  0.00  0.00    +0.000 C 
ATOM     18  C   UNL     1       2.266   0.485   1.447  0.00  0.00    +0.000 C 
ATOM     19  C   UNL     1       1.837   1.417   0.292  0.00  0.00    +0.000 C 
ATOM     20  C   UNL     1       0.322   1.727   0.295  0.00  0.00    +0.000 C 
ATOM     21  C   UNL     1      -0.538   0.422   0.280  0.00  0.00    +0.000 C 
ATOM     22  C   UNL     1      -0.164  -0.432  -0.995  0.00  0.00    +0.000 C 
ATOM     23  C   UNL     1      -2.106   0.743   0.280  0.00  0.00    +0.000 C 
ATOM     24  C   UNL     1      -2.541   1.536  -0.993  0.00  0.00    +0.000 C 
ATOM     25  C   UNL     1      -4.063   1.669  -1.117  0.00  0.00    +0.000 C 
ATOM     26  C   UNL     1      -4.770   0.271  -1.113  0.00  0.00    +0.000 C 
ATOM     27  C   UNL     1      -4.343  -0.560  -2.349  0.00  0.00    +0.000 C 
ATOM     28  C   UNL     1      -6.300   0.460  -1.039  0.00  0.00    +0.000 C 
ATOM     29  C   UNL     1      -7.210  -0.774  -1.133  0.00  0.00    +0.000 C 
ATOM     30  C   UNL     1      -7.541  -1.234  -2.576  0.00  0.00    +0.000 C 
ENDROOT
BRANCH  18  31
ATOM     31  O   UNL     1       3.535  -0.056   1.117  0.00  0.00    +0.000 OA
BRANCH  31  32
ATOM     32  C   UNL     1       4.639   0.444   1.837  0.00  0.00    +0.000 C 
ATOM     33  O   UNL     1       5.353   1.331   0.985  0.00  0.00    +0.000 OA
ATOM     34  C   UNL     1       6.536   1.803   1.612  0.00  0.00    +0.000 C 
ATOM     35  C   UNL     1       7.533   0.657   1.867  0.00  0.00    +0.000 C 
ATOM     36  C   UNL     1       6.847  -0.356   2.799  0.00  0.00    +0.000 C 
ATOM     37  C   UNL     1       5.509  -0.793   2.173  0.00  0.00    +0.000 C 
BRANCH  36  38
ATOM     38  O   UNL     1       7.687  -1.451   3.074  0.00  0.00    +0.000 OA
ATOM     39  H   UNL     1       7.683  -2.050   2.283  0.00  0.00    +0.000 HD
ENDBRANCH  36  38
BRANCH  37  40
ATOM     40  O   UNL     1       4.821  -1.689   3.009  0.00  0.00    +0.000 OA
ATOM     41  H   UNL     1       4.579  -1.199   3.838  0.00  0.00    +0.000 HD
ENDBRANCH  37  40
BRANCH  35  42
ATOM     42  O   UNL     1       7.866   0.039   0.624  0.00  0.00    +0.000 OA
BRANCH  42  43
ATOM     43  C   UNL     1       9.272  -0.080   0.406  0.00  0.00    +0.000 C 
ATOM     44  O   UNL     1       9.658   0.994  -0.467  0.00  0.00    +0.000 OA
ATOM     45  C   UNL     1      10.721   0.634  -1.332  0.00  0.00    +0.000 C 
ATOM     46  C   UNL     1      10.273  -0.463  -2.348  0.00  0.00    +0.000 C 
ATOM     47  C   UNL     1       9.316  -1.501  -1.679  0.00  0.00    +0.000 C 
ATOM     48  C   UNL     1       9.547  -1.518  -0.163  0.00  0.00    +0.000 C 
BRANCH  46  49
ATOM     49  O   UNL     1      11.408  -1.082  -2.907  0.00  0.00    +0.000 OA
ATOM     50  H   UNL     1      11.876  -1.575  -2.185  0.00  0.00    +0.000 HD
ENDBRANCH  46  49
BRANCH  47  51
ATOM     51  O   UNL     1       7.961  -1.208  -1.943  0.00  0.00    +0.000 OA
ATOM     52  H   UNL     1       7.827  -0.226  -1.930  0.00  0.00    +0.000 HD
ENDBRANCH  47  51
BRANCH  48  53
ATOM     53  O   UNL     1      10.876  -1.910   0.095  0.00  0.00    +0.000 OA
ATOM     54  H   UNL     1      10.934  -2.112   1.065  0.00  0.00    +0.000 HD
ENDBRANCH  48  53
BRANCH  45  55
ATOM     55  C   UNL     1      11.271   1.875  -2.048  0.00  0.00    +0.000 C 
BRANCH  55  56
ATOM     56  O   UNL     1      10.281   2.479  -2.840  0.00  0.00    +0.000 OA
ATOM     57  H   UNL     1      10.448   2.206  -3.778  0.00  0.00    +0.000 HD
ENDBRANCH  55  56
ENDBRANCH  45  55
ENDBRANCH  42  43
ENDBRANCH  35  42
ENDBRANCH  31  32
ENDBRANCH  18  31
TORSDOF 11
