REMARK  Name = 
REMARK  19 active torsions:
REMARK  status: ('A' for Active; 'I' for Inactive)
REMARK    1  A    between atoms: C_1  and  O_2
REMARK    2  A    between atoms: O_2  and  C_3
REMARK    3  A    between atoms: C_5  and  O_6
REMARK    4  A    between atoms: O_6  and  C_7
REMARK    5  A    between atoms: C_8  and  C_9
REMARK    6  A    between atoms: C_11  and  O_12
REMARK    7  A    between atoms: O_12  and  C_13
REMARK    8  A    between atoms: C_14  and  C_15
REMARK    9  A    between atoms: C_17  and  O_18
REMARK   10  A    between atoms: O_18  and  C_19
REMARK   11  A    between atoms: C_31  and  C_32
REMARK   12  A    between atoms: C_39  and  C_40
REMARK   13  A    between atoms: C_42  and  O_43
REMARK   14  A    between atoms: C_46  and  O_47
REMARK   15  A    between atoms: O_47  and  C_48
REMARK   16  A    between atoms: C_50  and  O_51
REMARK   17  A    between atoms: O_51  and  C_52
REMARK   18  A    between atoms: C_54  and  C_55
REMARK   19  A    between atoms: C_56  and  O_57
REMARK                            x       y       z     vdW  Elec       q    Type
REMARK                         _______ _______ _______ _____ _____    ______ ____
ROOT
ATOM      1  C   UNL     1       1.935  -0.881   0.584  0.00  0.00    +0.000 C 
ATOM      2  C   UNL     1       1.459  -1.509   1.925  0.00  0.00    +0.000 C 
ATOM      3  C   UNL     1       2.036  -0.731   3.111  0.00  0.00    +0.000 C 
ATOM      4  O   UNL     1       0.044  -1.502   2.048  0.00  0.00    +0.000 OA
ATOM      5  C   UNL     1      -0.663  -1.954   0.893  0.00  0.00    +0.000 C 
ATOM      6  C   UNL     1       0.223  -2.574  -0.200  0.00  0.00    +0.000 C 
ATOM      7  C   UNL     1       1.264  -1.542  -0.650  0.00  0.00    +0.000 C 
ENDROOT
BRANCH   7   8
ATOM      8  O   UNL     1       0.634  -0.520  -1.413  0.00  0.00    +0.000 OA
ATOM      9  C   UNL     1       0.861  -0.693  -2.792  0.00  0.00    +0.000 C 
ENDBRANCH   7   8
BRANCH   1  10
ATOM     10  O   UNL     1       3.332  -1.058   0.475  0.00  0.00    +0.000 OA
BRANCH  10  15
ATOM     11  C   UNL     1       6.931  -0.158  -0.050  0.00  0.00    +0.000 C 
ATOM     12  C   UNL     1       6.223  -0.503   1.294  0.00  0.00    +0.000 C 
ATOM     13  C   UNL     1       6.050  -2.016   1.505  0.00  0.00    +0.000 C 
ATOM     14  O   UNL     1       4.994   0.182   1.490  0.00  0.00    +0.000 OA
ATOM     15  C   UNL     1       4.077   0.141   0.403  0.00  0.00    +0.000 C 
ATOM     16  C   UNL     1       4.720   0.263  -0.996  0.00  0.00    +0.000 C 
ATOM     17  C   UNL     1       6.124   0.855  -0.874  0.00  0.00    +0.000 C 
BRANCH  17  18
ATOM     18  O   UNL     1       6.087   2.110  -0.214  0.00  0.00    +0.000 OA
ATOM     19  C   UNL     1       6.100   3.161  -1.154  0.00  0.00    +0.000 C 
ENDBRANCH  17  18
BRANCH  11  20
ATOM     20  O   UNL     1       8.238   0.355   0.187  0.00  0.00    +0.000 OA
BRANCH  20  23
ATOM     21  C   UNL     1      11.184   1.169  -0.582  0.00  0.00    +0.000 C 
ATOM     22  C   UNL     1      10.087   0.451  -1.350  0.00  0.00    +0.000 C 
ATOM     23  C   UNL     1       9.273  -0.444  -0.370  0.00  0.00    +0.000 C 
ATOM     24  O   UNL     1      10.024  -0.975   0.729  0.00  0.00    +0.000 OA
ATOM     25  C   UNL     1      11.385  -1.221   0.425  0.00  0.00    +0.000 C 
ATOM     26  C   UNL     1      11.520  -2.389  -0.577  0.00  0.00    +0.000 C 
ATOM     27  C   UNL     1      12.132   0.091   0.007  0.00  0.00    +0.000 C 
BRANCH  21  29
ATOM     28  C   UNL     1      10.959   3.291   0.358  0.00  0.00    +0.000 C 
ATOM     29  O   UNL     1      10.585   1.933   0.458  0.00  0.00    +0.000 OA
ENDBRANCH  21  29
BRANCH  27  30
ATOM     30  O   UNL     1      12.882   0.633   1.066  0.00  0.00    +0.000 OA
ATOM     31  H   UNL     1      12.282   0.703   1.855  0.00  0.00    +0.000 HD
ENDBRANCH  27  30
ENDBRANCH  20  23
ENDBRANCH  11  20
ENDBRANCH  10  15
ENDBRANCH   1  10
BRANCH   5  32
ATOM     32  O   UNL     1      -1.324  -0.836   0.334  0.00  0.00    +0.000 OA
BRANCH  32  33
ATOM     33  C   UNL     1      -2.729  -0.950   0.299  0.00  0.00    +0.000 C 
ATOM     34  C   UNL     1      -3.176  -0.977  -1.165  0.00  0.00    +0.000 C 
ATOM     35  C   UNL     1      -4.649  -0.684  -1.380  0.00  0.00    +0.000 C 
ATOM     36  C   UNL     1      -5.207  -1.057  -2.554  0.00  0.00    +0.000 C 
ATOM     37  C   UNL     1      -6.630  -0.695  -2.871  0.00  0.00    +0.000 C 
ATOM     38  C   UNL     1      -7.578  -0.961  -1.682  0.00  0.00    +0.000 C 
ATOM     39  C   UNL     1      -8.949  -0.326  -1.905  0.00  0.00    +0.000 C 
ATOM     40  O   UNL     1      -9.162   0.447  -2.830  0.00  0.00    +0.000 OA
ATOM     41  O   UNL     1      -9.924  -0.633  -1.016  0.00  0.00    +0.000 OA
ATOM     42  C   UNL     1     -11.080   0.027  -0.634  0.00  0.00    +0.000 C 
ATOM     43  C   UNL     1     -11.474   1.338  -1.286  0.00  0.00    +0.000 C 
ATOM     44  O   UNL     1     -12.421   1.925  -0.400  0.00  0.00    +0.000 OA
ATOM     45  C   UNL     1     -12.130   1.438   0.916  0.00  0.00    +0.000 C 
ATOM     46  C   UNL     1     -13.368   0.785   1.531  0.00  0.00    +0.000 C 
ATOM     47  O   UNL     1     -11.653   2.476   1.697  0.00  0.00    +0.000 OA
ATOM     48  C   UNL     1     -10.311   2.498   1.674  0.00  0.00    +0.000 C 
ATOM     49  C   UNL     1      -9.819   1.409   1.111  0.00  0.00    +0.000 C 
ATOM     50  C   UNL     1      -8.377   1.229   0.732  0.00  0.00    +0.000 C 
ATOM     51  C   UNL     1      -7.849  -0.207   0.889  0.00  0.00    +0.000 C 
ATOM     52  C   UNL     1      -6.887  -0.642  -0.265  0.00  0.00    +0.000 C 
ATOM     53  C   UNL     1      -5.490   0.100  -0.351  0.00  0.00    +0.000 C 
ATOM     54  C   UNL     1      -5.536   1.591  -0.796  0.00  0.00    +0.000 C 
ATOM     55  C   UNL     1      -4.845   0.063   1.072  0.00  0.00    +0.000 C 
ATOM     56  C   UNL     1      -3.326   0.235   1.065  0.00  0.00    +0.000 C 
ATOM     57  C   UNL     1     -10.959   0.476   0.789  0.00  0.00    +0.000 C 
BRANCH  56  58
ATOM     58  O   UNL     1      -2.839   0.264   2.386  0.00  0.00    +0.000 OA
ATOM     59  H   UNL     1      -3.041  -0.611   2.812  0.00  0.00    +0.000 HD
ENDBRANCH  56  58
ENDBRANCH  32  33
ENDBRANCH   5  32
TORSDOF 11
