REMARK  Name = 
REMARK  19 active torsions:
REMARK  status: ('A' for Active; 'I' for Inactive)
REMARK    1  A    between atoms: C_1  and  C_2
REMARK    2  A    between atoms: C_4  and  O_5
REMARK    3  A    between atoms: O_5  and  C_6
REMARK    4  A    between atoms: C_9  and  O_10
REMARK    5  A    between atoms: O_10  and  C_11
REMARK    6  A    between atoms: C_12  and  O_13
REMARK    7  A    between atoms: C_15  and  C_16
REMARK    8  A    between atoms: C_26  and  O_27
REMARK    9  A    between atoms: C_29  and  C_30
REMARK   10  A    between atoms: C_29  and  O_31
REMARK   11  A    between atoms: O_31  and  C_32
REMARK   12  A    between atoms: C_35  and  O_36
REMARK   13  A    between atoms: O_36  and  C_37
REMARK   14  A    between atoms: C_42  and  C_43
REMARK   15  A    between atoms: C_45  and  C_46
REMARK   16  A    between atoms: C_51  and  O_52
REMARK   17  A    between atoms: C_56  and  O_57
REMARK   18  A    between atoms: C_59  and  C_60
REMARK   19  A    between atoms: C_62  and  C_63
REMARK                            x       y       z     vdW  Elec       q    Type
REMARK                         _______ _______ _______ _____ _____    ______ ____
ROOT
ATOM      1  C   UNL     1      -2.652   0.387   0.939  0.00  0.00    +0.000 A 
ATOM      2  C   UNL     1      -1.967   1.433   1.566  0.00  0.00    +0.000 A 
ATOM      3  C   UNL     1      -0.587   1.449   1.610  0.00  0.00    +0.000 A 
ATOM      4  C   UNL     1       0.160   0.411   1.038  0.00  0.00    +0.000 A 
ATOM      5  C   UNL     1       1.639   0.488   1.083  0.00  0.00    +0.000 C 
ATOM      6  O   UNL     1       2.160   1.500   1.527  0.00  0.00    +0.000 OA
ATOM      7  C   UNL     1       2.485  -0.600   0.508  0.00  0.00    +0.000 C 
ATOM      8  C   UNL     1       1.871  -1.637  -0.127  0.00  0.00    +0.000 C 
ATOM      9  C   UNL     1       2.684  -2.640  -0.881  0.00  0.00    +0.000 C 
ATOM     10  C   UNL     1       4.016  -2.685  -0.766  0.00  0.00    +0.000 C 
ATOM     11  C   UNL     1       4.705  -1.838   0.276  0.00  0.00    +0.000 C 
ATOM     12  C   UNL     1       6.221  -1.656  -0.062  0.00  0.00    +0.000 C 
ATOM     13  C   UNL     1       7.000  -0.711   0.934  0.00  0.00    +0.000 C 
ATOM     14  C   UNL     1       7.235  -1.453   2.269  0.00  0.00    +0.000 C 
ATOM     15  C   UNL     1       6.205   0.595   1.257  0.00  0.00    +0.000 C 
ATOM     16  C   UNL     1       4.758   0.273   1.501  0.00  0.00    +0.000 C 
ATOM     17  O   UNL     1       4.242   0.532   2.577  0.00  0.00    +0.000 OA
ATOM     18  C   UNL     1       4.016  -0.439   0.366  0.00  0.00    +0.000 C 
ATOM     19  C   UNL     1       0.382  -1.740  -0.186  0.00  0.00    +0.000 C 
ATOM     20  O   UNL     1      -0.102  -2.701  -0.758  0.00  0.00    +0.000 OA
ATOM     21  C   UNL     1      -0.490  -0.675   0.409  0.00  0.00    +0.000 A 
ATOM     22  C   UNL     1      -1.925  -0.680   0.360  0.00  0.00    +0.000 A 
ENDROOT
BRANCH   1  26
ATOM     23  C   UNL     1      -6.849  -0.428   0.357  0.00  0.00    +0.000 C 
ATOM     24  C   UNL     1      -6.248   0.777  -0.403  0.00  0.00    +0.000 C 
ATOM     25  C   UNL     1      -4.722   0.634  -0.508  0.00  0.00    +0.000 C 
ATOM     26  C   UNL     1      -4.168   0.441   0.915  0.00  0.00    +0.000 C 
ATOM     27  O   UNL     1      -4.691  -0.748   1.480  0.00  0.00    +0.000 OA
ATOM     28  C   UNL     1      -6.086  -0.615   1.695  0.00  0.00    +0.000 C 
ATOM     29  C   UNL     1      -6.580  -1.865   2.425  0.00  0.00    +0.000 C 
BRANCH  24  30
ATOM     30  O   UNL     1      -6.822   0.937  -1.675  0.00  0.00    +0.000 OA
ATOM     31  H   UNL     1      -6.634   0.111  -2.193  0.00  0.00    +0.000 HD
ENDBRANCH  24  30
BRANCH  23  32
ATOM     32  O   UNL     1      -8.200  -0.175   0.692  0.00  0.00    +0.000 OA
BRANCH  32  36
ATOM     33  C   UNL     1     -11.338   1.151   0.457  0.00  0.00    +0.000 C 
ATOM     34  C   UNL     1     -11.006  -0.093   1.296  0.00  0.00    +0.000 C 
ATOM     35  C   UNL     1     -10.370  -1.160   0.397  0.00  0.00    +0.000 C 
ATOM     36  C   UNL     1      -9.140  -0.557  -0.300  0.00  0.00    +0.000 C 
ATOM     37  O   UNL     1      -9.528   0.560  -1.092  0.00  0.00    +0.000 OA
ATOM     38  C   UNL     1     -10.057   1.608  -0.285  0.00  0.00    +0.000 C 
ATOM     39  C   UNL     1     -10.347   2.817  -1.178  0.00  0.00    +0.000 C 
BRANCH  33  40
ATOM     40  O   UNL     1     -12.348   0.848  -0.495  0.00  0.00    +0.000 OA
BRANCH  40  44
ATOM     41  C   UNL     1     -16.567  -0.507   0.290  0.00  0.00    +0.000 C 
ATOM     42  C   UNL     1     -15.148  -0.823  -0.197  0.00  0.00    +0.000 C 
ATOM     43  O   UNL     1     -14.178  -0.112   0.574  0.00  0.00    +0.000 OA
ATOM     44  C   UNL     1     -13.655   1.094   0.005  0.00  0.00    +0.000 C 
ATOM     45  C   UNL     1     -14.510   1.704  -1.125  0.00  0.00    +0.000 C 
ATOM     46  C   UNL     1     -14.646   0.699  -2.260  0.00  0.00    +0.000 C 
ATOM     47  C   UNL     1     -14.999  -0.641  -1.695  0.00  0.00    +0.000 C 
ATOM     48  O   UNL     1     -15.047  -1.611  -2.437  0.00  0.00    +0.000 OA
ENDBRANCH  40  44
ENDBRANCH  33  40
ENDBRANCH  32  36
ENDBRANCH  23  32
ENDBRANCH   1  26
BRANCH  11  49
ATOM     49  O   UNL     1       4.533  -2.495   1.512  0.00  0.00    +0.000 OA
ATOM     50  H   UNL     1       5.010  -3.366   1.464  0.00  0.00    +0.000 HD
ENDBRANCH  11  49
BRANCH  18  51
ATOM     51  O   UNL     1       4.229   0.260  -0.840  0.00  0.00    +0.000 OA
ATOM     52  H   UNL     1       3.883   1.184  -0.720  0.00  0.00    +0.000 HD
ENDBRANCH  18  51
BRANCH  22  53
ATOM     53  O   UNL     1      -2.647  -1.671  -0.219  0.00  0.00    +0.000 OA
ATOM     54  H   UNL     1      -2.315  -2.463  -0.647  0.00  0.00    +0.000 HD
ENDBRANCH  22  53
BRANCH  13  55
ATOM     55  O   UNL     1       8.307  -0.411   0.441  0.00  0.00    +0.000 OA
BRANCH  55  56
ATOM     56  C   UNL     1       8.341   0.321  -0.784  0.00  0.00    +0.000 C 
ATOM     57  C   UNL     1       8.995   1.697  -0.581  0.00  0.00    +0.000 C 
ATOM     58  C   UNL     1      10.473   1.581  -0.189  0.00  0.00    +0.000 C 
ATOM     59  C   UNL     1      11.059   0.229  -0.620  0.00  0.00    +0.000 C 
ATOM     60  C   UNL     1      10.401  -0.300  -1.914  0.00  0.00    +0.000 C 
ATOM     61  C   UNL     1      10.747   0.529  -3.160  0.00  0.00    +0.000 C 
ATOM     62  O   UNL     1       8.982  -0.457  -1.800  0.00  0.00    +0.000 OA
BRANCH  59  63
ATOM     63  O   UNL     1      12.463   0.352  -0.777  0.00  0.00    +0.000 OA
BRANCH  63  64
ATOM     64  C   UNL     1      13.222  -0.577  -0.014  0.00  0.00    +0.000 C 
ATOM     65  C   UNL     1      14.091  -1.445  -0.952  0.00  0.00    +0.000 C 
ATOM     66  C   UNL     1      15.099  -0.567  -1.692  0.00  0.00    +0.000 C 
ATOM     67  C   UNL     1      15.821   0.223  -0.651  0.00  0.00    +0.000 C 
ATOM     68  O   UNL     1      17.038   0.176  -0.549  0.00  0.00    +0.000 OA
ATOM     69  C   UNL     1      14.947   1.000   0.310  0.00  0.00    +0.000 C 
ATOM     70  C   UNL     1      15.765   1.713   1.387  0.00  0.00    +0.000 C 
ATOM     71  O   UNL     1      14.025   0.116   0.940  0.00  0.00    +0.000 OA
ENDBRANCH  63  64
ENDBRANCH  59  63
ENDBRANCH  55  56
ENDBRANCH  13  55
TORSDOF 13
