REMARK  Name = 
REMARK  18 active torsions:
REMARK  status: ('A' for Active; 'I' for Inactive)
REMARK    1  A    between atoms: C_1  and  C_2
REMARK    2  A    between atoms: C_4  and  O_5
REMARK    3  A    between atoms: O_5  and  C_6
REMARK    4  A    between atoms: C_7  and  O_8
REMARK    5  A    between atoms: C_10  and  O_11
REMARK    6  A    between atoms: O_11  and  C_12
REMARK    7  A    between atoms: C_13  and  O_14
REMARK    8  A    between atoms: C_16  and  O_17
REMARK    9  A    between atoms: O_17  and  C_18
REMARK   10  A    between atoms: C_21  and  C_22
REMARK   11  A    between atoms: C_29  and  O_30
REMARK   12  A    between atoms: C_31  and  C_32
REMARK   13  A    between atoms: C_33  and  C_34
REMARK   14  A    between atoms: C_42  and  O_43
REMARK   15  A    between atoms: C_46  and  C_47
REMARK   16  A    between atoms: C_49  and  C_50
REMARK   17  A    between atoms: C_52  and  O_53
REMARK   18  A    between atoms: C_54  and  O_55
REMARK                            x       y       z     vdW  Elec       q    Type
REMARK                         _______ _______ _______ _____ _____    ______ ____
ROOT
ATOM      1  C   UNL     1       3.011   0.876   0.621  0.00  0.00    +0.000 C 
ATOM      2  C   UNL     1       2.431  -0.249   1.522  0.00  0.00    +0.000 C 
ATOM      3  C   UNL     1       0.910  -0.047   1.639  0.00  0.00    +0.000 C 
ATOM      4  C   UNL     1       0.341  -0.015   0.219  0.00  0.00    +0.000 C 
ATOM      5  O   UNL     1       0.794   1.145  -0.464  0.00  0.00    +0.000 OA
ATOM      6  C   UNL     1       2.203   1.098  -0.698  0.00  0.00    +0.000 C 
ATOM      7  C   UNL     1       2.549   0.172  -1.884  0.00  0.00    +0.000 C 
ENDROOT
BRANCH   2   8
ATOM      8  O   UNL     1       2.678  -1.558   1.048  0.00  0.00    +0.000 OA
ATOM      9  H   UNL     1       3.242  -1.538   0.237  0.00  0.00    +0.000 HD
ENDBRANCH   2   8
BRANCH   1  10
ATOM     10  O   UNL     1       4.368   0.585   0.309  0.00  0.00    +0.000 OA
BRANCH  10  14
ATOM     11  C   UNL     1       8.182   0.966   0.385  0.00  0.00    +0.000 C 
ATOM     12  C   UNL     1       7.156   1.073  -0.763  0.00  0.00    +0.000 C 
ATOM     13  C   UNL     1       6.088   2.080  -0.361  0.00  0.00    +0.000 C 
ATOM     14  C   UNL     1       5.318   1.482   0.850  0.00  0.00    +0.000 C 
ATOM     15  O   UNL     1       6.121   0.714   1.758  0.00  0.00    +0.000 OA
ATOM     16  C   UNL     1       7.495   1.064   1.787  0.00  0.00    +0.000 C 
ATOM     17  C   UNL     1       7.686   2.416   2.499  0.00  0.00    +0.000 C 
BRANCH  12  18
ATOM     18  O   UNL     1       7.785   1.407  -1.975  0.00  0.00    +0.000 OA
ATOM     19  H   UNL     1       8.143   2.329  -1.886  0.00  0.00    +0.000 HD
ENDBRANCH  12  18
BRANCH  11  20
ATOM     20  O   UNL     1       8.855  -0.280   0.254  0.00  0.00    +0.000 OA
BRANCH  20  24
ATOM     21  C   UNL     1      12.434   0.903  -2.030  0.00  0.00    +0.000 C 
ATOM     22  C   UNL     1      12.153  -0.359  -1.216  0.00  0.00    +0.000 C 
ATOM     23  O   UNL     1      10.738  -0.547  -1.061  0.00  0.00    +0.000 OA
ATOM     24  C   UNL     1      10.273  -0.172   0.222  0.00  0.00    +0.000 C 
ATOM     25  C   UNL     1      10.867  -1.085   1.324  0.00  0.00    +0.000 C 
ATOM     26  C   UNL     1      12.355  -1.439   1.046  0.00  0.00    +0.000 C 
ATOM     27  C   UNL     1      12.960  -0.365   0.128  0.00  0.00    +0.000 C 
BRANCH  26  28
ATOM     28  O   UNL     1      12.483  -2.714   0.453  0.00  0.00    +0.000 OA
ATOM     29  H   UNL     1      11.752  -2.843  -0.206  0.00  0.00    +0.000 HD
ENDBRANCH  26  28
BRANCH  27  30
ATOM     30  O   UNL     1      14.337  -0.556  -0.087  0.00  0.00    +0.000 OA
ATOM     31  H   UNL     1      14.457  -1.437  -0.526  0.00  0.00    +0.000 HD
ENDBRANCH  27  30
ENDBRANCH  20  24
ENDBRANCH  11  20
ENDBRANCH  10  14
ENDBRANCH   1  10
BRANCH   4  32
ATOM     32  O   UNL     1      -1.092  -0.031   0.245  0.00  0.00    +0.000 OA
BRANCH  32  33
ATOM     33  C   UNL     1      -1.630  -1.122  -0.511  0.00  0.00    +0.000 C 
ATOM     34  C   UNL     1      -2.478  -2.046   0.393  0.00  0.00    +0.000 C 
ATOM     35  C   UNL     1      -3.926  -1.544   0.603  0.00  0.00    +0.000 C 
ATOM     36  C   UNL     1      -4.652  -1.272  -0.761  0.00  0.00    +0.000 C 
ATOM     37  C   UNL     1      -4.649  -2.590  -1.609  0.00  0.00    +0.000 C 
ATOM     38  C   UNL     1      -3.825  -0.161  -1.488  0.00  0.00    +0.000 C 
ATOM     39  C   UNL     1      -3.858   1.214  -0.749  0.00  0.00    +0.000 C 
ATOM     40  C   UNL     1      -5.223   1.556  -0.109  0.00  0.00    +0.000 C 
ATOM     41  C   UNL     1      -6.369   0.787  -0.778  0.00  0.00    +0.000 C 
ATOM     42  C   UNL     1      -6.165  -0.754  -0.544  0.00  0.00    +0.000 C 
ATOM     43  C   UNL     1      -7.318  -1.601  -1.215  0.00  0.00    +0.000 C 
ATOM     44  C   UNL     1      -8.492  -0.785  -1.790  0.00  0.00    +0.000 C 
ATOM     45  C   UNL     1      -8.985   0.348  -0.833  0.00  0.00    +0.000 C 
ATOM     46  C   UNL     1     -10.090   1.155  -1.586  0.00  0.00    +0.000 C 
ATOM     47  C   UNL     1      -9.546  -0.244   0.503  0.00  0.00    +0.000 C 
ATOM     48  C   UNL     1      -9.420   0.921   1.478  0.00  0.00    +0.000 C 
ATOM     49  C   UNL     1      -7.972   1.328   1.230  0.00  0.00    +0.000 C 
ATOM     50  C   UNL     1      -7.800   1.292  -0.327  0.00  0.00    +0.000 C 
ATOM     51  C   UNL     1      -2.375  -0.620  -1.772  0.00  0.00    +0.000 C 
BRANCH  47  52
ATOM     52  C   UNL     1     -10.908  -0.931   0.508  0.00  0.00    +0.000 C 
ATOM     53  C   UNL     1     -11.053  -2.229   0.749  0.00  0.00    +0.000 C 
ATOM     54  C   UNL     1     -12.467  -2.492   0.707  0.00  0.00    +0.000 C 
ATOM     55  O   UNL     1     -12.985  -3.583   0.878  0.00  0.00    +0.000 OA
ATOM     56  O   UNL     1     -13.160  -1.369   0.467  0.00  0.00    +0.000 OA
ATOM     57  C   UNL     1     -12.283  -0.311   0.317  0.00  0.00    +0.000 C 
ENDBRANCH  47  52
BRANCH  44  58
ATOM     58  O   UNL     1      -8.137  -0.331  -3.083  0.00  0.00    +0.000 OA
ATOM     59  H   UNL     1      -7.925   0.632  -3.081  0.00  0.00    +0.000 HD
ENDBRANCH  44  58
BRANCH  50  60
ATOM     60  O   UNL     1      -7.944   2.600  -0.846  0.00  0.00    +0.000 OA
ATOM     61  H   UNL     1      -8.647   3.084  -0.338  0.00  0.00    +0.000 HD
ENDBRANCH  50  60
ENDBRANCH  32  33
ENDBRANCH   4  32
TORSDOF 13
