REMARK  Name = 
REMARK  16 active torsions:
REMARK  status: ('A' for Active; 'I' for Inactive)
REMARK    1  A    between atoms: C_1  and  O_2
REMARK    2  A    between atoms: O_2  and  C_3
REMARK    3  A    between atoms: C_5  and  O_6
REMARK    4  A    between atoms: O_6  and  C_7
REMARK    5  A    between atoms: C_8  and  C_9
REMARK    6  A    between atoms: C_11  and  O_12
REMARK    7  A    between atoms: O_12  and  C_13
REMARK    8  A    between atoms: C_16  and  C_17
REMARK    9  A    between atoms: C_21  and  C_22
REMARK   10  A    between atoms: C_23  and  C_24
REMARK   11  A    between atoms: C_32  and  O_33
REMARK   12  A    between atoms: C_39  and  O_40
REMARK   13  A    between atoms: C_41  and  O_42
REMARK   14  A    between atoms: C_43  and  O_44
REMARK   15  A    between atoms: C_45  and  O_46
REMARK   16  A    between atoms: C_47  and  O_48
REMARK                            x       y       z     vdW  Elec       q    Type
REMARK                         _______ _______ _______ _____ _____    ______ ____
ROOT
ATOM      1  O   UNL     1       1.716  -0.477   0.331  0.00  0.00    +0.000 OA
ENDROOT
BRANCH   1   2
ATOM      2  C   UNL     1       0.389  -0.131   0.714  0.00  0.00    +0.000 C 
ATOM      3  C   UNL     1      -0.519  -1.367   0.639  0.00  0.00    +0.000 C 
ATOM      4  C   UNL     1      -1.976  -1.043   1.097  0.00  0.00    +0.000 C 
ATOM      5  C   UNL     1      -2.470   0.410   0.748  0.00  0.00    +0.000 C 
ATOM      6  C   UNL     1      -2.215   1.386   1.949  0.00  0.00    +0.000 C 
ATOM      7  C   UNL     1      -4.028   0.489   0.480  0.00  0.00    +0.000 C 
ATOM      8  C   UNL     1      -4.913  -0.352   1.405  0.00  0.00    +0.000 C 
ATOM      9  C   UNL     1      -6.374   0.107   1.249  0.00  0.00    +0.000 C 
ATOM     10  C   UNL     1      -6.862   0.347  -0.239  0.00  0.00    +0.000 C 
ATOM     11  C   UNL     1      -7.153   1.858  -0.453  0.00  0.00    +0.000 C 
ATOM     12  C   UNL     1      -8.084  -0.566  -0.571  0.00  0.00    +0.000 C 
ATOM     13  C   UNL     1      -7.421  -1.946  -0.694  0.00  0.00    +0.000 C 
ATOM     14  C   UNL     1      -6.057  -1.702  -1.335  0.00  0.00    +0.000 C 
ATOM     15  C   UNL     1      -5.830  -0.158  -1.311  0.00  0.00    +0.000 C 
ATOM     16  C   UNL     1      -4.332   0.236  -1.012  0.00  0.00    +0.000 C 
ATOM     17  C   UNL     1      -3.754   1.452  -1.822  0.00  0.00    +0.000 C 
ATOM     18  C   UNL     1      -2.377   1.972  -1.279  0.00  0.00    +0.000 C 
ATOM     19  C   UNL     1      -1.665   0.837  -0.531  0.00  0.00    +0.000 C 
ATOM     20  C   UNL     1      -0.151   1.013  -0.215  0.00  0.00    +0.000 C 
BRANCH  12  21
ATOM     21  C   UNL     1      -9.271  -0.554   0.400  0.00  0.00    +0.000 C 
ATOM     22  C   UNL     1      -9.752  -1.619   1.046  0.00  0.00    +0.000 C 
ATOM     23  C   UNL     1     -10.871  -1.155   1.817  0.00  0.00    +0.000 C 
ATOM     24  O   UNL     1     -11.564  -1.851   2.541  0.00  0.00    +0.000 OA
ATOM     25  O   UNL     1     -11.073   0.158   1.634  0.00  0.00    +0.000 OA
ATOM     26  C   UNL     1     -10.114   0.650   0.769  0.00  0.00    +0.000 C 
ENDBRANCH  12  21
BRANCH  15  27
ATOM     27  O   UNL     1      -6.218   0.327  -2.583  0.00  0.00    +0.000 OA
ATOM     28  H   UNL     1      -5.613  -0.065  -3.267  0.00  0.00    +0.000 HD
ENDBRANCH  15  27
ENDBRANCH   1   2
BRANCH   1  33
ATOM     29  C   UNL     1       5.338  -0.632   0.320  0.00  0.00    +0.000 C 
ATOM     30  C   UNL     1       4.478   0.633   0.055  0.00  0.00    +0.000 C 
ATOM     31  C   UNL     1       3.869   0.744  -1.356  0.00  0.00    +0.000 C 
ATOM     32  O   UNL     1       3.501   0.842   1.079  0.00  0.00    +0.000 OA
ATOM     33  C   UNL     1       2.679  -0.290   1.364  0.00  0.00    +0.000 C 
ATOM     34  C   UNL     1       3.491  -1.584   1.618  0.00  0.00    +0.000 C 
ATOM     35  C   UNL     1       4.462  -1.881   0.464  0.00  0.00    +0.000 C 
BRANCH  34  36
ATOM     36  O   UNL     1       2.673  -2.684   1.930  0.00  0.00    +0.000 OA
ATOM     37  H   UNL     1       2.041  -2.823   1.182  0.00  0.00    +0.000 HD
ENDBRANCH  34  36
BRANCH  35  38
ATOM     38  O   UNL     1       3.797  -2.154  -0.745  0.00  0.00    +0.000 OA
ATOM     39  H   UNL     1       3.297  -3.001  -0.631  0.00  0.00    +0.000 HD
ENDBRANCH  35  38
BRANCH  29  40
ATOM     40  O   UNL     1       6.320  -0.835  -0.693  0.00  0.00    +0.000 OA
BRANCH  40  43
ATOM     41  C   UNL     1       9.023   1.490  -0.061  0.00  0.00    +0.000 C 
ATOM     42  O   UNL     1       7.788   0.958  -0.570  0.00  0.00    +0.000 OA
ATOM     43  C   UNL     1       7.616  -0.415  -0.282  0.00  0.00    +0.000 C 
ATOM     44  C   UNL     1       8.686  -1.274  -1.007  0.00  0.00    +0.000 C 
ATOM     45  C   UNL     1      10.080  -0.579  -0.976  0.00  0.00    +0.000 C 
ATOM     46  C   UNL     1      10.159   0.434   0.180  0.00  0.00    +0.000 C 
BRANCH  41  48
ATOM     47  C   UNL     1       9.692   3.686  -0.485  0.00  0.00    +0.000 C 
ATOM     48  O   UNL     1       9.497   2.402  -1.040  0.00  0.00    +0.000 OA
ENDBRANCH  41  48
BRANCH  44  49
ATOM     49  O   UNL     1       8.714  -2.565  -0.442  0.00  0.00    +0.000 OA
ATOM     50  H   UNL     1       8.998  -2.481   0.507  0.00  0.00    +0.000 HD
ENDBRANCH  44  49
BRANCH  45  51
ATOM     51  O   UNL     1      11.141  -1.501  -0.996  0.00  0.00    +0.000 OA
ATOM     52  H   UNL     1      11.229  -1.887  -0.084  0.00  0.00    +0.000 HD
ENDBRANCH  45  51
BRANCH  46  53
ATOM     53  O   UNL     1      10.005  -0.226   1.411  0.00  0.00    +0.000 OA
ATOM     54  H   UNL     1      10.201   0.441   2.120  0.00  0.00    +0.000 HD
ENDBRANCH  46  53
ENDBRANCH  40  43
ENDBRANCH  29  40
ENDBRANCH   1  33
TORSDOF 12
