REMARK  Name = 
REMARK  17 active torsions:
REMARK  status: ('A' for Active; 'I' for Inactive)
REMARK    1  A    between atoms: C_1  and  C_2
REMARK    2  A    between atoms: C_17  and  O_18
REMARK    3  A    between atoms: O_18  and  C_19
REMARK    4  A    between atoms: C_21  and  C_22
REMARK    5  A    between atoms: C_22  and  O_23
REMARK    6  A    between atoms: C_24  and  O_25
REMARK    7  A    between atoms: C_26  and  O_27
REMARK    8  A    between atoms: O_27  and  C_28
REMARK    9  A    between atoms: C_30  and  C_31
REMARK   10  A    between atoms: C_31  and  O_32
REMARK   11  A    between atoms: C_33  and  O_34
REMARK   12  A    between atoms: C_35  and  O_36
REMARK   13  A    between atoms: C_37  and  O_38
REMARK   14  A    between atoms: C_39  and  O_40
REMARK   15  A    between atoms: C_43  and  C_44
REMARK   16  A    between atoms: C_49  and  C_50
REMARK   17  A    between atoms: C_52  and  C_53
REMARK                            x       y       z     vdW  Elec       q    Type
REMARK                         _______ _______ _______ _____ _____    ______ ____
ROOT
ATOM      1  C   UNL     1      11.329  -2.395  -1.919  0.00  0.00    +0.000 C 
ATOM      2  C   UNL     1      11.328  -1.434  -0.723  0.00  0.00    +0.000 C 
ATOM      3  C   UNL     1      10.674  -2.118   0.507  0.00  0.00    +0.000 C 
ATOM      4  C   UNL     1       9.762  -1.134   1.233  0.00  0.00    +0.000 C 
ATOM      5  C   UNL     1       8.680  -0.654   0.205  0.00  0.00    +0.000 C 
ATOM      6  O   UNL     1       9.210  -0.259  -1.075  0.00  0.00    +0.000 OA
ATOM      7  C   UNL     1      10.614  -0.105  -1.071  0.00  0.00    +0.000 C 
ATOM      8  O   UNL     1       7.770  -1.720  -0.024  0.00  0.00    +0.000 OA
ATOM      9  C   UNL     1       6.579  -1.101  -0.477  0.00  0.00    +0.000 C 
ATOM     10  C   UNL     1       5.270  -1.662   0.099  0.00  0.00    +0.000 C 
ATOM     11  C   UNL     1       4.358  -0.453  -0.144  0.00  0.00    +0.000 C 
ATOM     12  C   UNL     1       2.881  -0.458   0.325  0.00  0.00    +0.000 C 
ATOM     13  C   UNL     1       2.099  -1.607  -0.390  0.00  0.00    +0.000 C 
ATOM     14  C   UNL     1       0.578  -1.336  -0.534  0.00  0.00    +0.000 C 
ATOM     15  C   UNL     1       0.089  -0.506   0.655  0.00  0.00    +0.000 C 
ATOM     16  C   UNL     1      -1.457  -0.487   0.806  0.00  0.00    +0.000 C 
ATOM     17  C   UNL     1      -2.131   0.399  -0.242  0.00  0.00    +0.000 C 
ATOM     18  C   UNL     1      -1.617   1.841  -0.091  0.00  0.00    +0.000 C 
ATOM     19  C   UNL     1      -0.108   1.883  -0.348  0.00  0.00    +0.000 C 
ATOM     20  C   UNL     1       0.722   0.951   0.593  0.00  0.00    +0.000 C 
ATOM     21  C   UNL     1       0.695   1.505   2.046  0.00  0.00    +0.000 C 
ATOM     22  C   UNL     1       2.204   0.909  -0.009  0.00  0.00    +0.000 C 
ATOM     23  C   UNL     1       3.065   2.173   0.338  0.00  0.00    +0.000 C 
ATOM     24  C   UNL     1       4.509   1.967  -0.053  0.00  0.00    +0.000 C 
ATOM     25  O   UNL     1       5.080   2.750  -0.797  0.00  0.00    +0.000 OA
ATOM     26  C   UNL     1       5.173   0.708   0.456  0.00  0.00    +0.000 C 
ATOM     27  C   UNL     1       5.151   0.720   2.025  0.00  0.00    +0.000 C 
ATOM     28  C   UNL     1       6.600   0.391  -0.112  0.00  0.00    +0.000 C 
ATOM     29  C   UNL     1       7.813   0.457   0.804  0.00  0.00    +0.000 C 
ATOM     30  C   UNL     1       8.438   1.852   0.900  0.00  0.00    +0.000 C 
ENDROOT
BRANCH  17  31
ATOM     31  O   UNL     1      -3.544   0.370  -0.062  0.00  0.00    +0.000 OA
BRANCH  31  32
ATOM     32  C   UNL     1      -4.243   0.506  -1.294  0.00  0.00    +0.000 C 
ATOM     33  O   UNL     1      -5.075   1.668  -1.226  0.00  0.00    +0.000 OA
ATOM     34  C   UNL     1      -5.872   1.739  -2.396  0.00  0.00    +0.000 C 
ATOM     35  C   UNL     1      -7.000   0.656  -2.346  0.00  0.00    +0.000 C 
ATOM     36  C   UNL     1      -6.586  -0.544  -1.437  0.00  0.00    +0.000 C 
ATOM     37  C   UNL     1      -5.069  -0.806  -1.573  0.00  0.00    +0.000 C 
BRANCH  35  38
ATOM     38  O   UNL     1      -8.254   1.164  -1.966  0.00  0.00    +0.000 OA
ATOM     39  H   UNL     1      -8.149   1.599  -1.084  0.00  0.00    +0.000 HD
ENDBRANCH  35  38
BRANCH  37  40
ATOM     40  O   UNL     1      -4.753  -1.360  -2.830  0.00  0.00    +0.000 OA
ATOM     41  H   UNL     1      -4.953  -0.694  -3.532  0.00  0.00    +0.000 HD
ENDBRANCH  37  40
BRANCH  34  42
ATOM     42  C   UNL     1      -6.338   3.176  -2.679  0.00  0.00    +0.000 C 
BRANCH  42  43
ATOM     43  O   UNL     1      -7.086   3.688  -1.607  0.00  0.00    +0.000 OA
ATOM     44  H   UNL     1      -7.899   4.109  -1.993  0.00  0.00    +0.000 HD
ENDBRANCH  42  43
ENDBRANCH  34  42
BRANCH  36  45
ATOM     45  O   UNL     1      -6.829  -0.239  -0.065  0.00  0.00    +0.000 OA
BRANCH  45  46
ATOM     46  C   UNL     1      -7.937  -0.945   0.488  0.00  0.00    +0.000 C 
ATOM     47  O   UNL     1      -9.132  -0.217   0.269  0.00  0.00    +0.000 OA
ATOM     48  C   UNL     1     -10.276  -1.018   0.576  0.00  0.00    +0.000 C 
ATOM     49  C   UNL     1     -10.203  -1.652   2.020  0.00  0.00    +0.000 C 
ATOM     50  C   UNL     1      -9.020  -1.067   2.820  0.00  0.00    +0.000 C 
ATOM     51  C   UNL     1      -7.693  -1.121   2.009  0.00  0.00    +0.000 C 
BRANCH  49  52
ATOM     52  O   UNL     1     -10.130  -3.058   1.978  0.00  0.00    +0.000 OA
ATOM     53  H   UNL     1      -9.572  -3.337   1.213  0.00  0.00    +0.000 HD
ENDBRANCH  49  52
BRANCH  50  54
ATOM     54  O   UNL     1      -9.327   0.265   3.182  0.00  0.00    +0.000 OA
ATOM     55  H   UNL     1      -9.199   0.863   2.404  0.00  0.00    +0.000 HD
ENDBRANCH  50  54
BRANCH  51  56
ATOM     56  O   UNL     1      -6.953  -2.296   2.252  0.00  0.00    +0.000 OA
ATOM     57  H   UNL     1      -7.515  -3.075   2.011  0.00  0.00    +0.000 HD
ENDBRANCH  51  56
BRANCH  48  58
ATOM     58  C   UNL     1     -11.538  -0.156   0.413  0.00  0.00    +0.000 C 
BRANCH  58  59
ATOM     59  O   UNL     1     -11.646   0.313  -0.904  0.00  0.00    +0.000 OA
ATOM     60  H   UNL     1     -11.071   1.118  -0.973  0.00  0.00    +0.000 HD
ENDBRANCH  58  59
ENDBRANCH  48  58
ENDBRANCH  45  46
ENDBRANCH  36  45
ENDBRANCH  31  32
ENDBRANCH  17  31
TORSDOF 13
