REMARK  Name = 
REMARK  23 active torsions:
REMARK  status: ('A' for Active; 'I' for Inactive)
REMARK    1  A    between atoms: C_1  and  C_2
REMARK    2  A    between atoms: C_3  and  C_4
REMARK    3  A    between atoms: C_8  and  C_9
REMARK    4  A    between atoms: C_9  and  C_10
REMARK    5  A    between atoms: C_9  and  O_11
REMARK    6  A    between atoms: C_9  and  C_12
REMARK    7  A    between atoms: C_12  and  O_13
REMARK    8  A    between atoms: C_16  and  O_17
REMARK    9  A    between atoms: C_23  and  O_24
REMARK   10  A    between atoms: O_24  and  C_25
REMARK   11  A    between atoms: C_27  and  C_28
REMARK   12  A    between atoms: C_28  and  O_29
REMARK   13  A    between atoms: C_30  and  O_31
REMARK   14  A    between atoms: O_31  and  C_32
REMARK   15  A    between atoms: C_34  and  C_35
REMARK   16  A    between atoms: C_35  and  O_36
REMARK   17  A    between atoms: C_37  and  O_38
REMARK   18  A    between atoms: C_39  and  O_40
REMARK   19  A    between atoms: C_41  and  O_42
REMARK   20  A    between atoms: C_43  and  O_44
REMARK   21  A    between atoms: C_45  and  O_46
REMARK   22  A    between atoms: C_50  and  C_51
REMARK   23  A    between atoms: C_55  and  C_56
REMARK                            x       y       z     vdW  Elec       q    Type
REMARK                         _______ _______ _______ _____ _____    ______ ____
ROOT
ATOM      1  C   UNL     1       6.641  -0.082   0.363  0.00  0.00    +0.000 C 
ATOM      2  C   UNL     1       6.719  -1.323  -0.632  0.00  0.00    +0.000 C 
ATOM      3  C   UNL     1       5.336  -1.996  -0.676  0.00  0.00    +0.000 C 
ATOM      4  C   UNL     1       4.387  -0.812  -0.446  0.00  0.00    +0.000 C 
ATOM      5  C   UNL     1       2.898  -1.151  -0.135  0.00  0.00    +0.000 C 
ATOM      6  C   UNL     1       2.163  -1.796  -1.342  0.00  0.00    +0.000 C 
ATOM      7  C   UNL     1       0.659  -1.631  -1.337  0.00  0.00    +0.000 C 
ATOM      8  C   UNL     1      -0.038  -0.973  -0.381  0.00  0.00    +0.000 C 
ATOM      9  C   UNL     1      -1.482  -0.644  -0.690  0.00  0.00    +0.000 C 
ATOM     10  C   UNL     1      -2.271  -0.409   0.583  0.00  0.00    +0.000 C 
ATOM     11  C   UNL     1      -1.679   0.757   1.372  0.00  0.00    +0.000 C 
ATOM     12  C   UNL     1      -0.189   0.670   1.550  0.00  0.00    +0.000 C 
ATOM     13  O   UNL     1       0.294   1.383   2.414  0.00  0.00    +0.000 OA
ATOM     14  C   UNL     1       0.667  -0.405   0.861  0.00  0.00    +0.000 C 
ATOM     15  C   UNL     1       0.753  -1.547   1.917  0.00  0.00    +0.000 C 
ATOM     16  C   UNL     1       2.094   0.110   0.365  0.00  0.00    +0.000 C 
ATOM     17  C   UNL     1       2.871   0.951   1.427  0.00  0.00    +0.000 C 
ATOM     18  C   UNL     1       4.348   1.209   1.051  0.00  0.00    +0.000 C 
ATOM     19  C   UNL     1       5.085  -0.127   0.771  0.00  0.00    +0.000 C 
ATOM     20  C   UNL     1       4.976  -0.996   2.102  0.00  0.00    +0.000 C 
ENDROOT
BRANCH   1  21
ATOM     21  C   UNL     1       7.265   1.289  -0.243  0.00  0.00    +0.000 C 
ATOM     22  C   UNL     1       6.762   1.702  -1.658  0.00  0.00    +0.000 C 
BRANCH  21  30
ATOM     23  C   UNL     1      11.841  -0.145  -2.188  0.00  0.00    +0.000 C 
ATOM     24  C   UNL     1      11.051   0.283  -0.973  0.00  0.00    +0.000 C 
ATOM     25  C   UNL     1      11.595   0.712   0.206  0.00  0.00    +0.000 C 
ATOM     26  C   UNL     1      13.074   0.801   0.516  0.00  0.00    +0.000 C 
ATOM     27  C   UNL     1      10.658   1.134   1.288  0.00  0.00    +0.000 C 
ATOM     28  O   UNL     1      11.070   1.386   2.412  0.00  0.00    +0.000 OA
ATOM     29  O   UNL     1       9.335   1.254   1.021  0.00  0.00    +0.000 OA
ATOM     30  C   UNL     1       8.847   1.277  -0.276  0.00  0.00    +0.000 C 
ATOM     31  C   UNL     1       9.537   0.168  -1.086  0.00  0.00    +0.000 C 
ENDBRANCH  21  30
BRANCH  21  32
ATOM     32  O   UNL     1       6.907   2.324   0.647  0.00  0.00    +0.000 OA
ATOM     33  H   UNL     1       7.259   3.188   0.303  0.00  0.00    +0.000 HD
ENDBRANCH  21  32
ENDBRANCH   1  21
BRANCH   1  34
ATOM     34  O   UNL     1       7.379  -0.332   1.547  0.00  0.00    +0.000 OA
ATOM     35  H   UNL     1       8.113  -0.972   1.364  0.00  0.00    +0.000 HD
ENDBRANCH   1  34
BRANCH   4  36
ATOM     36  O   UNL     1       4.412   0.056  -1.558  0.00  0.00    +0.000 OA
ATOM     37  H   UNL     1       4.499  -0.473  -2.394  0.00  0.00    +0.000 HD
ENDBRANCH   4  36
BRANCH  10  38
ATOM     38  O   UNL     1      -3.588  -0.040   0.246  0.00  0.00    +0.000 OA
BRANCH  38  39
ATOM     39  C   UNL     1      -4.554  -1.069   0.303  0.00  0.00    +0.000 C 
ATOM     40  O   UNL     1      -5.274  -1.110  -0.929  0.00  0.00    +0.000 OA
ATOM     41  C   UNL     1      -5.996   0.095  -1.216  0.00  0.00    +0.000 C 
ATOM     42  C   UNL     1      -6.949   0.509  -0.063  0.00  0.00    +0.000 C 
ATOM     43  C   UNL     1      -6.223   0.527   1.301  0.00  0.00    +0.000 C 
ATOM     44  C   UNL     1      -5.500  -0.820   1.504  0.00  0.00    +0.000 C 
BRANCH  43  45
ATOM     45  O   UNL     1      -5.279   1.568   1.361  0.00  0.00    +0.000 OA
ATOM     46  H   UNL     1      -5.750   2.418   1.162  0.00  0.00    +0.000 HD
ENDBRANCH  43  45
BRANCH  44  47
ATOM     47  O   UNL     1      -6.427  -1.867   1.689  0.00  0.00    +0.000 OA
ATOM     48  H   UNL     1      -6.572  -2.347   0.834  0.00  0.00    +0.000 HD
ENDBRANCH  44  47
BRANCH  41  49
ATOM     49  C   UNL     1      -5.101   1.237  -1.756  0.00  0.00    +0.000 C 
BRANCH  49  50
ATOM     50  O   UNL     1      -4.391   0.809  -2.887  0.00  0.00    +0.000 OA
ATOM     51  H   UNL     1      -3.665   0.217  -2.562  0.00  0.00    +0.000 HD
ENDBRANCH  49  50
ENDBRANCH  41  49
BRANCH  42  52
ATOM     52  O   UNL     1      -8.010  -0.436  -0.009  0.00  0.00    +0.000 OA
BRANCH  52  53
ATOM     53  C   UNL     1      -9.273   0.105  -0.374  0.00  0.00    +0.000 C 
ATOM     54  O   UNL     1     -10.068   0.191   0.799  0.00  0.00    +0.000 OA
ATOM     55  C   UNL     1     -11.327   0.789   0.527  0.00  0.00    +0.000 C 
ATOM     56  C   UNL     1     -12.141  -0.106  -0.450  0.00  0.00    +0.000 C 
ATOM     57  C   UNL     1     -11.335  -0.313  -1.746  0.00  0.00    +0.000 C 
ATOM     58  C   UNL     1      -9.931  -0.842  -1.397  0.00  0.00    +0.000 C 
BRANCH  56  59
ATOM     59  O   UNL     1     -13.403   0.442  -0.740  0.00  0.00    +0.000 OA
ATOM     60  H   UNL     1     -13.255   1.340  -1.138  0.00  0.00    +0.000 HD
ENDBRANCH  56  59
BRANCH  57  61
ATOM     61  O   UNL     1     -12.001  -1.175  -2.633  0.00  0.00    +0.000 OA
ATOM     62  H   UNL     1     -12.083  -2.058  -2.188  0.00  0.00    +0.000 HD
ENDBRANCH  57  61
BRANCH  58  63
ATOM     63  O   UNL     1      -9.143  -0.971  -2.555  0.00  0.00    +0.000 OA
ATOM     64  H   UNL     1      -9.044  -0.068  -2.955  0.00  0.00    +0.000 HD
ENDBRANCH  58  63
BRANCH  55  65
ATOM     65  C   UNL     1     -12.054   0.972   1.869  0.00  0.00    +0.000 C 
BRANCH  65  66
ATOM     66  O   UNL     1     -13.293   1.609   1.705  0.00  0.00    +0.000 OA
ATOM     67  H   UNL     1     -13.098   2.568   1.535  0.00  0.00    +0.000 HD
ENDBRANCH  65  66
ENDBRANCH  55  65
ENDBRANCH  52  53
ENDBRANCH  42  52
ENDBRANCH  38  39
ENDBRANCH  10  38
TORSDOF 18
