REMARK SMILES C[C@@H]1CC[C@@]2(OC1)O[C@H]1C[C@H]3[C@@H]4CC=C5C[C@@H](O[C@@H]6O[C@H](CO)[C@@H](O[C@@H]7O[C@@H](CO)[C@H](O)[C@H]7O[C@@H]7O[C@@H](C)[C@H](O)[C@@H](O)[C@H]7O)[C@H](O)[C@H]6O)CC[C@]5(C)[C@H]4CC[C@]3(C)[C@@]1(O)[C@@H]2C
REMARK SMILES IDX 25 1 24 2 19 3 20 4 47 5 21 6 45 7 18 8 17 9 2 10 3 11 7 12
REMARK SMILES IDX 4 13 6 14 5 15 8 16 60 17 9 18 58 19 10 20 56 21 11 22 55 23
REMARK SMILES IDX 12 24 54 25 13 26 53 27 14 28 51 29 15 30 50 31 16 32 49 33
REMARK SMILES IDX 1 34 61 35 57 36 52 37 59 38 48 40 22 42 23 43 46 45 26 47
REMARK SMILES IDX 27 48 33 49 28 50 31 51 34 52 35 53 36 54 43 55 37 56 41 57
REMARK SMILES IDX 39 58 38 59 44 60 42 62 40 64 29 66 30 67 32 69
REMARK H PARENT 59 39 48 41 23 44 46 46 44 61 42 63 40 65 30 68 32 70
ROOT
ATOM      1  O   UNL     1      -5.697   0.237  -0.043  1.00  0.00    -0.341 OA
ENDROOT
BRANCH   1   2
ATOM      2  C   UNL     1      -5.472  -0.387  -1.299  1.00  0.00     0.184 C 
ATOM      3  C   UNL     1      -2.795   0.186  -0.924  1.00  0.00     0.282 C 
ATOM      4  O   UNL     1      -3.060  -1.121  -1.389  1.00  0.00    -0.341 OA
ATOM      5  C   UNL     1      -3.571   1.227  -1.779  1.00  0.00     0.202 C 
ATOM      6  C   UNL     1      -4.408  -1.532  -1.121  1.00  0.00     0.178 C 
ATOM      7  C   UNL     1      -4.933   0.659  -2.290  1.00  0.00     0.180 C 
BRANCH   3   8
ATOM      8  O   UNL     1      -1.408   0.441  -1.078  1.00  0.00    -0.346 OA
BRANCH   8   9
ATOM      9  C   UNL     1      -0.750   0.902   0.094  1.00  0.00     0.125 C 
ATOM     10  C   UNL     1      12.995  -0.212   1.259  1.00  0.00     0.012 C 
ATOM     11  C   UNL     1      12.609  -0.482  -0.217  1.00  0.00     0.011 C 
ATOM     12  C   UNL     1      11.800   0.408   2.025  1.00  0.00     0.167 C 
ATOM     13  C   UNL     1      11.498   0.477  -0.648  1.00  0.00     0.067 C 
ATOM     14  O   UNL     1      10.587  -0.177   1.599  1.00  0.00    -0.349 OA
ATOM     15  C   UNL     1      10.238   0.264   0.273  1.00  0.00     0.174 C 
ATOM     16  O   UNL     1       9.500   1.478   0.352  1.00  0.00    -0.343 OA
ATOM     17  C   UNL     1       9.230  -0.730  -0.349  1.00  0.00     0.081 C 
ATOM     18  C   UNL     1       8.229   1.092   0.838  1.00  0.00     0.155 C 
ATOM     19  C   UNL     1       7.933  -0.361   0.397  1.00  0.00     0.104 C 
ATOM     20  C   UNL     1       7.042   1.963   0.386  1.00  0.00     0.040 C 
ATOM     21  C   UNL     1       6.568  -0.250  -0.398  1.00  0.00     0.003 C 
ATOM     22  C   UNL     1       5.916   0.920   0.364  1.00  0.00     0.004 C 
ATOM     23  C   UNL     1       5.626  -1.477  -0.290  1.00  0.00     0.010 C 
ATOM     24  C   UNL     1       4.516   1.316  -0.181  1.00  0.00     0.000 C 
ATOM     25  C   UNL     1       4.235  -1.159  -0.873  1.00  0.00     0.005 C 
ATOM     26  C   UNL     1       3.913   2.418   0.712  1.00  0.00     0.031 C 
ATOM     27  C   UNL     1       3.576   0.076  -0.167  1.00  0.00     0.003 C 
ATOM     28  C   UNL     1       2.437   2.623   0.507  1.00  0.00    -0.027 C 
ATOM     29  C   UNL     1       2.147   0.436  -0.753  1.00  0.00    -0.008 C 
ATOM     30  C   UNL     1       1.640   1.771  -0.175  1.00  0.00    -0.065 C 
ATOM     31  C   UNL     1       1.130  -0.710  -0.361  1.00  0.00     0.014 C 
ATOM     32  C   UNL     1       0.159   2.096  -0.306  1.00  0.00     0.063 C 
ATOM     33  C   UNL     1       0.074  -0.267   0.675  1.00  0.00     0.033 C 
ATOM     34  C   UNL     1      14.212   0.715   1.371  1.00  0.00     0.010 C 
ATOM     35  C   UNL     1       9.569  -2.228  -0.364  1.00  0.00     0.016 C 
ATOM     36  C   UNL     1       6.803   0.077  -1.920  1.00  0.00     0.015 C 
ATOM     37  C   UNL     1       2.162   0.594  -2.296  1.00  0.00     0.016 C 
BRANCH  19  38
ATOM     38  O   UNL     1       7.787  -1.100   1.594  1.00  0.00    -0.386 OA
ATOM     39  H   UNL     1       7.626  -2.048   1.356  1.00  0.00     0.211 HD
ENDBRANCH  19  38
ENDBRANCH   8   9
ENDBRANCH   3   8
BRANCH   5  40
ATOM     40  O   UNL     1      -3.721   2.426  -1.059  1.00  0.00    -0.385 OA
ATOM     41  H   UNL     1      -4.280   2.240  -0.262  1.00  0.00     0.211 HD
ENDBRANCH   5  40
BRANCH   6  42
ATOM     42  C   UNL     1      -4.707  -2.733  -2.042  1.00  0.00     0.191 C 
BRANCH  42  43
ATOM     43  O   UNL     1      -5.983  -3.263  -1.791  1.00  0.00    -0.394 OA
ATOM     44  H   UNL     1      -5.928  -3.744  -0.924  1.00  0.00     0.210 HD
ENDBRANCH  42  43
ENDBRANCH   6  42
BRANCH   7  45
ATOM     45  O   UNL     1      -4.806   0.069  -3.566  1.00  0.00    -0.387 OA
ATOM     46  H   UNL     1      -3.905  -0.336  -3.660  1.00  0.00     0.211 HD
ENDBRANCH   7  45
ENDBRANCH   1   2
BRANCH   1  47
ATOM     47  C   UNL     1      -7.066   0.547   0.203  1.00  0.00     0.282 C 
ATOM     48  O   UNL     1      -7.169   1.946   0.438  1.00  0.00    -0.341 OA
ATOM     49  C   UNL     1      -7.529  -0.183   1.471  1.00  0.00     0.209 C 
ATOM     50  C   UNL     1      -7.241   2.131   1.841  1.00  0.00     0.178 C 
ATOM     51  C   UNL     1      -6.973   0.755   2.510  1.00  0.00     0.180 C 
BRANCH  49  52
ATOM     52  O   UNL     1      -8.940  -0.188   1.577  1.00  0.00    -0.338 OA
BRANCH  52  53
ATOM     53  C   UNL     1      -9.547  -1.376   1.100  1.00  0.00     0.282 C 
ATOM     54  O   UNL     1      -9.915  -1.231  -0.278  1.00  0.00    -0.344 OA
ATOM     55  C   UNL     1     -10.738  -1.717   2.053  1.00  0.00     0.202 C 
ATOM     56  C   UNL     1     -11.247  -0.782  -0.427  1.00  0.00     0.150 C 
ATOM     57  C   UNL     1     -11.728  -2.629   1.313  1.00  0.00     0.179 C 
ATOM     58  C   UNL     1     -12.265  -1.860   0.064  1.00  0.00     0.174 C 
ATOM     59  C   UNL     1     -11.511  -0.406  -1.883  1.00  0.00     0.041 C 
BRANCH  55  60
ATOM     60  O   UNL     1     -10.292  -2.268   3.267  1.00  0.00    -0.385 OA
ATOM     61  H   UNL     1      -9.846  -3.132   3.063  1.00  0.00     0.211 HD
ENDBRANCH  55  60
BRANCH  57  62
ATOM     62  O   UNL     1     -11.097  -3.840   0.954  1.00  0.00    -0.387 OA
ATOM     63  H   UNL     1     -10.576  -3.704   0.121  1.00  0.00     0.211 HD
ENDBRANCH  57  62
BRANCH  58  64
ATOM     64  O   UNL     1     -13.499  -1.241   0.335  1.00  0.00    -0.388 OA
ATOM     65  H   UNL     1     -13.377  -0.644   1.117  1.00  0.00     0.211 HD
ENDBRANCH  58  64
ENDBRANCH  52  53
ENDBRANCH  49  52
BRANCH  50  66
ATOM     66  C   UNL     1      -8.572   2.829   2.217  1.00  0.00     0.191 C 
BRANCH  66  67
ATOM     67  O   UNL     1      -9.717   2.162   1.765  1.00  0.00    -0.394 OA
ATOM     68  H   UNL     1      -9.803   2.361   0.795  1.00  0.00     0.210 HD
ENDBRANCH  66  67
ENDBRANCH  50  66
BRANCH  51  69
ATOM     69  O   UNL     1      -5.591   0.472   2.642  1.00  0.00    -0.387 OA
ATOM     70  H   UNL     1      -5.040   1.266   2.423  1.00  0.00     0.211 HD
ENDBRANCH  51  69
ENDBRANCH   1  47
TORSDOF 17
