REMARK SMILES C[C@@H]1O[C@@H](O[C@H]2CC[C@@H](O[C@@]3(C)CC(=O)[C@]4(O)C5=C(C=C[C@]4(O)C3)C(=O)c3c(ccc([C@@H]4C[C@H]6O[C@H]7CC(=O)[C@@H](C)O[C@@H]7O[C@@H]6[C@H](C)O4)c3O)C5=O)O[C@@H]2C)C=CC1=O
REMARK SMILES IDX 6 1 7 2 8 3 9 4 53 5 54 6 55 7 5 8 4 9 2 10 3 11 58 12 57 13
REMARK SMILES IDX 59 14 56 15 1 16 10 17 11 18 13 19 24 20 14 21 22 22 15 23
REMARK SMILES IDX 16 24 21 25 18 26 20 27 19 28 51 29 25 30 28 31 52 32 26 33
REMARK SMILES IDX 27 34 29 35 49 36 30 37 31 38 12 39 23 40 17 42 50 44 32 46
REMARK SMILES IDX 33 47 48 48 34 49 46 50 35 51 45 52 36 53 44 54 37 55 43 56
REMARK SMILES IDX 38 57 42 58 39 59 40 60 47 61 41 62
REMARK H PARENT 23 41 17 43 50 45
ROOT
ATOM      1  C   UNL     1       8.662   0.120   0.018  1.00  0.00     0.150 C 
ATOM      2  C   UNL     1       8.844  -0.076  -1.485  1.00  0.00     0.040 C 
ATOM      3  C   UNL     1       7.622   0.479  -2.245  1.00  0.00     0.065 C 
ATOM      4  C   UNL     1       6.333   0.381  -1.395  1.00  0.00     0.251 C 
ATOM      5  O   UNL     1       6.375  -0.767  -0.577  1.00  0.00    -0.347 OA
ATOM      6  C   UNL     1       7.387  -0.692   0.430  1.00  0.00     0.147 C 
ATOM      7  C   UNL     1       6.796  -0.198   1.750  1.00  0.00     0.041 C 
ENDROOT
BRANCH   1   8
ATOM      8  O   UNL     1       9.787  -0.430   0.689  1.00  0.00    -0.343 OA
BRANCH   8   9
ATOM      9  C   UNL     1      10.379   0.424   1.651  1.00  0.00     0.275 C 
ATOM     10  C   UNL     1      12.623  -0.156   1.272  1.00  0.00     0.189 C 
ATOM     11  O   UNL     1      11.656   0.874   1.184  1.00  0.00    -0.338 OA
ATOM     12  C   UNL     1      12.828  -0.508   2.724  1.00  0.00     0.184 C 
ATOM     13  C   UNL     1      11.612  -0.705   3.514  1.00  0.00     0.051 C 
ATOM     14  O   UNL     1      13.934  -0.649   3.222  1.00  0.00    -0.292 OA
ATOM     15  C   UNL     1      10.446  -0.306   2.993  1.00  0.00     0.038 C 
ATOM     16  C   UNL     1      13.919   0.275   0.585  1.00  0.00     0.048 C 
ENDBRANCH   8   9
ENDBRANCH   1   8
BRANCH   4  17
ATOM     17  O   UNL     1       5.216   0.272  -2.266  1.00  0.00    -0.346 OA
BRANCH  17  18
ATOM     18  C   UNL     1       4.181   1.246  -2.121  1.00  0.00     0.079 C 
ATOM     19  C   UNL     1       3.096   0.884  -3.194  1.00  0.00     0.114 C 
ATOM     20  C   UNL     1       3.532   1.250  -0.692  1.00  0.00     0.079 C 
ATOM     21  C   UNL     1       1.741   0.680  -2.577  1.00  0.00     0.175 C 
ATOM     22  C   UNL     1       2.713  -0.037  -0.348  1.00  0.00     0.126 C 
ATOM     23  O   UNL     1       0.802   1.383  -2.925  1.00  0.00    -0.296 OA
ATOM     24  C   UNL     1       1.607  -0.369  -1.463  1.00  0.00     0.185 C 
ATOM     25  C   UNL     1       2.132   0.207   1.033  1.00  0.00     0.012 C 
ATOM     26  C   UNL     1       0.143  -0.424  -0.963  1.00  0.00     0.054 C 
ATOM     27  C   UNL     1       0.839   0.166   1.323  1.00  0.00     0.011 C 
ATOM     28  C   UNL     1      -0.192  -0.158   0.322  1.00  0.00     0.033 C 
ATOM     29  C   UNL     1      -0.947  -0.801  -1.927  1.00  0.00     0.194 C 
ATOM     30  C   UNL     1      -1.614  -0.198   0.776  1.00  0.00     0.198 C 
ATOM     31  C   UNL     1      -2.365  -0.873  -1.492  1.00  0.00     0.037 A 
ATOM     32  O   UNL     1      -0.670  -1.057  -3.090  1.00  0.00    -0.289 OA
ATOM     33  O   UNL     1      -1.874   0.066   1.942  1.00  0.00    -0.288 OA
ATOM     34  C   UNL     1      -2.709  -0.561  -0.167  1.00  0.00     0.076 A 
ATOM     35  C   UNL     1      -3.366  -1.251  -2.399  1.00  0.00     0.013 A 
ATOM     36  C   UNL     1      -4.068  -0.603   0.239  1.00  0.00     0.133 A 
ATOM     37  C   UNL     1      -4.698  -1.312  -2.002  1.00  0.00     0.011 A 
ATOM     38  C   UNL     1      -5.076  -0.980  -0.693  1.00  0.00     0.023 A 
ATOM     39  C   UNL     1       4.716   2.665  -2.446  1.00  0.00     0.043 C 
BRANCH  22  40
ATOM     40  O   UNL     1       3.600  -1.131  -0.266  1.00  0.00    -0.382 OA
ATOM     41  H   UNL     1       4.165  -1.031   0.544  1.00  0.00     0.212 HD
ENDBRANCH  22  40
BRANCH  24  42
ATOM     42  O   UNL     1       1.907  -1.655  -1.979  1.00  0.00    -0.374 OA
ATOM     43  H   UNL     1       1.675  -1.706  -2.942  1.00  0.00     0.212 HD
ENDBRANCH  24  42
BRANCH  36  44
ATOM     44  O   UNL     1      -4.376  -0.289   1.520  1.00  0.00    -0.507 OA
ATOM     45  H   UNL     1      -5.263  -0.298   1.898  1.00  0.00     0.293 HD
ENDBRANCH  36  44
BRANCH  38  46
ATOM     46  C   UNL     1      -6.552  -1.026  -0.331  1.00  0.00     0.155 C 
ATOM     47  C   UNL     1      -7.093   0.416  -0.143  1.00  0.00     0.072 C 
ATOM     48  O   UNL     1      -6.751  -1.853   0.803  1.00  0.00    -0.368 OA
ATOM     49  C   UNL     1      -8.492   0.443   0.501  1.00  0.00     0.153 C 
ATOM     50  C   UNL     1      -8.112  -1.935   1.245  1.00  0.00     0.147 C 
ATOM     51  O   UNL     1      -9.332   1.326  -0.211  1.00  0.00    -0.366 OA
ATOM     52  C   UNL     1      -9.103  -0.962   0.523  1.00  0.00     0.179 C 
ATOM     53  C   UNL     1     -10.607   1.361   0.400  1.00  0.00     0.182 C 
ATOM     54  O   UNL     1     -10.354  -0.940   1.186  1.00  0.00    -0.341 OA
ATOM     55  C   UNL     1     -11.530   2.218  -0.458  1.00  0.00     0.116 C 
ATOM     56  C   UNL     1     -11.244  -0.040   0.547  1.00  0.00     0.280 C 
ATOM     57  C   UNL     1     -12.965   2.041  -0.062  1.00  0.00     0.164 C 
ATOM     58  O   UNL     1     -12.379   0.090   1.389  1.00  0.00    -0.339 OA
ATOM     59  O   UNL     1     -13.803   2.779  -0.560  1.00  0.00    -0.297 OA
ATOM     60  C   UNL     1     -13.414   0.931   0.881  1.00  0.00     0.185 C 
ATOM     61  C   UNL     1      -8.103  -1.730   2.768  1.00  0.00     0.041 C 
ATOM     62  C   UNL     1     -14.486   0.056   0.230  1.00  0.00     0.047 C 
ENDBRANCH  38  46
ENDBRANCH  17  18
ENDBRANCH   4  17
TORSDOF 8
