REMARK SMILES C[C@H]1[C@H](C)CC[C@]2(C(=O)O[C@@H]3O[C@H](CO)[C@@H](O)[C@H](O)[C@H]3O)CCC3=C(CC[C@@H]4[C@@]5(C)CC[C@H](O[C@@H]6O[C@H](C)[C@H](O[C@@H]7O[C@H](CO)[C@@H](O)[C@H](O)[C@H]7O)[C@H](O)[C@H]6O)C(C)(C)[C@@H]5CC[C@@]34C)[C@H]12
REMARK SMILES IDX 1 1 2 2 3 3 4 4 5 5 6 6 7 7 22 8 23 9 24 10 25 11 26 12
REMARK SMILES IDX 27 13 28 14 29 15 30 16 31 17 32 18 33 19 56 20 57 21 58 22
REMARK SMILES IDX 59 23 60 24 61 25 62 26 63 27 64 28 8 29 9 30 10 31 11 32
REMARK SMILES IDX 12 33 20 34 13 35 18 36 16 37 21 38 14 40 15 41 19 43 17 45
REMARK SMILES IDX 34 47 35 48 36 49 54 50 37 51 52 52 39 53 38 54 55 55 53 57
REMARK SMILES IDX 40 59 41 60 42 61 50 62 43 63 48 64 46 65 51 66 44 68 45 69
REMARK SMILES IDX 49 71 47 73
REMARK H PARENT 21 39 15 42 19 44 17 46 55 56 53 58 51 67 45 70 49 72 47 74
ROOT
ATOM      1  C   UNL     1      -7.061   2.021   1.549  1.00  0.00     0.008 C 
ATOM      2  C   UNL     1      -5.735   1.232   1.512  1.00  0.00    -0.003 C 
ATOM      3  C   UNL     1      -5.986  -0.221   2.040  1.00  0.00    -0.011 C 
ATOM      4  C   UNL     1      -5.942  -0.252   3.577  1.00  0.00     0.008 C 
ATOM      5  C   UNL     1      -4.971  -1.198   1.460  1.00  0.00     0.005 C 
ATOM      6  C   UNL     1      -5.091  -1.303  -0.072  1.00  0.00     0.020 C 
ATOM      7  C   UNL     1      -5.398   0.054  -0.822  1.00  0.00     0.075 C 
ATOM      8  C   UNL     1      -4.589   0.065  -2.173  1.00  0.00     0.024 C 
ATOM      9  C   UNL     1      -3.959   1.439  -2.425  1.00  0.00     0.033 C 
ATOM     10  C   UNL     1      -3.007   1.703  -1.243  1.00  0.00    -0.064 C 
ATOM     11  C   UNL     1      -3.547   1.607   0.017  1.00  0.00    -0.066 C 
ATOM     12  C   UNL     1      -2.708   1.786   1.281  1.00  0.00     0.031 C 
ATOM     13  C   UNL     1      -1.242   2.142   1.056  1.00  0.00     0.009 C 
ATOM     14  C   UNL     1      -0.706   1.437  -0.201  1.00  0.00     0.005 C 
ATOM     15  C   UNL     1       0.881   1.396  -0.308  1.00  0.00    -0.025 C 
ATOM     16  C   UNL     1       1.477   2.832  -0.160  1.00  0.00     0.012 C 
ATOM     17  C   UNL     1       1.461   0.520   0.855  1.00  0.00     0.010 C 
ATOM     18  C   UNL     1       2.966   0.210   0.689  1.00  0.00     0.033 C 
ATOM     19  C   UNL     1       3.233  -0.540  -0.631  1.00  0.00     0.127 C 
ATOM     20  C   UNL     1       2.739   0.254  -1.884  1.00  0.00    -0.006 C 
ATOM     21  C   UNL     1       2.868  -0.708  -3.102  1.00  0.00     0.014 C 
ATOM     22  C   UNL     1       3.661   1.465  -2.208  1.00  0.00     0.014 C 
ATOM     23  C   UNL     1       1.226   0.637  -1.656  1.00  0.00     0.003 C 
ATOM     24  C   UNL     1       0.556   1.331  -2.863  1.00  0.00     0.006 C 
ATOM     25  C   UNL     1      -0.967   1.263  -2.719  1.00  0.00     0.012 C 
ATOM     26  C   UNL     1      -1.504   1.992  -1.460  1.00  0.00    -0.008 C 
ATOM     27  C   UNL     1      -1.435   3.524  -1.727  1.00  0.00     0.016 C 
ATOM     28  C   UNL     1      -5.051   1.299   0.085  1.00  0.00     0.035 C 
ENDROOT
BRANCH   7  29
ATOM     29  C   UNL     1      -6.881   0.192  -1.165  1.00  0.00     0.315 C 
ATOM     30  O   UNL     1      -7.255   1.156  -1.823  1.00  0.00    -0.252 OA
BRANCH  29  31
ATOM     31  O   UNL     1      -7.785  -0.706  -0.697  1.00  0.00    -0.432 OA
BRANCH  31  32
ATOM     32  C   UNL     1      -9.157  -0.617  -0.839  1.00  0.00     0.342 C 
ATOM     33  O   UNL     1      -9.686  -0.235   0.418  1.00  0.00    -0.332 OA
ATOM     34  C   UNL     1      -9.706  -1.998  -1.251  1.00  0.00     0.214 C 
ATOM     35  C   UNL     1     -11.088  -0.049   0.348  1.00  0.00     0.179 C 
ATOM     36  C   UNL     1     -11.247  -1.953  -1.288  1.00  0.00     0.180 C 
ATOM     37  C   UNL     1     -11.779  -1.404   0.054  1.00  0.00     0.177 C 
BRANCH  34  38
ATOM     38  O   UNL     1      -9.180  -2.412  -2.487  1.00  0.00    -0.384 OA
ATOM     39  H   UNL     1      -9.444  -1.737  -3.166  1.00  0.00     0.211 HD
ENDBRANCH  34  38
BRANCH  35  40
ATOM     40  C   UNL     1     -11.553   0.572   1.672  1.00  0.00     0.191 C 
BRANCH  40  41
ATOM     41  O   UNL     1     -11.181  -0.228   2.764  1.00  0.00    -0.394 OA
ATOM     42  H   UNL     1     -11.922  -0.870   2.917  1.00  0.00     0.210 HD
ENDBRANCH  40  41
ENDBRANCH  35  40
BRANCH  36  43
ATOM     43  O   UNL     1     -11.790  -3.218  -1.574  1.00  0.00    -0.387 OA
ATOM     44  H   UNL     1     -11.509  -3.835  -0.848  1.00  0.00     0.211 HD
ENDBRANCH  36  43
BRANCH  37  45
ATOM     45  O   UNL     1     -13.179  -1.279   0.024  1.00  0.00    -0.387 OA
ATOM     46  H   UNL     1     -13.406  -0.613  -0.677  1.00  0.00     0.211 HD
ENDBRANCH  37  45
ENDBRANCH  31  32
ENDBRANCH  29  31
ENDBRANCH   7  29
BRANCH  19  47
ATOM     47  O   UNL     1       4.615  -0.741  -0.800  1.00  0.00    -0.346 OA
BRANCH  47  48
ATOM     48  C   UNL     1       5.149  -1.918  -0.239  1.00  0.00     0.282 C 
ATOM     49  O   UNL     1       5.782  -1.526   0.974  1.00  0.00    -0.344 OA
ATOM     50  C   UNL     1       6.137  -2.431  -1.331  1.00  0.00     0.202 C 
ATOM     51  C   UNL     1       6.709  -2.483   1.456  1.00  0.00     0.150 C 
ATOM     52  C   UNL     1       7.238  -3.347  -0.770  1.00  0.00     0.180 C 
ATOM     53  C   UNL     1       7.863  -2.635   0.442  1.00  0.00     0.181 C 
ATOM     54  C   UNL     1       7.205  -2.029   2.827  1.00  0.00     0.041 C 
BRANCH  50  55
ATOM     55  O   UNL     1       5.453  -3.033  -2.399  1.00  0.00    -0.385 OA
ATOM     56  H   UNL     1       4.984  -3.829  -2.037  1.00  0.00     0.211 HD
ENDBRANCH  50  55
BRANCH  52  57
ATOM     57  O   UNL     1       8.202  -3.649  -1.749  1.00  0.00    -0.387 OA
ATOM     58  H   UNL     1       8.578  -2.796  -2.088  1.00  0.00     0.211 HD
ENDBRANCH  52  57
BRANCH  53  59
ATOM     59  O   UNL     1       8.269  -1.336   0.032  1.00  0.00    -0.341 OA
BRANCH  59  60
ATOM     60  C   UNL     1       9.606  -0.992   0.292  1.00  0.00     0.282 C 
ATOM     61  O   UNL     1       9.683  -0.486   1.613  1.00  0.00    -0.341 OA
ATOM     62  C   UNL     1       9.938   0.126  -0.726  1.00  0.00     0.202 C 
ATOM     63  C   UNL     1      10.982  -0.021   1.940  1.00  0.00     0.178 C 
ATOM     64  C   UNL     1      11.317   0.731  -0.439  1.00  0.00     0.179 C 
ATOM     65  C   UNL     1      11.367   1.179   1.032  1.00  0.00     0.177 C 
BRANCH  62  66
ATOM     66  O   UNL     1       9.852  -0.342  -2.049  1.00  0.00    -0.385 OA
ATOM     67  H   UNL     1      10.521  -1.069  -2.152  1.00  0.00     0.211 HD
ENDBRANCH  62  66
BRANCH  63  68
ATOM     68  C   UNL     1      10.950   0.386   3.422  1.00  0.00     0.191 C 
BRANCH  68  69
ATOM     69  O   UNL     1      12.206   0.832   3.866  1.00  0.00    -0.394 OA
ATOM     70  H   UNL     1      12.768   0.025   3.975  1.00  0.00     0.210 HD
ENDBRANCH  68  69
ENDBRANCH  63  68
BRANCH  64  71
ATOM     71  O   UNL     1      11.592   1.804  -1.308  1.00  0.00    -0.387 OA
ATOM     72  H   UNL     1      10.892   2.495  -1.167  1.00  0.00     0.211 HD
ENDBRANCH  64  71
BRANCH  65  73
ATOM     73  O   UNL     1      12.635   1.695   1.343  1.00  0.00    -0.387 OA
ATOM     74  H   UNL     1      13.294   0.962   1.228  1.00  0.00     0.211 HD
ENDBRANCH  65  73
ENDBRANCH  59  60
ENDBRANCH  53  59
ENDBRANCH  47  48
ENDBRANCH  19  47
TORSDOF 19
