REMARK SMILES C[C@@H]1CC[C@@]2(OC1)O[C@H]1C[C@H]3[C@@H]4CC=C5C[C@@H](O[C@@H]6O[C@H](CO)[C@H](O[C@@H]7O[C@H](CO)[C@@H](O)[C@H](O)[C@H]7O)[C@H](O)[C@H]6O)CC[C@]5(C)[C@H]4CC[C@]3(C)[C@@]1(O)[C@@H]2C
REMARK SMILES IDX 19 1 20 2 21 3 24 4 37 5 39 6 18 7 17 8 2 9 3 10 7 11 4 12
REMARK SMILES IDX 6 13 5 14 8 15 52 16 9 17 50 18 10 19 48 20 11 21 47 22
REMARK SMILES IDX 12 23 46 24 13 25 45 26 14 27 43 28 15 29 42 30 16 31 41 32
REMARK SMILES IDX 1 33 53 34 49 35 44 36 51 37 40 39 22 41 23 42 38 44 25 46
REMARK SMILES IDX 26 47 27 48 35 49 28 50 33 51 31 52 36 53 29 55 30 56 34 58
REMARK SMILES IDX 32 60
REMARK H PARENT 51 38 40 40 23 43 38 45 36 54 30 57 34 59 32 61
ROOT
ATOM      1  C   UNL     1      -3.999  -0.351   1.471  1.00  0.00     0.282 C 
ATOM      2  O   UNL     1      -4.829  -1.442   1.100  1.00  0.00    -0.341 OA
ATOM      3  C   UNL     1      -5.832  -1.716   2.065  1.00  0.00     0.178 C 
ATOM      4  C   UNL     1      -6.793  -0.514   2.150  1.00  0.00     0.184 C 
ATOM      5  C   UNL     1      -5.983   0.656   2.727  1.00  0.00     0.180 C 
ATOM      6  C   UNL     1      -4.813   0.938   1.766  1.00  0.00     0.202 C 
ENDROOT
BRANCH   1   7
ATOM      7  O   UNL     1      -3.192  -0.079   0.343  1.00  0.00    -0.346 OA
BRANCH   7   8
ATOM      8  C   UNL     1      -1.850   0.211   0.660  1.00  0.00     0.125 C 
ATOM      9  C   UNL     1      10.838   1.629   0.435  1.00  0.00     0.012 C 
ATOM     10  C   UNL     1      11.169   0.403  -0.406  1.00  0.00     0.011 C 
ATOM     11  C   UNL     1       9.878   1.158   1.578  1.00  0.00     0.167 C 
ATOM     12  C   UNL     1       9.887  -0.205  -1.005  1.00  0.00     0.067 C 
ATOM     13  O   UNL     1       9.099  -0.016   1.307  1.00  0.00    -0.349 OA
ATOM     14  C   UNL     1       8.664  -0.076  -0.040  1.00  0.00     0.174 C 
ATOM     15  O   UNL     1       7.894   1.082  -0.329  1.00  0.00    -0.343 OA
ATOM     16  C   UNL     1       7.670  -1.230  -0.264  1.00  0.00     0.081 C 
ATOM     17  C   UNL     1       6.657   0.859   0.306  1.00  0.00     0.155 C 
ATOM     18  C   UNL     1       6.363  -0.659   0.325  1.00  0.00     0.104 C 
ATOM     19  C   UNL     1       5.463   1.559  -0.357  1.00  0.00     0.040 C 
ATOM     20  C   UNL     1       5.006  -0.788  -0.477  1.00  0.00     0.003 C 
ATOM     21  C   UNL     1       4.351   0.551  -0.081  1.00  0.00     0.004 C 
ATOM     22  C   UNL     1       4.057  -1.932  -0.037  1.00  0.00     0.010 C 
ATOM     23  C   UNL     1       2.973   0.783  -0.733  1.00  0.00     0.000 C 
ATOM     24  C   UNL     1       2.670  -1.790  -0.703  1.00  0.00     0.005 C 
ATOM     25  C   UNL     1       2.379   2.127  -0.246  1.00  0.00     0.031 C 
ATOM     26  C   UNL     1       2.017  -0.407  -0.382  1.00  0.00     0.003 C 
ATOM     27  C   UNL     1       0.877   2.210  -0.278  1.00  0.00    -0.027 C 
ATOM     28  C   UNL     1       0.625  -0.175  -1.097  1.00  0.00    -0.008 C 
ATOM     29  C   UNL     1       0.081   1.174  -0.606  1.00  0.00    -0.065 C 
ATOM     30  C   UNL     1      -0.428  -1.305  -0.783  1.00  0.00     0.014 C 
ATOM     31  C   UNL     1      -1.397   1.273  -0.380  1.00  0.00     0.063 C 
ATOM     32  C   UNL     1      -1.014  -1.101   0.614  1.00  0.00     0.033 C 
ATOM     33  C   UNL     1      10.328   2.803  -0.425  1.00  0.00     0.010 C 
ATOM     34  C   UNL     1       8.093  -2.610   0.265  1.00  0.00     0.016 C 
ATOM     35  C   UNL     1       5.255  -0.914  -2.026  1.00  0.00     0.015 C 
ATOM     36  C   UNL     1       0.748  -0.118  -2.646  1.00  0.00     0.016 C 
BRANCH  18  37
ATOM     37  O   UNL     1       6.203  -1.002   1.687  1.00  0.00    -0.386 OA
ATOM     38  H   UNL     1       6.035  -1.977   1.742  1.00  0.00     0.211 HD
ENDBRANCH  18  37
ENDBRANCH   7   8
ENDBRANCH   1   7
BRANCH   6  39
ATOM     39  O   UNL     1      -3.987   1.965   2.253  1.00  0.00    -0.385 OA
ATOM     40  H   UNL     1      -3.615   1.658   3.121  1.00  0.00     0.211 HD
ENDBRANCH   6  39
BRANCH   3  41
ATOM     41  C   UNL     1      -6.568  -2.995   1.638  1.00  0.00     0.191 C 
BRANCH  41  42
ATOM     42  O   UNL     1      -7.571  -3.332   2.558  1.00  0.00    -0.394 OA
ATOM     43  H   UNL     1      -7.113  -3.732   3.344  1.00  0.00     0.210 HD
ENDBRANCH  41  42
ENDBRANCH   3  41
BRANCH   5  44
ATOM     44  O   UNL     1      -6.802   1.788   2.854  1.00  0.00    -0.387 OA
ATOM     45  H   UNL     1      -6.354   2.394   3.501  1.00  0.00     0.211 HD
ENDBRANCH   5  44
BRANCH   4  46
ATOM     46  O   UNL     1      -7.188  -0.199   0.824  1.00  0.00    -0.341 OA
BRANCH  46  47
ATOM     47  C   UNL     1      -8.559   0.066   0.653  1.00  0.00     0.282 C 
ATOM     48  O   UNL     1      -9.165  -1.142   0.177  1.00  0.00    -0.341 OA
ATOM     49  C   UNL     1      -8.631   1.236  -0.356  1.00  0.00     0.202 C 
ATOM     50  C   UNL     1     -10.184  -1.007  -0.819  1.00  0.00     0.178 C 
ATOM     51  C   UNL     1     -10.076   1.560  -0.775  1.00  0.00     0.179 C 
ATOM     52  C   UNL     1     -10.985   0.313  -0.675  1.00  0.00     0.177 C 
BRANCH  49  53
ATOM     53  O   UNL     1      -7.966   2.386   0.101  1.00  0.00    -0.385 OA
ATOM     54  H   UNL     1      -8.416   2.673   0.938  1.00  0.00     0.211 HD
ENDBRANCH  49  53
BRANCH  50  55
ATOM     55  C   UNL     1      -9.619  -1.304  -2.224  1.00  0.00     0.191 C 
BRANCH  55  56
ATOM     56  O   UNL     1     -10.639  -1.274  -3.185  1.00  0.00    -0.394 OA
ATOM     57  H   UNL     1     -11.076  -2.164  -3.167  1.00  0.00     0.210 HD
ENDBRANCH  55  56
ENDBRANCH  50  55
BRANCH  51  58
ATOM     58  O   UNL     1     -10.091   2.147  -2.054  1.00  0.00    -0.387 OA
ATOM     59  H   UNL     1      -9.848   1.452  -2.716  1.00  0.00     0.211 HD
ENDBRANCH  51  58
BRANCH  52  60
ATOM     60  O   UNL     1     -11.569   0.305   0.606  1.00  0.00    -0.387 OA
ATOM     61  H   UNL     1     -12.388  -0.254   0.550  1.00  0.00     0.211 HD
ENDBRANCH  52  60
ENDBRANCH  46  47
ENDBRANCH   4  46
TORSDOF 14
