REMARK SMILES CC1=C(C)C(=O)O[C@@H]([C@@](C)(O)[C@H]2CC=C3[C@@H]4CC=C5C[C@@H](O[C@H]6O[C@@H](CO[C@@H]7O[C@H](CO)[C@H](O)[C@@H](O)[C@@H]7O)[C@H](O)[C@@H](O)[C@@H]6O)CC(=O)[C@@]5(C)[C@@H]4CC[C@]32C)C1
REMARK SMILES IDX 23 1 24 2 25 3 39 4 41 5 43 6 22 7 21 8 12 9 13 10 53 11
REMARK SMILES IDX 14 12 52 13 15 14 51 15 16 16 50 17 17 18 48 19 18 20 46 21
REMARK SMILES IDX 19 22 45 23 47 24 20 25 54 26 49 27 9 28 10 29 8 30 2 31
REMARK SMILES IDX 3 32 55 33 5 34 6 35 7 36 1 37 4 38 11 39 44 41 26 43 27 44
REMARK SMILES IDX 28 45 29 46 37 47 30 48 35 49 33 50 38 51 31 53 32 54 36 56
REMARK SMILES IDX 34 58 42 60 40 62
REMARK H PARENT 11 40 44 42 38 52 32 55 36 57 34 59 42 61 40 63
ROOT
ATOM      1  C   UNL     1       3.974   1.456   1.338  1.00  0.00     0.282 C 
ATOM      2  O   UNL     1       4.916   0.747   2.140  1.00  0.00    -0.341 OA
ATOM      3  C   UNL     1       6.297   0.856   1.800  1.00  0.00     0.178 C 
ATOM      4  C   UNL     1       6.764   2.286   1.367  1.00  0.00     0.177 C 
ATOM      5  C   UNL     1       5.826   2.857   0.293  1.00  0.00     0.179 C 
ATOM      6  C   UNL     1       4.409   2.881   0.872  1.00  0.00     0.202 C 
ENDROOT
BRANCH   1   7
ATOM      7  O   UNL     1       3.514   0.664   0.235  1.00  0.00    -0.346 OA
BRANCH   7   8
ATOM      8  C   UNL     1       2.085   0.749   0.119  1.00  0.00     0.133 C 
ATOM      9  C   UNL     1      -6.644   0.201   0.070  1.00  0.00     0.038 C 
ATOM     10  C   UNL     1      -6.604  -0.054   1.600  1.00  0.00     0.035 C 
ATOM     11  C   UNL     1      -5.138   0.580  -0.197  1.00  0.00    -0.005 C 
ATOM     12  C   UNL     1      -5.241  -0.635   1.784  1.00  0.00    -0.026 C 
ATOM     13  C   UNL     1      -4.569   0.279  -1.610  1.00  0.00     0.012 C 
ATOM     14  C   UNL     1      -4.418  -0.265   0.797  1.00  0.00    -0.064 C 
ATOM     15  C   UNL     1      -3.073   0.626  -1.679  1.00  0.00     0.006 C 
ATOM     16  C   UNL     1      -2.964  -0.693   0.658  1.00  0.00     0.023 C 
ATOM     17  C   UNL     1      -2.178  -0.107  -0.616  1.00  0.00     0.014 C 
ATOM     18  C   UNL     1      -2.214  -0.506   1.993  1.00  0.00     0.035 C 
ATOM     19  C   UNL     1      -0.828   0.670  -0.240  1.00  0.00     0.051 C 
ATOM     20  C   UNL     1      -0.754  -0.765   1.819  1.00  0.00    -0.026 C 
ATOM     21  C   UNL     1       0.103   0.928  -1.449  1.00  0.00     0.145 C 
ATOM     22  C   UNL     1      -0.081  -0.208   0.793  1.00  0.00    -0.058 C 
ATOM     23  C   UNL     1       1.625   0.961  -1.328  1.00  0.00     0.109 C 
ATOM     24  O   UNL     1      -0.375   1.186  -2.542  1.00  0.00    -0.299 OA
ATOM     25  C   UNL     1       1.403  -0.503   0.661  1.00  0.00     0.064 C 
ATOM     26  C   UNL     1      -4.956   2.087   0.173  1.00  0.00     0.016 C 
ATOM     27  C   UNL     1      -1.129   2.079   0.355  1.00  0.00     0.025 C 
BRANCH   9  28
ATOM     28  C   UNL     1      -7.285  -1.040  -0.706  1.00  0.00     0.103 C 
ATOM     29  C   UNL     1      -6.601  -2.385  -0.328  1.00  0.00     0.046 C 
BRANCH  28  30
ATOM     30  C   UNL     1      -8.832  -1.144  -0.391  1.00  0.00     0.212 C 
ATOM     31  C   UNL     1     -11.146  -0.173  -0.599  1.00  0.00    -0.059 C 
ATOM     32  C   UNL     1     -11.650  -1.444  -0.608  1.00  0.00     0.033 C 
ATOM     33  C   UNL     1      -9.675   0.034  -0.933  1.00  0.00     0.079 C 
ATOM     34  C   UNL     1     -10.696  -2.561  -0.877  1.00  0.00     0.334 C 
ATOM     35  O   UNL     1     -11.100  -3.701  -1.045  1.00  0.00    -0.247 OA
ATOM     36  O   UNL     1      -9.362  -2.310  -0.923  1.00  0.00    -0.456 OA
ATOM     37  C   UNL     1     -11.940   1.084  -0.311  1.00  0.00     0.040 C 
ATOM     38  C   UNL     1     -13.097  -1.811  -0.351  1.00  0.00     0.052 C 
ENDBRANCH  28  30
BRANCH  28  39
ATOM     39  O   UNL     1      -7.135  -0.821  -2.090  1.00  0.00    -0.386 OA
ATOM     40  H   UNL     1      -7.523  -1.595  -2.576  1.00  0.00     0.211 HD
ENDBRANCH  28  39
ENDBRANCH   9  28
ENDBRANCH   7   8
ENDBRANCH   1   7
BRANCH   6  41
ATOM     41  O   UNL     1       4.335   3.841   1.910  1.00  0.00    -0.385 OA
ATOM     42  H   UNL     1       4.292   3.390   2.791  1.00  0.00     0.211 HD
ENDBRANCH   6  41
BRANCH   3  43
ATOM     43  C   UNL     1       6.772  -0.262   0.854  1.00  0.00     0.198 C 
BRANCH  43  44
ATOM     44  O   UNL     1       8.187  -0.237   0.898  1.00  0.00    -0.347 OA
BRANCH  44  45
ATOM     45  C   UNL     1       8.820  -0.912  -0.168  1.00  0.00     0.282 C 
ATOM     46  O   UNL     1       9.794  -1.780   0.400  1.00  0.00    -0.341 OA
ATOM     47  C   UNL     1       9.505   0.162  -1.078  1.00  0.00     0.202 C 
ATOM     48  C   UNL     1      10.476  -2.520  -0.605  1.00  0.00     0.178 C 
ATOM     49  C   UNL     1      10.366  -0.529  -2.162  1.00  0.00     0.179 C 
ATOM     50  C   UNL     1      11.310  -1.569  -1.515  1.00  0.00     0.177 C 
BRANCH  47  51
ATOM     51  O   UNL     1      10.325   1.052  -0.352  1.00  0.00    -0.385 OA
ATOM     52  H   UNL     1      10.334   0.822   0.613  1.00  0.00     0.211 HD
ENDBRANCH  47  51
BRANCH  48  53
ATOM     53  C   UNL     1      11.338  -3.607   0.060  1.00  0.00     0.191 C 
BRANCH  53  54
ATOM     54  O   UNL     1      12.257  -3.056   0.966  1.00  0.00    -0.394 OA
ATOM     55  H   UNL     1      13.155  -3.107   0.545  1.00  0.00     0.210 HD
ENDBRANCH  53  54
ENDBRANCH  48  53
BRANCH  49  56
ATOM     56  O   UNL     1       9.571  -1.121  -3.167  1.00  0.00    -0.387 OA
ATOM     57  H   UNL     1       8.901  -1.722  -2.759  1.00  0.00     0.211 HD
ENDBRANCH  49  56
BRANCH  50  58
ATOM     58  O   UNL     1      12.348  -0.919  -0.817  1.00  0.00    -0.387 OA
ATOM     59  H   UNL     1      12.035  -0.679   0.092  1.00  0.00     0.211 HD
ENDBRANCH  50  58
ENDBRANCH  44  45
ENDBRANCH  43  44
ENDBRANCH   3  43
BRANCH   5  60
ATOM     60  O   UNL     1       5.876   2.077  -0.873  1.00  0.00    -0.387 OA
ATOM     61  H   UNL     1       5.638   2.670  -1.632  1.00  0.00     0.211 HD
ENDBRANCH   5  60
BRANCH   4  62
ATOM     62  O   UNL     1       6.831   3.186   2.456  1.00  0.00    -0.387 OA
ATOM     63  H   UNL     1       6.486   2.759   3.282  1.00  0.00     0.211 HD
ENDBRANCH   4  62
TORSDOF 16
