REMARK SMILES C[C@@H]1O[C@H]2O[C@@H]3[C@@H](C)O[C@@H](c4ccc5c(c4O)C(=O)C4=C(C5=O)[C@@]5(O)C(=O)C[C@](C)(O[C@H]6CC[C@H](O[C@H]7CC[C@H](O)[C@H](C)O7)[C@H](C)O6)C[C@@]5(O)C=C4)C[C@H]3O[C@H]2CC1=O
REMARK SMILES IDX 32 1 33 2 34 3 35 4 45 5 46 6 47 7 31 8 29 9 11 10 12 11
REMARK SMILES IDX 16 12 13 13 15 14 14 15 18 16 22 17 20 18 19 19 23 20 21 21
REMARK SMILES IDX 52 22 24 23 51 24 26 25 49 26 28 27 27 28 48 29 30 30 10 31
REMARK SMILES IDX 2 32 3 33 58 34 4 35 57 36 59 37 5 38 56 39 6 40 55 41 7 42
REMARK SMILES IDX 54 43 9 44 53 45 1 46 8 47 17 48 25 50 50 52 36 54 37 55
REMARK SMILES IDX 38 56 44 57 39 58 42 59 40 60 43 61 41 62
REMARK H PARENT 17 49 25 51 50 53 41 63
ROOT
ATOM      1  C   UNL     1      -4.997   0.202   0.152  1.00  0.00     0.251 C 
ATOM      2  C   UNL     1      -6.358  -0.354   0.682  1.00  0.00     0.065 C 
ATOM      3  C   UNL     1      -7.466   0.493   0.095  1.00  0.00     0.040 C 
ATOM      4  C   UNL     1      -7.441   0.398  -1.448  1.00  0.00     0.150 C 
ATOM      5  C   UNL     1      -6.024   0.053  -2.007  1.00  0.00     0.147 C 
ATOM      6  C   UNL     1      -5.721  -1.441  -2.276  1.00  0.00     0.041 C 
ATOM      7  O   UNL     1      -5.003   0.635  -1.216  1.00  0.00    -0.347 OA
ENDROOT
BRANCH   1   8
ATOM      8  O   UNL     1      -4.663   1.340   0.943  1.00  0.00    -0.346 OA
BRANCH   8   9
ATOM      9  C   UNL     1      -3.485   1.226   1.751  1.00  0.00     0.079 C 
ATOM     10  C   UNL     1       5.231   0.497   1.779  1.00  0.00     0.023 A 
ATOM     11  C   UNL     1       5.001   1.390   0.723  1.00  0.00     0.011 A 
ATOM     12  C   UNL     1       4.223   0.292   2.750  1.00  0.00     0.133 A 
ATOM     13  C   UNL     1       3.792   2.041   0.591  1.00  0.00     0.013 A 
ATOM     14  C   UNL     1       2.967   0.985   2.627  1.00  0.00     0.076 A 
ATOM     15  C   UNL     1       2.768   1.843   1.522  1.00  0.00     0.037 A 
ATOM     16  C   UNL     1       1.829   0.862   3.595  1.00  0.00     0.198 C 
ATOM     17  C   UNL     1       1.476   2.541   1.322  1.00  0.00     0.194 C 
ATOM     18  C   UNL     1       0.540   1.597   3.377  1.00  0.00     0.033 C 
ATOM     19  O   UNL     1       1.928   0.158   4.585  1.00  0.00    -0.288 OA
ATOM     20  O   UNL     1       1.330   3.240   0.330  1.00  0.00    -0.289 OA
ATOM     21  C   UNL     1       0.353   2.393   2.298  1.00  0.00     0.054 C 
ATOM     22  C   UNL     1      -0.535   1.410   4.370  1.00  0.00     0.011 C 
ATOM     23  C   UNL     1      -0.987   3.111   2.011  1.00  0.00     0.185 C 
ATOM     24  C   UNL     1      -1.704   2.034   4.286  1.00  0.00     0.012 C 
ATOM     25  C   UNL     1      -1.546   2.466   0.725  1.00  0.00     0.175 C 
ATOM     26  C   UNL     1      -2.079   2.985   3.178  1.00  0.00     0.126 C 
ATOM     27  C   UNL     1      -2.195   1.121   0.864  1.00  0.00     0.114 C 
ATOM     28  O   UNL     1      -1.539   3.034  -0.357  1.00  0.00    -0.296 OA
ATOM     29  C   UNL     1      -3.461   2.564   2.578  1.00  0.00     0.079 C 
ATOM     30  C   UNL     1      -3.585   0.013   2.723  1.00  0.00     0.043 C 
BRANCH  10  31
ATOM     31  C   UNL     1       6.576  -0.218   1.822  1.00  0.00     0.155 C 
ATOM     32  C   UNL     1      11.077  -0.823  -3.217  1.00  0.00     0.185 C 
ATOM     33  O   UNL     1      10.502  -0.383  -1.981  1.00  0.00    -0.339 OA
ATOM     34  C   UNL     1      10.650  -2.244  -3.560  1.00  0.00     0.164 C 
ATOM     35  C   UNL     1      10.547  -1.425  -1.005  1.00  0.00     0.280 C 
ATOM     36  C   UNL     1       9.434  -2.757  -2.850  1.00  0.00     0.116 C 
ATOM     37  O   UNL     1      11.182  -2.885  -4.452  1.00  0.00    -0.297 OA
ATOM     38  O   UNL     1      10.403  -0.915   0.304  1.00  0.00    -0.341 OA
ATOM     39  C   UNL     1       9.514  -2.555  -1.320  1.00  0.00     0.182 C 
ATOM     40  C   UNL     1       9.085  -0.451   0.459  1.00  0.00     0.179 C 
ATOM     41  O   UNL     1       8.187  -2.270  -0.897  1.00  0.00    -0.366 OA
ATOM     42  C   UNL     1       8.886   0.222   1.831  1.00  0.00     0.147 C 
ATOM     43  C   UNL     1       8.119  -1.641   0.368  1.00  0.00     0.153 C 
ATOM     44  O   UNL     1       7.584   0.780   1.898  1.00  0.00    -0.368 OA
ATOM     45  C   UNL     1       6.708  -1.084   0.537  1.00  0.00     0.072 C 
ATOM     46  C   UNL     1      12.599  -0.634  -3.214  1.00  0.00     0.047 C 
ATOM     47  C   UNL     1       9.897   1.351   2.038  1.00  0.00     0.041 C 
ENDBRANCH  10  31
BRANCH  12  48
ATOM     48  O   UNL     1       4.503  -0.569   3.757  1.00  0.00    -0.507 OA
ATOM     49  H   UNL     1       3.927  -0.829   4.481  1.00  0.00     0.293 HD
ENDBRANCH  12  48
BRANCH  23  50
ATOM     50  O   UNL     1      -0.721   4.493   1.831  1.00  0.00    -0.374 OA
ATOM     51  H   UNL     1      -0.458   4.697   0.899  1.00  0.00     0.212 HD
ENDBRANCH  23  50
BRANCH  26  52
ATOM     52  O   UNL     1      -2.227   4.253   3.786  1.00  0.00    -0.382 OA
ATOM     53  H   UNL     1      -2.981   4.215   4.434  1.00  0.00     0.212 HD
ENDBRANCH  26  52
ENDBRANCH   8   9
ENDBRANCH   1   8
BRANCH   4  54
ATOM     54  O   UNL     1      -8.386  -0.561  -1.919  1.00  0.00    -0.347 OA
BRANCH  54  55
ATOM     55  C   UNL     1      -9.360  -0.012  -2.810  1.00  0.00     0.250 C 
ATOM     56  C   UNL     1      -9.398  -0.791  -4.152  1.00  0.00     0.065 C 
ATOM     57  O   UNL     1     -10.624  -0.006  -2.175  1.00  0.00    -0.347 OA
ATOM     58  C   UNL     1     -10.415  -1.943  -4.139  1.00  0.00     0.040 C 
ATOM     59  C   UNL     1     -11.080  -1.315  -1.800  1.00  0.00     0.147 C 
ATOM     60  C   UNL     1     -10.533  -2.473  -2.713  1.00  0.00     0.143 C 
ATOM     61  C   UNL     1     -12.615  -1.254  -1.810  1.00  0.00     0.041 C 
BRANCH  60  62
ATOM     62  O   UNL     1     -11.317  -3.641  -2.623  1.00  0.00    -0.390 OA
ATOM     63  H   UNL     1     -12.093  -3.544  -3.234  1.00  0.00     0.211 HD
ENDBRANCH  60  62
ENDBRANCH  54  55
ENDBRANCH   4  54
TORSDOF 9
