REMARK SMILES C[C@@H]1O[C@@H](O[C@H]2CC[C@H](O[C@@]3(C)CC(=O)[C@]4(O)C5=C(C=C[C@]4(O)C3)C(=O)c3c(ccc([C@H]4C[C@@H](O)[C@H](O)[C@@H](C)O4)c3O)C5=O)O[C@H]2C)C=CC1=O
REMARK SMILES IDX 10 1 9 2 6 3 7 4 46 5 8 6 45 7 47 8 5 9 4 10 2 11 3 12 50 13
REMARK SMILES IDX 49 14 51 15 48 16 1 17 11 18 13 19 24 20 14 21 22 22 15 23
REMARK SMILES IDX 16 24 21 25 18 26 20 27 19 28 43 29 25 30 28 31 44 32 26 33
REMARK SMILES IDX 27 34 29 35 41 36 30 37 31 38 12 39 23 40 17 42 42 44 32 46
REMARK SMILES IDX 33 47 40 48 34 49 38 50 36 51 39 52 35 53 37 55
REMARK H PARENT 23 41 17 43 42 45 35 54 37 56
ROOT
ATOM      1  O   UNL     1       3.293  -2.102  -0.314  1.00  0.00    -0.346 OA
ENDROOT
BRANCH   1   2
ATOM      2  C   UNL     1       4.405  -1.249  -0.061  1.00  0.00     0.251 C 
ATOM      3  C   UNL     1       6.916  -0.055  -0.768  1.00  0.00     0.150 C 
ATOM      4  C   UNL     1       6.859  -1.147   0.305  1.00  0.00     0.040 C 
ATOM      5  C   UNL     1       5.540   0.647  -0.914  1.00  0.00     0.147 C 
ATOM      6  C   UNL     1       5.688  -2.087   0.005  1.00  0.00     0.065 C 
ATOM      7  O   UNL     1       4.487  -0.293  -1.112  1.00  0.00    -0.347 OA
ATOM      8  C   UNL     1       5.211   1.655   0.207  1.00  0.00     0.041 C 
BRANCH   3   9
ATOM      9  O   UNL     1       7.892   0.908  -0.405  1.00  0.00    -0.343 OA
BRANCH   9  10
ATOM     10  C   UNL     1       9.050   0.923  -1.228  1.00  0.00     0.275 C 
ATOM     11  C   UNL     1      10.332   1.471   0.680  1.00  0.00     0.189 C 
ATOM     12  O   UNL     1      10.190   0.602  -0.449  1.00  0.00    -0.338 OA
ATOM     13  C   UNL     1      10.127   2.938   0.317  1.00  0.00     0.184 C 
ATOM     14  C   UNL     1       9.671   3.281  -1.040  1.00  0.00     0.051 C 
ATOM     15  O   UNL     1      10.354   3.823   1.128  1.00  0.00    -0.292 OA
ATOM     16  C   UNL     1       9.204   2.301  -1.817  1.00  0.00     0.038 C 
ATOM     17  C   UNL     1      11.743   1.273   1.235  1.00  0.00     0.048 C 
ENDBRANCH   9  10
ENDBRANCH   3   9
ENDBRANCH   1   2
BRANCH   1  18
ATOM     18  C   UNL     1       2.245  -2.015   0.660  1.00  0.00     0.079 C 
ATOM     19  C   UNL     1       1.777  -0.531   0.881  1.00  0.00     0.114 C 
ATOM     20  C   UNL     1       1.047  -2.889   0.159  1.00  0.00     0.079 C 
ATOM     21  C   UNL     1       0.290  -0.425   0.808  1.00  0.00     0.175 C 
ATOM     22  C   UNL     1       0.220  -2.225  -0.985  1.00  0.00     0.126 C 
ATOM     23  O   UNL     1      -0.352  -0.110   1.800  1.00  0.00    -0.296 OA
ATOM     24  C   UNL     1      -0.368  -0.798  -0.533  1.00  0.00     0.185 C 
ATOM     25  C   UNL     1      -0.848  -3.226  -1.370  1.00  0.00     0.012 C 
ATOM     26  C   UNL     1      -1.908  -0.698  -0.439  1.00  0.00     0.054 C 
ATOM     27  C   UNL     1      -2.154  -3.003  -1.271  1.00  0.00     0.011 C 
ATOM     28  C   UNL     1      -2.715  -1.728  -0.786  1.00  0.00     0.033 C 
ATOM     29  C   UNL     1      -2.539   0.597  -0.002  1.00  0.00     0.194 C 
ATOM     30  C   UNL     1      -4.203  -1.597  -0.726  1.00  0.00     0.198 C 
ATOM     31  C   UNL     1      -4.012   0.744   0.080  1.00  0.00     0.037 A 
ATOM     32  O   UNL     1      -1.834   1.555   0.283  1.00  0.00    -0.289 OA
ATOM     33  O   UNL     1      -4.896  -2.552  -1.049  1.00  0.00    -0.288 OA
ATOM     34  C   UNL     1      -4.845  -0.325  -0.287  1.00  0.00     0.076 A 
ATOM     35  C   UNL     1      -4.579   1.948   0.515  1.00  0.00     0.013 A 
ATOM     36  C   UNL     1      -6.256  -0.170  -0.234  1.00  0.00     0.133 A 
ATOM     37  C   UNL     1      -5.958   2.101   0.581  1.00  0.00     0.011 A 
ATOM     38  C   UNL     1      -6.824   1.062   0.200  1.00  0.00     0.023 A 
ATOM     39  C   UNL     1       2.707  -2.657   1.994  1.00  0.00     0.043 C 
BRANCH  22  40
ATOM     40  O   UNL     1       1.067  -2.038  -2.101  1.00  0.00    -0.382 OA
ATOM     41  H   UNL     1       1.466  -2.914  -2.350  1.00  0.00     0.212 HD
ENDBRANCH  22  40
BRANCH  24  42
ATOM     42  O   UNL     1       0.024   0.136  -1.523  1.00  0.00    -0.374 OA
ATOM     43  H   UNL     1       0.099   1.042  -1.126  1.00  0.00     0.212 HD
ENDBRANCH  24  42
BRANCH  36  44
ATOM     44  O   UNL     1      -7.028  -1.218  -0.595  1.00  0.00    -0.507 OA
ATOM     45  H   UNL     1      -7.986  -1.232  -0.558  1.00  0.00     0.293 HD
ENDBRANCH  36  44
BRANCH  38  46
ATOM     46  C   UNL     1      -8.325   1.336   0.262  1.00  0.00     0.155 C 
ATOM     47  C   UNL     1      -8.909   1.476  -1.155  1.00  0.00     0.071 C 
ATOM     48  O   UNL     1      -8.978   0.329   1.046  1.00  0.00    -0.368 OA
ATOM     49  C   UNL     1     -10.378   1.929  -1.069  1.00  0.00     0.148 C 
ATOM     50  C   UNL     1     -10.381   0.143   0.792  1.00  0.00     0.147 C 
ATOM     51  C   UNL     1     -11.090   1.402   0.207  1.00  0.00     0.171 C 
ATOM     52  C   UNL     1     -10.632  -1.125  -0.038  1.00  0.00     0.041 C 
BRANCH  49  53
ATOM     53  O   UNL     1     -11.065   1.604  -2.251  1.00  0.00    -0.390 OA
ATOM     54  H   UNL     1     -11.164   0.619  -2.284  1.00  0.00     0.211 HD
ENDBRANCH  49  53
BRANCH  51  55
ATOM     55  O   UNL     1     -11.148   2.438   1.169  1.00  0.00    -0.388 OA
ATOM     56  H   UNL     1     -10.427   2.334   1.841  1.00  0.00     0.211 HD
ENDBRANCH  51  55
ENDBRANCH  38  46
ENDBRANCH   1  18
TORSDOF 10
