REMARK SMILES CC(=O)O[C@H]1[C@@H](C)O[C@@H](c2ccc3c(c2O)[C@H](O)[C@@]24O[C@]2(C3=O)[C@]2(O)C(=O)C=C(C)C[C@@]2(O)C[C@@H]4O)C[C@H]1OC(=O)/C=C/C=C/C=C/C=C/C(=O)Nc1c(C)c2ccc(O)c(Cl)c2oc1=O
REMARK SMILES IDX 42 1 43 2 40 3 41 4 39 5 38 6 5 7 6 8 8 9 37 10 9 11 7 12
REMARK SMILES IDX 4 13 2 14 3 15 1 16 10 17 11 18 15 19 12 20 14 21 13 22
REMARK SMILES IDX 17 23 22 24 19 25 23 26 21 27 20 28 35 29 24 30 34 31 26 32
REMARK SMILES IDX 32 33 28 34 27 35 31 36 29 37 30 38 16 39 18 41 36 43 25 45
REMARK SMILES IDX 33 47 44 49 45 50 46 51 47 52 48 53 49 54 50 55 51 56 52 57
REMARK SMILES IDX 53 59 54 60 65 61 56 62 64 63 66 64 57 65 63 66 58 67 61 68
REMARK SMILES IDX 59 69 55 70 62 71 60 72
REMARK H PARENT 16 40 18 42 36 44 25 46 33 48 52 58 60 73
ROOT
ATOM      1  C   UNL     1       0.596  -1.553  -0.245  1.00  0.00     0.093 C 
ATOM      2  C   UNL     1       1.883  -1.161  -0.224  1.00  0.00     0.007 C 
ENDROOT
BRANCH   1   3
ATOM      3  C   UNL     1      -0.408  -0.498   0.099  1.00  0.00     0.331 C 
ATOM      4  O   UNL     1      -1.608  -0.711   0.067  1.00  0.00    -0.247 OA
BRANCH   3   5
ATOM      5  O   UNL     1       0.103   0.710   0.464  1.00  0.00    -0.455 OA
BRANCH   5   6
ATOM      6  C   UNL     1      -0.354   1.960   0.791  1.00  0.00     0.223 C 
ATOM      7  C   UNL     1      -0.959   2.731  -0.376  1.00  0.00     0.246 C 
ATOM      8  C   UNL     1      -1.578   4.019   0.216  1.00  0.00     0.160 C 
ATOM      9  O   UNL     1      -2.668   3.772   1.116  1.00  0.00    -0.366 OA
ATOM     10  C   UNL     1      -1.170   2.035   2.083  1.00  0.00     0.086 C 
ATOM     11  C   UNL     1      -2.611   2.551   1.871  1.00  0.00     0.156 C 
ATOM     12  C   UNL     1      -2.043   4.949  -0.906  1.00  0.00     0.043 C 
BRANCH   7  13
ATOM     13  O   UNL     1      -1.922   1.977  -1.029  1.00  0.00    -0.456 OA
BRANCH  13  14
ATOM     14  C   UNL     1      -1.877   1.596  -2.334  1.00  0.00     0.303 C 
ATOM     15  O   UNL     1      -0.933   1.897  -3.051  1.00  0.00    -0.253 OA
ATOM     16  C   UNL     1      -3.002   0.790  -2.900  1.00  0.00     0.139 C 
ENDBRANCH  13  14
ENDBRANCH   7  13
BRANCH  11  17
ATOM     17  C   UNL     1      -3.613   1.496   1.395  1.00  0.00     0.023 A 
ATOM     18  C   UNL     1      -3.657   0.287   2.101  1.00  0.00     0.011 A 
ATOM     19  C   UNL     1      -4.524   1.700   0.324  1.00  0.00     0.128 A 
ATOM     20  C   UNL     1      -4.562  -0.702   1.770  1.00  0.00     0.013 A 
ATOM     21  C   UNL     1      -5.501   0.698   0.008  1.00  0.00     0.037 A 
ATOM     22  C   UNL     1      -5.499  -0.506   0.750  1.00  0.00     0.031 A 
ATOM     23  C   UNL     1      -6.548   0.838  -1.103  1.00  0.00     0.187 C 
ATOM     24  C   UNL     1      -6.516  -1.565   0.526  1.00  0.00     0.202 C 
ATOM     25  C   UNL     1      -7.879   0.134  -0.718  1.00  0.00     0.165 C 
ATOM     26  O   UNL     1      -6.293  -2.683   0.959  1.00  0.00    -0.291 OA
ATOM     27  C   UNL     1      -7.868  -1.258  -0.100  1.00  0.00     0.205 C 
ATOM     28  O   UNL     1      -7.887  -1.097  -1.466  1.00  0.00    -0.344 OA
ATOM     29  C   UNL     1      -9.204   0.879  -1.064  1.00  0.00     0.156 C 
ATOM     30  C   UNL     1      -9.205  -1.661   0.635  1.00  0.00     0.195 C 
ATOM     31  C   UNL     1     -10.407   0.402  -0.242  1.00  0.00     0.074 C 
ATOM     32  C   UNL     1      -9.375  -3.186   0.817  1.00  0.00     0.193 C 
ATOM     33  C   UNL     1     -10.478  -1.129  -0.140  1.00  0.00     0.111 C 
ATOM     34  C   UNL     1     -10.719  -3.812   0.754  1.00  0.00     0.050 C 
ATOM     35  O   UNL     1      -8.445  -3.897   1.153  1.00  0.00    -0.291 OA
ATOM     36  C   UNL     1     -11.748  -1.560   0.624  1.00  0.00     0.069 C 
ATOM     37  C   UNL     1     -11.837  -3.070   0.643  1.00  0.00    -0.067 C 
ATOM     38  C   UNL     1     -13.173  -3.750   0.531  1.00  0.00     0.040 C 
BRANCH  19  39
ATOM     39  O   UNL     1      -4.426   2.859  -0.364  1.00  0.00    -0.507 OA
ATOM     40  H   UNL     1      -4.817   3.076  -1.213  1.00  0.00     0.293 HD
ENDBRANCH  19  39
BRANCH  23  41
ATOM     41  O   UNL     1      -6.808   2.170  -1.458  1.00  0.00    -0.385 OA
ATOM     42  H   UNL     1      -7.022   2.665  -0.623  1.00  0.00     0.211 HD
ENDBRANCH  23  41
BRANCH  29  43
ATOM     43  O   UNL     1      -9.456   0.906  -2.451  1.00  0.00    -0.390 OA
ATOM     44  H   UNL     1      -9.560  -0.016  -2.788  1.00  0.00     0.211 HD
ENDBRANCH  29  43
BRANCH  30  45
ATOM     45  O   UNL     1      -9.112  -1.054   1.910  1.00  0.00    -0.376 OA
ATOM     46  H   UNL     1      -9.682  -1.540   2.561  1.00  0.00     0.212 HD
ENDBRANCH  30  45
BRANCH  33  47
ATOM     47  O   UNL     1     -10.525  -1.703  -1.429  1.00  0.00    -0.386 OA
ATOM     48  H   UNL     1     -11.344  -1.369  -1.883  1.00  0.00     0.211 HD
ENDBRANCH  33  47
ENDBRANCH  11  17
ENDBRANCH   5   6
ENDBRANCH   3   5
ENDBRANCH   1   3
BRANCH   2  49
ATOM     49  C   UNL     1       3.136  -1.905  -0.489  1.00  0.00     0.000 C 
ATOM     50  C   UNL     1       4.236  -1.127  -0.435  1.00  0.00     0.000 C 
BRANCH  50  51
ATOM     51  C   UNL     1       5.651  -1.488  -0.606  1.00  0.00     0.000 C 
ATOM     52  C   UNL     1       6.504  -0.448  -0.578  1.00  0.00     0.000 C 
BRANCH  52  53
ATOM     53  C   UNL     1       7.962  -0.528  -0.677  1.00  0.00     0.006 C 
ATOM     54  C   UNL     1       8.642   0.633  -0.750  1.00  0.00     0.071 C 
BRANCH  54  55
ATOM     55  C   UNL     1      10.109   0.760  -0.821  1.00  0.00     0.248 C 
ATOM     56  O   UNL     1      10.568   1.865  -1.070  1.00  0.00    -0.270 OA
ATOM     57  N   UNL     1      10.932  -0.287  -0.528  1.00  0.00    -0.316 N 
ATOM     58  H   UNL     1      10.506  -1.153  -0.180  1.00  0.00     0.170 HD
BRANCH  57  59
ATOM     59  C   UNL     1      12.359  -0.235  -0.591  1.00  0.00     0.131 A 
ATOM     60  C   UNL     1      13.148  -0.874   0.401  1.00  0.00    -0.009 A 
ATOM     61  C   UNL     1      13.021   0.406  -1.665  1.00  0.00     0.360 A 
ATOM     62  C   UNL     1      14.556  -0.847   0.269  1.00  0.00     0.024 A 
ATOM     63  O   UNL     1      14.344   0.405  -1.739  1.00  0.00    -0.419 OA
ATOM     64  O   UNL     1      12.396   0.924  -2.572  1.00  0.00    -0.244 OA
ATOM     65  C   UNL     1      15.420  -1.453   1.204  1.00  0.00     0.016 A 
ATOM     66  C   UNL     1      15.122  -0.178  -0.843  1.00  0.00     0.161 A 
ATOM     67  C   UNL     1      16.804  -1.404   1.027  1.00  0.00     0.048 A 
ATOM     68  C   UNL     1      16.511  -0.135  -1.014  1.00  0.00     0.126 A 
ATOM     69  C   UNL     1      17.355  -0.748  -0.081  1.00  0.00     0.138 A 
ATOM     70  C   UNL     1      12.520  -1.545   1.612  1.00  0.00     0.048 C 
ATOM     71  Cl  UNL     1      17.198   0.694  -2.409  1.00  0.00    -0.076 Cl
BRANCH  69  72
ATOM     72  O   UNL     1      18.691  -0.706  -0.254  1.00  0.00    -0.506 OA
ATOM     73  H   UNL     1      19.303  -1.126   0.367  1.00  0.00     0.293 HD
ENDBRANCH  69  72
ENDBRANCH  57  59
ENDBRANCH  54  55
ENDBRANCH  52  53
ENDBRANCH  50  51
ENDBRANCH   2  49
TORSDOF 17
