REMARK SMILES CO[C@H]1[C@H](O)[C@H](O[C@H]2CC[C@@]3(C)[C@@H](C2)C[C@H]2O[C@@]24[C@@H]3CC[C@]2(C)[C@H](C3=CC(=O)OC3)CC[C@]42O)O[C@@H](C)[C@@H]1O[C@@H]1O[C@H](CO)[C@@H](O)C(=O)[C@H]1O
REMARK SMILES IDX 3 1 4 2 6 3 35 4 36 5 37 6 38 7 2 8 1 9 5 10 39 12 40 13
REMARK SMILES IDX 41 14 49 15 42 16 47 17 45 18 48 19 50 20 43 22 44 23 46 25
REMARK SMILES IDX 7 27 8 28 9 29 14 30 10 31 13 32 11 33 15 34 19 35 16 36
REMARK SMILES IDX 18 37 20 38 17 39 33 40 21 41 32 42 22 43 31 44 24 45 12 46
REMARK SMILES IDX 23 47 34 48 25 50 26 51 30 52 27 53 29 54 28 55
REMARK H PARENT 5 11 50 21 44 24 46 26 34 49
ROOT
ATOM      1  C   UNL     1      -4.640  -1.521  -0.738  1.00  0.00     0.183 C 
ATOM      2  C   UNL     1      -3.518  -1.805   0.290  1.00  0.00     0.202 C 
ATOM      3  C   UNL     1      -2.461  -0.679   0.177  1.00  0.00     0.282 C 
ATOM      4  O   UNL     1      -3.039   0.585   0.490  1.00  0.00    -0.344 OA
ATOM      5  C   UNL     1      -4.067   0.956  -0.424  1.00  0.00     0.150 C 
ATOM      6  C   UNL     1      -3.489   1.394  -1.784  1.00  0.00     0.041 C 
ATOM      7  C   UNL     1      -5.204  -0.105  -0.511  1.00  0.00     0.182 C 
ENDROOT
BRANCH   1   8
ATOM      8  O   UNL     1      -4.112  -1.598  -2.055  1.00  0.00    -0.376 OA
ATOM      9  C   UNL     1      -4.388  -2.853  -2.638  1.00  0.00     0.195 C 
ENDBRANCH   1   8
BRANCH   2  10
ATOM     10  O   UNL     1      -4.037  -1.937   1.596  1.00  0.00    -0.385 OA
ATOM     11  H   UNL     1      -4.042  -1.053   2.044  1.00  0.00     0.211 HD
ENDBRANCH   2  10
BRANCH   7  12
ATOM     12  O   UNL     1      -5.949  -0.095   0.705  1.00  0.00    -0.341 OA
BRANCH  12  13
ATOM     13  C   UNL     1      -7.359   0.001   0.513  1.00  0.00     0.287 C 
ATOM     14  O   UNL     1      -7.822   1.218   1.084  1.00  0.00    -0.341 OA
ATOM     15  C   UNL     1      -8.060  -1.191   1.187  1.00  0.00     0.240 C 
ATOM     16  C   UNL     1      -9.140   1.468   0.611  1.00  0.00     0.183 C 
ATOM     17  C   UNL     1      -9.541  -0.940   1.386  1.00  0.00     0.197 C 
ATOM     18  C   UNL     1     -10.134   0.446   1.225  1.00  0.00     0.215 C 
ATOM     19  O   UNL     1     -10.234  -1.827   1.860  1.00  0.00    -0.293 OA
BRANCH  15  20
ATOM     20  O   UNL     1      -7.835  -2.374   0.463  1.00  0.00    -0.380 OA
ATOM     21  H   UNL     1      -8.313  -2.291  -0.405  1.00  0.00     0.211 HD
ENDBRANCH  15  20
BRANCH  16  22
ATOM     22  C   UNL     1      -9.533   2.913   0.952  1.00  0.00     0.191 C 
BRANCH  22  23
ATOM     23  O   UNL     1     -10.812   3.220   0.466  1.00  0.00    -0.394 OA
ATOM     24  H   UNL     1     -10.710   3.404  -0.504  1.00  0.00     0.210 HD
ENDBRANCH  22  23
ENDBRANCH  16  22
BRANCH  18  25
ATOM     25  O   UNL     1     -11.329   0.410   0.484  1.00  0.00    -0.382 OA
ATOM     26  H   UNL     1     -11.111   0.032  -0.409  1.00  0.00     0.211 HD
ENDBRANCH  18  25
ENDBRANCH  12  13
ENDBRANCH   7  12
BRANCH   3  27
ATOM     27  O   UNL     1      -1.382  -0.932   1.066  1.00  0.00    -0.347 OA
BRANCH  27  28
ATOM     28  C   UNL     1      -0.169  -0.331   0.613  1.00  0.00     0.122 C 
ATOM     29  C   UNL     1       0.168   0.907   1.460  1.00  0.00     0.033 C 
ATOM     30  C   UNL     1       0.970  -1.375   0.693  1.00  0.00     0.036 C 
ATOM     31  C   UNL     1       1.525   1.519   1.021  1.00  0.00     0.010 C 
ATOM     32  C   UNL     1       2.332  -0.773   0.250  1.00  0.00     0.000 C 
ATOM     33  C   UNL     1       2.726   0.506   1.086  1.00  0.00    -0.024 C 
ATOM     34  C   UNL     1       2.377  -0.560  -1.317  1.00  0.00     0.039 C 
ATOM     35  C   UNL     1       4.065   1.171   0.449  1.00  0.00     0.033 C 
ATOM     36  C   UNL     1       3.238   0.631  -1.824  1.00  0.00     0.155 C 
ATOM     37  C   UNL     1       4.462   0.486  -0.884  1.00  0.00     0.127 C 
ATOM     38  C   UNL     1       5.359   1.375   1.274  1.00  0.00     0.008 C 
ATOM     39  O   UNL     1       4.518   1.189  -2.058  1.00  0.00    -0.363 OA
ATOM     40  C   UNL     1       5.522  -0.704  -0.938  1.00  0.00     0.102 C 
ATOM     41  C   UNL     1       6.123   0.083   1.574  1.00  0.00     0.011 C 
ATOM     42  C   UNL     1       6.561  -0.492  -2.098  1.00  0.00     0.040 C 
ATOM     43  C   UNL     1       6.476  -0.821   0.345  1.00  0.00     0.006 C 
ATOM     44  C   UNL     1       7.841  -1.155  -1.629  1.00  0.00     0.012 C 
ATOM     45  C   UNL     1       7.947  -0.654  -0.189  1.00  0.00     0.028 C 
ATOM     46  C   UNL     1       2.914   0.123   2.585  1.00  0.00     0.012 C 
ATOM     47  C   UNL     1       6.421  -2.284   0.917  1.00  0.00     0.015 C 
BRANCH  40  48
ATOM     48  O   UNL     1       4.869  -1.941  -1.139  1.00  0.00    -0.386 OA
ATOM     49  H   UNL     1       4.708  -2.078  -2.109  1.00  0.00     0.211 HD
ENDBRANCH  40  48
BRANCH  45  50
ATOM     50  C   UNL     1       8.617   0.727  -0.093  1.00  0.00    -0.022 C 
ATOM     51  C   UNL     1       9.594   0.966   0.779  1.00  0.00     0.096 C 
ATOM     52  C   UNL     1       8.420   1.979  -0.937  1.00  0.00     0.265 C 
ATOM     53  C   UNL     1      10.016   2.324   0.567  1.00  0.00     0.331 C 
ATOM     54  O   UNL     1       9.324   2.892  -0.429  1.00  0.00    -0.458 OA
ATOM     55  O   UNL     1      10.899   2.892   1.188  1.00  0.00    -0.247 OA
ENDBRANCH  45  50
ENDBRANCH  27  28
ENDBRANCH   3  27
TORSDOF 12
