REMARK SMILES CO[C@@H]1[C@@H](O)[C@H](O[C@@H]2[C@@H](C)O[C@@H](O[C@H]3[C@@H](OC)C[C@H](O[C@H]4[C@H](O)C[C@H](O[C@H]5CC[C@@]6(C)C(=CC[C@@H]7[C@@H]6CC[C@]6(C)[C@@H]8[C@H]9CO[C@]8(C)O[C@@]76O9)C5)O[C@@H]4C)O[C@@H]3C)C[C@H]2OC)O[C@H](C)[C@H]1O
REMARK SMILES IDX 14 1 15 2 18 3 19 4 54 5 55 6 56 7 13 8 12 9 8 10 9 11 58 12
REMARK SMILES IDX 11 13 57 14 10 15 7 16 6 17 3 18 4 19 64 20 62 21 61 22
REMARK SMILES IDX 63 23 2 24 1 25 5 26 65 28 59 30 60 31 16 32 17 33 20 34
REMARK SMILES IDX 21 35 22 36 52 37 24 38 51 39 25 40 53 41 23 42 26 44 27 45
REMARK SMILES IDX 28 46 50 47 29 48 32 49 30 50 33 51 36 52 34 53 35 54 37 55
REMARK SMILES IDX 48 56 38 57 47 58 49 59 39 60 45 61 42 62 41 63 44 64 43 65
REMARK SMILES IDX 31 66 40 67 46 68
REMARK H PARENT 5 27 65 29 23 43
ROOT
ATOM      1  C   UNL     1       4.179  -0.244   0.560  1.00  0.00     0.179 C 
ATOM      2  C   UNL     1       3.163   0.758  -0.057  1.00  0.00     0.154 C 
ATOM      3  C   UNL     1       2.306   0.021  -1.076  1.00  0.00     0.097 C 
ATOM      4  C   UNL     1       1.482  -1.050  -0.296  1.00  0.00     0.253 C 
ATOM      5  O   UNL     1       2.185  -1.660   0.793  1.00  0.00    -0.347 OA
ATOM      6  C   UNL     1       3.580  -1.685   0.581  1.00  0.00     0.150 C 
ATOM      7  C   UNL     1       4.235  -2.559   1.652  1.00  0.00     0.041 C 
ENDROOT
BRANCH   1   8
ATOM      8  O   UNL     1       5.357  -0.284  -0.238  1.00  0.00    -0.344 OA
BRANCH   8   9
ATOM      9  C   UNL     1       6.557  -0.212   0.519  1.00  0.00     0.253 C 
ATOM     10  C   UNL     1       9.195   0.289  -0.714  1.00  0.00     0.179 C 
ATOM     11  C   UNL     1       8.509   1.118   0.422  1.00  0.00     0.150 C 
ATOM     12  C   UNL     1       8.276  -0.872  -1.177  1.00  0.00     0.154 C 
ATOM     13  O   UNL     1       7.100   1.097   0.310  1.00  0.00    -0.347 OA
ATOM     14  C   UNL     1       7.494  -1.362   0.037  1.00  0.00     0.097 C 
ATOM     15  C   UNL     1       8.983   2.571   0.413  1.00  0.00     0.041 C 
BRANCH  10  16
ATOM     16  O   UNL     1      10.408  -0.254  -0.189  1.00  0.00    -0.341 OA
BRANCH  16  17
ATOM     17  C   UNL     1      11.589   0.361  -0.693  1.00  0.00     0.282 C 
ATOM     18  C   UNL     1      13.299  -0.152   1.098  1.00  0.00     0.183 C 
ATOM     19  C   UNL     1      12.399   0.952   0.525  1.00  0.00     0.202 C 
ATOM     20  C   UNL     1      14.285  -0.630  -0.012  1.00  0.00     0.175 C 
ATOM     21  C   UNL     1      13.692  -0.403  -1.435  1.00  0.00     0.150 C 
ATOM     22  O   UNL     1      12.300  -0.640  -1.436  1.00  0.00    -0.344 OA
ATOM     23  C   UNL     1      14.377  -1.303  -2.461  1.00  0.00     0.041 C 
BRANCH  18  24
ATOM     24  O   UNL     1      12.469  -1.232   1.502  1.00  0.00    -0.376 OA
ATOM     25  C   UNL     1      13.006  -1.878   2.639  1.00  0.00     0.195 C 
ENDBRANCH  18  24
BRANCH  19  26
ATOM     26  O   UNL     1      13.211   2.032   0.132  1.00  0.00    -0.385 OA
ATOM     27  H   UNL     1      12.635   2.692  -0.334  1.00  0.00     0.211 HD
ENDBRANCH  19  26
BRANCH  20  28
ATOM     28  O   UNL     1      15.541  -0.006   0.093  1.00  0.00    -0.388 OA
ATOM     29  H   UNL     1      15.410   0.974  -0.010  1.00  0.00     0.211 HD
ENDBRANCH  20  28
ENDBRANCH  16  17
ENDBRANCH  10  16
BRANCH  12  30
ATOM     30  O   UNL     1       7.347  -0.393  -2.144  1.00  0.00    -0.378 OA
ATOM     31  C   UNL     1       7.542  -1.014  -3.394  1.00  0.00     0.195 C 
ENDBRANCH  12  30
ENDBRANCH   8   9
ENDBRANCH   1   8
BRANCH   2  32
ATOM     32  O   UNL     1       3.839   1.846  -0.668  1.00  0.00    -0.378 OA
ATOM     33  C   UNL     1       3.634   3.034   0.064  1.00  0.00     0.195 C 
ENDBRANCH   2  32
BRANCH   4  34
ATOM     34  O   UNL     1       0.353  -0.398   0.268  1.00  0.00    -0.344 OA
BRANCH  34  35
ATOM     35  C   UNL     1      -0.890  -0.987  -0.099  1.00  0.00     0.179 C 
ATOM     36  C   UNL     1      -1.690  -1.268   1.179  1.00  0.00     0.151 C 
ATOM     37  C   UNL     1      -1.632   0.011  -1.026  1.00  0.00     0.150 C 
ATOM     38  C   UNL     1      -2.021   0.076   1.836  1.00  0.00     0.096 C 
ATOM     39  O   UNL     1      -2.031   1.209  -0.353  1.00  0.00    -0.347 OA
ATOM     40  C   UNL     1      -2.769   0.990   0.850  1.00  0.00     0.253 C 
ATOM     41  C   UNL     1      -2.766  -0.619  -1.852  1.00  0.00     0.041 C 
BRANCH  36  42
ATOM     42  O   UNL     1      -2.861  -1.982   0.877  1.00  0.00    -0.390 OA
ATOM     43  H   UNL     1      -3.235  -2.299   1.741  1.00  0.00     0.211 HD
ENDBRANCH  36  42
BRANCH  40  44
ATOM     44  O   UNL     1      -4.046   0.449   0.570  1.00  0.00    -0.349 OA
BRANCH  44  45
ATOM     45  C   UNL     1      -5.058   1.432   0.413  1.00  0.00     0.125 C 
ATOM     46  C   UNL     1      -5.820   1.133  -0.903  1.00  0.00     0.033 C 
ATOM     47  C   UNL     1      -5.985   1.373   1.660  1.00  0.00     0.063 C 
ATOM     48  C   UNL     1      -6.601  -0.185  -0.754  1.00  0.00     0.014 C 
ATOM     49  C   UNL     1      -7.423   1.146   1.244  1.00  0.00    -0.065 C 
ATOM     50  C   UNL     1      -7.715  -0.087   0.358  1.00  0.00    -0.008 C 
ATOM     51  C   UNL     1      -8.351   2.070   1.566  1.00  0.00    -0.027 C 
ATOM     52  C   UNL     1      -9.133   0.032  -0.342  1.00  0.00     0.008 C 
ATOM     53  C   UNL     1      -9.786   1.991   1.143  1.00  0.00     0.036 C 
ATOM     54  C   UNL     1     -10.202   0.600   0.633  1.00  0.00     0.057 C 
ATOM     55  C   UNL     1      -9.616  -1.331  -0.959  1.00  0.00     0.006 C 
ATOM     56  C   UNL     1     -11.578   0.710  -0.077  1.00  0.00     0.181 C 
ATOM     57  C   UNL     1     -11.000  -1.214  -1.620  1.00  0.00     0.013 C 
ATOM     58  O   UNL     1     -12.637   1.179   0.753  1.00  0.00    -0.317 OA
ATOM     59  O   UNL     1     -11.510   1.569  -1.214  1.00  0.00    -0.343 OA
ATOM     60  C   UNL     1     -12.043  -0.628  -0.606  1.00  0.00     0.033 C 
ATOM     61  C   UNL     1     -13.785   0.968  -0.068  1.00  0.00     0.175 C 
ATOM     62  C   UNL     1     -12.628   1.166  -1.994  1.00  0.00     0.157 C 
ATOM     63  C   UNL     1     -13.257   0.054  -1.203  1.00  0.00     0.091 C 
ATOM     64  O   UNL     1     -14.182   2.208  -0.629  1.00  0.00    -0.347 OA
ATOM     65  C   UNL     1     -13.707   2.211  -1.949  1.00  0.00     0.196 C 
ATOM     66  C   UNL     1      -7.616  -1.345   1.264  1.00  0.00     0.016 C 
ATOM     67  C   UNL     1     -12.354  -1.687   0.493  1.00  0.00     0.018 C 
ATOM     68  C   UNL     1     -14.986   0.403   0.709  1.00  0.00     0.076 C 
ENDBRANCH  44  45
ENDBRANCH  40  44
ENDBRANCH  34  35
ENDBRANCH   4  34
TORSDOF 14
