REMARK SMILES C[C@H]1O[C@@H](O[C@@H]2CO[C@@H](O[C@@H]3[C@H](O)C[C@H](O[C@@H]4CC[C@]5(C)[C@H](CC[C@@H]6C7=C(C(=O)[C@H](O)[C@H]65)[C@@H](C5=CC(=O)OC5)CC7)C4)O[C@@H]3C)[C@H](O)[C@@H]2O)[C@@H](O)[C@@H](O)[C@H]1O
REMARK SMILES IDX 10 1 9 2 6 3 7 4 48 5 8 6 46 7 5 8 4 9 2 10 3 11 54 12 52 13
REMARK SMILES IDX 50 14 1 15 55 16 53 18 51 20 49 22 47 24 11 26 12 27 44 28
REMARK SMILES IDX 14 29 43 30 15 31 45 32 13 33 16 35 17 36 18 37 42 38 19 39
REMARK SMILES IDX 22 40 20 41 23 42 32 43 24 44 30 45 25 46 28 47 26 48 27 49
REMARK SMILES IDX 29 50 41 51 33 52 40 53 21 54 31 55 34 57 35 58 39 59 36 60
REMARK SMILES IDX 38 61 37 62
REMARK H PARENT 55 17 53 19 51 21 49 23 47 25 13 34 31 56
ROOT
ATOM      1  O   UNL     1      -3.857  -0.676   0.999  1.00  0.00    -0.341 OA
ENDROOT
BRANCH   1   2
ATOM      2  C   UNL     1      -4.767   0.295   0.492  1.00  0.00     0.282 C 
ATOM      3  C   UNL     1      -7.680   0.310   1.001  1.00  0.00     0.179 C 
ATOM      4  C   UNL     1      -6.656   1.433   1.296  1.00  0.00     0.198 C 
ATOM      5  C   UNL     1      -6.943  -0.924   0.410  1.00  0.00     0.179 C 
ATOM      6  O   UNL     1      -5.394   0.900   1.632  1.00  0.00    -0.347 OA
ATOM      7  C   UNL     1      -5.773  -0.444  -0.472  1.00  0.00     0.202 C 
BRANCH   3   8
ATOM      8  O   UNL     1      -8.587   0.853   0.050  1.00  0.00    -0.341 OA
BRANCH   8   9
ATOM      9  C   UNL     1      -9.955   0.751   0.403  1.00  0.00     0.282 C 
ATOM     10  C   UNL     1     -11.860  -0.635   0.220  1.00  0.00     0.150 C 
ATOM     11  O   UNL     1     -10.534  -0.357  -0.258  1.00  0.00    -0.344 OA
ATOM     12  C   UNL     1     -12.654   0.660   0.636  1.00  0.00     0.174 C 
ATOM     13  C   UNL     1     -12.210   1.858  -0.226  1.00  0.00     0.179 C 
ATOM     14  C   UNL     1     -10.680   2.076  -0.007  1.00  0.00     0.202 C 
ATOM     15  C   UNL     1     -12.575  -1.454  -0.867  1.00  0.00     0.041 C 
BRANCH  12  16
ATOM     16  O   UNL     1     -14.046   0.467   0.659  1.00  0.00    -0.388 OA
ATOM     17  H   UNL     1     -14.380   0.520  -0.272  1.00  0.00     0.211 HD
ENDBRANCH  12  16
BRANCH  13  18
ATOM     18  O   UNL     1     -12.545   1.645  -1.579  1.00  0.00    -0.387 OA
ATOM     19  H   UNL     1     -11.835   1.109  -2.013  1.00  0.00     0.211 HD
ENDBRANCH  13  18
BRANCH  14  20
ATOM     20  O   UNL     1     -10.105   2.728  -1.115  1.00  0.00    -0.385 OA
ATOM     21  H   UNL     1      -9.837   2.042  -1.781  1.00  0.00     0.211 HD
ENDBRANCH  14  20
ENDBRANCH   8   9
ENDBRANCH   3   8
BRANCH   5  22
ATOM     22  O   UNL     1      -7.823  -1.800  -0.247  1.00  0.00    -0.387 OA
ATOM     23  H   UNL     1      -8.102  -1.376  -1.098  1.00  0.00     0.211 HD
ENDBRANCH   5  22
BRANCH   7  24
ATOM     24  O   UNL     1      -6.304   0.407  -1.467  1.00  0.00    -0.385 OA
ATOM     25  H   UNL     1      -5.571   0.974  -1.817  1.00  0.00     0.211 HD
ENDBRANCH   7  24
ENDBRANCH   1   2
BRANCH   1  26
ATOM     26  C   UNL     1      -2.543  -0.595   0.447  1.00  0.00     0.179 C 
ATOM     27  C   UNL     1      -2.222  -1.819  -0.420  1.00  0.00     0.151 C 
ATOM     28  C   UNL     1      -1.451  -0.463   1.578  1.00  0.00     0.150 C 
ATOM     29  C   UNL     1      -0.814  -1.627  -1.053  1.00  0.00     0.096 C 
ATOM     30  O   UNL     1      -0.147  -0.917   1.182  1.00  0.00    -0.347 OA
ATOM     31  C   UNL     1       0.092  -0.704  -0.197  1.00  0.00     0.253 C 
ATOM     32  C   UNL     1      -1.830  -1.231   2.855  1.00  0.00     0.041 C 
BRANCH  27  33
ATOM     33  O   UNL     1      -2.311  -2.997   0.352  1.00  0.00    -0.390 OA
ATOM     34  H   UNL     1      -1.407  -3.253   0.673  1.00  0.00     0.211 HD
ENDBRANCH  27  33
BRANCH  31  35
ATOM     35  O   UNL     1       1.433  -0.998  -0.520  1.00  0.00    -0.349 OA
BRANCH  35  36
ATOM     36  C   UNL     1       2.345   0.021  -0.130  1.00  0.00     0.121 C 
ATOM     37  C   UNL     1       3.203   0.404  -1.366  1.00  0.00     0.033 C 
ATOM     38  C   UNL     1       3.202  -0.512   1.057  1.00  0.00     0.036 C 
ATOM     39  C   UNL     1       4.211  -0.710  -1.653  1.00  0.00     0.010 C 
ATOM     40  C   UNL     1       4.698  -0.228   0.836  1.00  0.00    -0.002 C 
ATOM     41  C   UNL     1       5.245  -0.950  -0.470  1.00  0.00    -0.023 C 
ATOM     42  C   UNL     1       5.564  -0.524   2.068  1.00  0.00     0.005 C 
ATOM     43  C   UNL     1       6.713  -0.359  -0.712  1.00  0.00     0.039 C 
ATOM     44  C   UNL     1       6.984  -0.007   1.825  1.00  0.00     0.009 C 
ATOM     45  C   UNL     1       7.449  -0.858  -2.017  1.00  0.00     0.190 C 
ATOM     46  C   UNL     1       7.614  -0.619   0.556  1.00  0.00     0.022 C 
ATOM     47  C   UNL     1       8.908  -0.449  -2.066  1.00  0.00     0.188 C 
ATOM     48  C   UNL     1       9.028  -0.107   0.357  1.00  0.00    -0.059 C 
ATOM     49  C   UNL     1       9.605  -0.040  -0.840  1.00  0.00     0.005 C 
ATOM     50  O   UNL     1       9.532  -0.542  -3.112  1.00  0.00    -0.292 OA
ATOM     51  C   UNL     1       9.960   0.386   1.426  1.00  0.00     0.033 C 
ATOM     52  C   UNL     1      11.000   0.500  -0.764  1.00  0.00     0.053 C 
ATOM     53  C   UNL     1      11.312   0.303   0.717  1.00  0.00     0.017 C 
ATOM     54  C   UNL     1       5.315  -2.504  -0.301  1.00  0.00     0.012 C 
BRANCH  45  55
ATOM     55  O   UNL     1       6.827  -0.376  -3.178  1.00  0.00    -0.385 OA
ATOM     56  H   UNL     1       6.861   0.617  -3.149  1.00  0.00     0.211 HD
ENDBRANCH  45  55
BRANCH  52  57
ATOM     57  C   UNL     1      11.043   1.948  -1.196  1.00  0.00    -0.018 C 
ATOM     58  C   UNL     1      11.800   2.409  -2.182  1.00  0.00     0.097 C 
ATOM     59  C   UNL     1      10.258   3.086  -0.587  1.00  0.00     0.265 C 
ATOM     60  C   UNL     1      11.536   3.825  -2.248  1.00  0.00     0.331 C 
ATOM     61  O   UNL     1      10.640   4.195  -1.319  1.00  0.00    -0.458 OA
ATOM     62  O   UNL     1      12.052   4.600  -3.037  1.00  0.00    -0.247 OA
ENDBRANCH  52  57
ENDBRANCH  35  36
ENDBRANCH  31  35
ENDBRANCH   1  26
TORSDOF 14
