REMARK SMILES C[C@H]1CC[C@]2(NC1)O[C@H]1C[C@H]3[C@H]4CC=C5C[C@@H](O[C@@H]6O[C@H](C)[C@@H](O)[C@@H](O[C@@H]7O[C@@H](CO)[C@@H](O)[C@@H](O)[C@H]7O)[C@@H]6O)CC[C@@]5(C)[C@@H]4CC[C@@]3(C)[C@H]1[C@@H]2C
REMARK SMILES IDX 26 1 25 2 19 3 20 4 38 5 21 6 23 7 22 8 18 9 17 10 2 11 3 12
REMARK SMILES IDX 7 13 4 14 6 15 5 16 8 17 50 18 9 19 49 20 10 21 47 22 11 23
REMARK SMILES IDX 46 24 12 25 45 26 13 27 44 28 14 29 42 30 15 31 41 32 16 33
REMARK SMILES IDX 40 34 1 35 51 37 48 38 43 39 39 40 24 42 27 44 28 45 36 46
REMARK SMILES IDX 29 47 34 48 32 49 37 50 30 52 31 53 35 55 33 57
REMARK H PARENT 6 36 39 41 24 43 37 51 31 54 35 56 33 58
ROOT
ATOM      1  O   UNL     1      -7.554   0.567   1.013  1.00  0.00    -0.341 OA
ENDROOT
BRANCH   1   2
ATOM      2  C   UNL     1      -6.865  -0.522   0.413  1.00  0.00     0.186 C 
ATOM      3  C   UNL     1      -4.477  -1.130  -0.256  1.00  0.00     0.282 C 
ATOM      4  O   UNL     1      -5.059  -2.406  -0.430  1.00  0.00    -0.344 OA
ATOM      5  C   UNL     1      -5.564  -0.028  -0.272  1.00  0.00     0.202 C 
ATOM      6  C   UNL     1      -5.828  -2.800   0.718  1.00  0.00     0.150 C 
ATOM      7  C   UNL     1      -6.534  -1.607   1.467  1.00  0.00     0.175 C 
ATOM      8  C   UNL     1      -6.864  -3.824   0.241  1.00  0.00     0.041 C 
BRANCH   3   9
ATOM      9  O   UNL     1      -3.514  -0.890  -1.281  1.00  0.00    -0.346 OA
BRANCH   9  10
ATOM     10  C   UNL     1      -2.170  -0.902  -0.814  1.00  0.00     0.125 C 
ATOM     11  C   UNL     1      11.344   1.282  -0.202  1.00  0.00    -0.000 C 
ATOM     12  C   UNL     1      10.347   1.960   0.772  1.00  0.00     0.009 C 
ATOM     13  C   UNL     1      10.649   0.184  -1.059  1.00  0.00     0.087 C 
ATOM     14  C   UNL     1       9.252   0.972   1.140  1.00  0.00     0.053 C 
ATOM     15  N   UNL     1       9.258   0.533  -1.377  1.00  0.00    -0.289 NA
ATOM     16  C   UNL     1       8.398   0.662  -0.160  1.00  0.00     0.122 C 
ATOM     17  O   UNL     1       7.481   1.735  -0.360  1.00  0.00    -0.357 OA
ATOM     18  C   UNL     1       7.476  -0.568  -0.030  1.00  0.00     0.039 C 
ATOM     19  C   UNL     1       6.358   1.431   0.458  1.00  0.00     0.125 C 
ATOM     20  C   UNL     1       6.438  -0.019   0.928  1.00  0.00     0.031 C 
ATOM     21  C   UNL     1       4.981   1.554  -0.200  1.00  0.00     0.037 C 
ATOM     22  C   UNL     1       4.972  -0.564   0.948  1.00  0.00    -0.024 C 
ATOM     23  C   UNL     1       4.152   0.744   0.825  1.00  0.00     0.002 C 
ATOM     24  C   UNL     1       4.625  -1.490  -0.274  1.00  0.00     0.008 C 
ATOM     25  C   UNL     1       2.633   0.507   0.609  1.00  0.00     0.000 C 
ATOM     26  C   UNL     1       3.137  -1.840  -0.320  1.00  0.00     0.005 C 
ATOM     27  C   UNL     1       1.909   1.828   0.285  1.00  0.00     0.031 C 
ATOM     28  C   UNL     1       2.247  -0.569  -0.437  1.00  0.00     0.003 C 
ATOM     29  C   UNL     1       0.478   1.649  -0.137  1.00  0.00    -0.027 C 
ATOM     30  C   UNL     1       0.686  -0.882  -0.292  1.00  0.00    -0.008 C 
ATOM     31  C   UNL     1      -0.107   0.454  -0.367  1.00  0.00    -0.065 C 
ATOM     32  C   UNL     1       0.199  -1.715  -1.512  1.00  0.00     0.014 C 
ATOM     33  C   UNL     1      -1.547   0.484  -0.882  1.00  0.00     0.063 C 
ATOM     34  C   UNL     1      -1.334  -1.982  -1.537  1.00  0.00     0.033 C 
ATOM     35  C   UNL     1      12.046   2.345  -1.046  1.00  0.00     0.009 C 
ATOM     36  H   UNL     1       9.272   1.435  -1.907  1.00  0.00     0.125 HD
ATOM     37  C   UNL     1       8.107  -1.897   0.406  1.00  0.00     0.012 C 
ATOM     38  C   UNL     1       4.710  -1.298   2.286  1.00  0.00     0.012 C 
ATOM     39  C   UNL     1       0.394  -1.663   1.043  1.00  0.00     0.016 C 
ENDBRANCH   9  10
ENDBRANCH   3   9
BRANCH   5  40
ATOM     40  O   UNL     1      -5.853   0.439  -1.567  1.00  0.00    -0.385 OA
ATOM     41  H   UNL     1      -6.086  -0.349  -2.122  1.00  0.00     0.211 HD
ENDBRANCH   5  40
BRANCH   7  42
ATOM     42  O   UNL     1      -5.694  -1.141   2.505  1.00  0.00    -0.388 OA
ATOM     43  H   UNL     1      -5.550  -0.164   2.429  1.00  0.00     0.211 HD
ENDBRANCH   7  42
ENDBRANCH   1   2
BRANCH   1  44
ATOM     44  C   UNL     1      -8.620   1.067   0.219  1.00  0.00     0.282 C 
ATOM     45  O   UNL     1      -8.454   2.479   0.118  1.00  0.00    -0.341 OA
ATOM     46  C   UNL     1      -9.945   0.711   0.942  1.00  0.00     0.202 C 
ATOM     47  C   UNL     1      -9.516   3.129  -0.578  1.00  0.00     0.178 C 
ATOM     48  C   UNL     1     -11.159   1.324   0.203  1.00  0.00     0.179 C 
ATOM     49  C   UNL     1     -10.886   2.836   0.093  1.00  0.00     0.177 C 
BRANCH  46  50
ATOM     50  O   UNL     1     -10.110  -0.674   1.140  1.00  0.00    -0.385 OA
ATOM     51  H   UNL     1      -9.772  -1.157   0.344  1.00  0.00     0.211 HD
ENDBRANCH  46  50
BRANCH  47  52
ATOM     52  C   UNL     1      -9.446   2.881  -2.105  1.00  0.00     0.191 C 
BRANCH  52  53
ATOM     53  O   UNL     1      -8.183   3.245  -2.596  1.00  0.00    -0.394 OA
ATOM     54  H   UNL     1      -8.206   4.226  -2.743  1.00  0.00     0.210 HD
ENDBRANCH  52  53
ENDBRANCH  47  52
BRANCH  48  55
ATOM     55  O   UNL     1     -11.383   0.785  -1.082  1.00  0.00    -0.387 OA
ATOM     56  H   UNL     1     -10.931  -0.089  -1.176  1.00  0.00     0.211 HD
ENDBRANCH  48  55
BRANCH  49  57
ATOM     57  O   UNL     1     -11.944   3.533  -0.519  1.00  0.00    -0.387 OA
ATOM     58  H   UNL     1     -12.140   3.104  -1.390  1.00  0.00     0.211 HD
ENDBRANCH  49  57
ENDBRANCH   1  44
TORSDOF 11
