REMARK SMILES C[C@@H]1CN[C@@]2(O[C@H]3C[C@H]4[C@@H]5CC=C6C[C@H](O[C@H]7O[C@@H](CO)[C@H](O[C@H]8O[C@@H](C)[C@H](O)[C@@H](O)[C@@H]8O[C@H]8O[C@@H](C)[C@H](O)[C@@H](O)[C@@H]8O)[C@@H](O)[C@@H]7O)CC[C@@]6(C)[C@H]5CC[C@]4(C)[C@H]3[C@@H]2C)[C@@H](O)C1
REMARK SMILES IDX 23 1 22 2 17 3 18 4 46 5 19 6 44 7 16 8 15 9 2 10 3 11 62 12
REMARK SMILES IDX 4 13 60 14 5 15 6 16 58 17 7 18 57 19 8 20 55 21 9 22 54 23
REMARK SMILES IDX 10 24 53 25 11 26 52 27 12 28 50 29 13 30 49 31 14 32 48 33
REMARK SMILES IDX 1 34 59 36 56 37 51 38 61 39 47 41 20 43 21 44 45 46 24 48
REMARK SMILES IDX 25 49 32 50 26 51 30 52 28 53 27 54 33 55 34 56 35 57 42 58
REMARK SMILES IDX 36 59 40 60 38 61 37 62 43 63 41 65 39 67 31 69 29 71
REMARK H PARENT 4 35 61 40 47 42 21 45 45 47 43 64 41 66 39 68 31 70 29 72
ROOT
ATOM      1  O   UNL     1      -6.630  -0.685   1.718  1.00  0.00    -0.341 OA
ENDROOT
BRANCH   1   2
ATOM      2  C   UNL     1      -5.362  -0.842   1.084  1.00  0.00     0.184 C 
ATOM      3  C   UNL     1      -2.519  -0.424   0.689  1.00  0.00     0.282 C 
ATOM      4  O   UNL     1      -3.527   0.345   0.048  1.00  0.00    -0.341 OA
ATOM      5  C   UNL     1      -3.061  -1.790   1.187  1.00  0.00     0.202 C 
ATOM      6  C   UNL     1      -4.685   0.525   0.845  1.00  0.00     0.178 C 
ATOM      7  C   UNL     1      -4.384  -1.657   1.956  1.00  0.00     0.180 C 
BRANCH   3   8
ATOM      8  O   UNL     1      -1.587  -0.730  -0.324  1.00  0.00    -0.346 OA
BRANCH   8   9
ATOM      9  C   UNL     1      -0.223  -0.517  -0.034  1.00  0.00     0.125 C 
ATOM     10  C   UNL     1      12.626  -0.150   1.305  1.00  0.00     0.002 C 
ATOM     11  C   UNL     1      12.627  -0.282  -0.221  1.00  0.00     0.087 C 
ATOM     12  C   UNL     1      12.167   1.268   1.717  1.00  0.00     0.041 C 
ATOM     13  N   UNL     1      11.256  -0.126  -0.767  1.00  0.00    -0.287 NA
ATOM     14  C   UNL     1      11.172   1.877   0.704  1.00  0.00     0.162 C 
ATOM     15  C   UNL     1      10.335   0.777  -0.004  1.00  0.00     0.148 C 
ATOM     16  O   UNL     1       9.591   0.034   0.959  1.00  0.00    -0.354 OA
ATOM     17  C   UNL     1       9.271   1.385  -0.940  1.00  0.00     0.042 C 
ATOM     18  C   UNL     1       8.521  -0.547   0.235  1.00  0.00     0.125 C 
ATOM     19  C   UNL     1       8.291   0.232  -1.070  1.00  0.00     0.031 C 
ATOM     20  C   UNL     1       7.163  -0.616   0.951  1.00  0.00     0.037 C 
ATOM     21  C   UNL     1       6.750   0.499  -1.131  1.00  0.00    -0.024 C 
ATOM     22  C   UNL     1       6.239  -0.676  -0.273  1.00  0.00     0.002 C 
ATOM     23  C   UNL     1       6.150   0.355  -2.545  1.00  0.00     0.008 C 
ATOM     24  C   UNL     1       4.699  -0.690  -0.108  1.00  0.00     0.000 C 
ATOM     25  C   UNL     1       4.608   0.362  -2.482  1.00  0.00     0.005 C 
ATOM     26  C   UNL     1       4.279  -1.950   0.680  1.00  0.00     0.031 C 
ATOM     27  C   UNL     1       4.052  -0.741  -1.518  1.00  0.00     0.003 C 
ATOM     28  C   UNL     1       2.798  -2.207   0.632  1.00  0.00    -0.027 C 
ATOM     29  C   UNL     1       2.473  -0.764  -1.435  1.00  0.00    -0.008 C 
ATOM     30  C   UNL     1       1.981  -1.667  -0.296  1.00  0.00    -0.065 C 
ATOM     31  C   UNL     1       1.829   0.623  -1.117  1.00  0.00     0.014 C 
ATOM     32  C   UNL     1       0.487  -1.879  -0.199  1.00  0.00     0.063 C 
ATOM     33  C   UNL     1       0.285   0.535  -1.049  1.00  0.00     0.033 C 
ATOM     34  C   UNL     1      13.981  -0.486   1.933  1.00  0.00     0.009 C 
ATOM     35  H   UNL     1      10.827  -1.067  -0.918  1.00  0.00     0.125 HD
ATOM     36  C   UNL     1       9.758   1.945  -2.281  1.00  0.00     0.013 C 
ATOM     37  C   UNL     1       6.362   1.901  -0.535  1.00  0.00     0.012 C 
ATOM     38  C   UNL     1       1.976  -1.304  -2.814  1.00  0.00     0.016 C 
BRANCH  14  39
ATOM     39  O   UNL     1      10.400   2.877   1.321  1.00  0.00    -0.389 OA
ATOM     40  H   UNL     1       9.798   2.428   1.969  1.00  0.00     0.211 HD
ENDBRANCH  14  39
ENDBRANCH   8   9
ENDBRANCH   3   8
BRANCH   5  41
ATOM     41  O   UNL     1      -2.097  -2.475   1.943  1.00  0.00    -0.385 OA
ATOM     42  H   UNL     1      -1.901  -1.918   2.745  1.00  0.00     0.211 HD
ENDBRANCH   5  41
BRANCH   6  43
ATOM     43  C   UNL     1      -5.623   1.484   0.106  1.00  0.00     0.191 C 
BRANCH  43  44
ATOM     44  O   UNL     1      -4.977   2.702  -0.155  1.00  0.00    -0.394 OA
ATOM     45  H   UNL     1      -5.007   3.228   0.686  1.00  0.00     0.210 HD
ENDBRANCH  43  44
ENDBRANCH   6  43
BRANCH   7  46
ATOM     46  O   UNL     1      -4.891  -2.927   2.279  1.00  0.00    -0.387 OA
ATOM     47  H   UNL     1      -5.071  -3.407   1.429  1.00  0.00     0.211 HD
ENDBRANCH   7  46
ENDBRANCH   1   2
BRANCH   1  48
ATOM     48  C   UNL     1      -7.560  -1.694   1.324  1.00  0.00     0.282 C 
ATOM     49  O   UNL     1      -7.600  -2.733   2.311  1.00  0.00    -0.344 OA
ATOM     50  C   UNL     1      -8.931  -1.055   0.917  1.00  0.00     0.209 C 
ATOM     51  C   UNL     1      -8.761  -2.755   3.116  1.00  0.00     0.150 C 
ATOM     52  C   UNL     1      -9.939  -2.207   0.876  1.00  0.00     0.180 C 
ATOM     53  C   UNL     1     -10.071  -2.854   2.275  1.00  0.00     0.174 C 
ATOM     54  C   UNL     1      -8.728  -1.610   4.148  1.00  0.00     0.041 C 
BRANCH  50  55
ATOM     55  O   UNL     1      -8.798  -0.472  -0.375  1.00  0.00    -0.338 OA
BRANCH  55  56
ATOM     56  C   UNL     1      -9.578   0.704  -0.539  1.00  0.00     0.282 C 
ATOM     57  O   UNL     1      -8.745   1.826  -0.300  1.00  0.00    -0.344 OA
ATOM     58  C   UNL     1     -10.103   0.737  -1.992  1.00  0.00     0.202 C 
ATOM     59  C   UNL     1      -9.465   3.045  -0.401  1.00  0.00     0.150 C 
ATOM     60  C   UNL     1     -10.883   2.047  -2.228  1.00  0.00     0.179 C 
ATOM     61  C   UNL     1      -9.992   3.242  -1.845  1.00  0.00     0.174 C 
ATOM     62  C   UNL     1      -8.521   4.185  -0.016  1.00  0.00     0.041 C 
BRANCH  58  63
ATOM     63  O   UNL     1     -10.901  -0.385  -2.274  1.00  0.00    -0.385 OA
ATOM     64  H   UNL     1     -11.721  -0.319  -1.717  1.00  0.00     0.211 HD
ENDBRANCH  58  63
BRANCH  60  65
ATOM     65  O   UNL     1     -11.332   2.146  -3.556  1.00  0.00    -0.387 OA
ATOM     66  H   UNL     1     -10.532   2.143  -4.145  1.00  0.00     0.211 HD
ENDBRANCH  60  65
BRANCH  61  67
ATOM     67  O   UNL     1     -10.696   4.453  -1.982  1.00  0.00    -0.388 OA
ATOM     68  H   UNL     1     -11.447   4.438  -1.333  1.00  0.00     0.211 HD
ENDBRANCH  61  67
ENDBRANCH  55  56
ENDBRANCH  50  55
BRANCH  52  69
ATOM     69  O   UNL     1     -11.196  -1.834   0.376  1.00  0.00    -0.387 OA
ATOM     70  H   UNL     1     -11.576  -1.159   0.996  1.00  0.00     0.211 HD
ENDBRANCH  52  69
BRANCH  53  71
ATOM     71  O   UNL     1     -10.490  -4.189   2.124  1.00  0.00    -0.388 OA
ATOM     72  H   UNL     1      -9.734  -4.696   1.724  1.00  0.00     0.211 HD
ENDBRANCH  53  71
ENDBRANCH   1  48
TORSDOF 16
