REMARK SMILES C[C@H]1CC[C@]2(OC1)O[C@@H]1C[C@H]3[C@@H]4CC(=O)[C@@H]5C[C@H](O[C@H]6O[C@@H](CO)[C@H](O)[C@H](O)[C@@H]6O[C@@H]6OC[C@@H](O)[C@H](O)[C@@H]6O)CC[C@@]5(C)[C@@H]4CC[C@]3(C)[C@H]1[C@H]2C
REMARK SMILES IDX 20 1 21 2 22 3 25 4 27 5 29 6 19 7 18 8 2 9 3 10 7 11 4 12
REMARK SMILES IDX 6 13 5 14 8 15 50 16 9 17 49 18 10 19 47 20 11 21 46 22
REMARK SMILES IDX 12 23 45 24 13 25 44 26 14 27 42 28 15 29 16 30 41 31 17 32
REMARK SMILES IDX 40 33 1 34 51 35 48 36 43 37 30 38 31 39 32 40 38 41 33 42
REMARK SMILES IDX 36 43 34 44 39 45 37 47 35 49 23 51 24 52 28 54 26 56
REMARK H PARENT 39 46 37 48 35 50 24 53 28 55 26 57
ROOT
ATOM      1  C   UNL     1      -5.287  -0.143  -0.470  1.00  0.00     0.282 C 
ATOM      2  O   UNL     1      -6.043   0.320  -1.595  1.00  0.00    -0.341 OA
ATOM      3  C   UNL     1      -6.988  -0.616  -2.144  1.00  0.00     0.178 C 
ATOM      4  C   UNL     1      -6.594  -2.095  -1.879  1.00  0.00     0.177 C 
ATOM      5  C   UNL     1      -6.447  -2.380  -0.359  1.00  0.00     0.180 C 
ATOM      6  C   UNL     1      -6.104  -1.088   0.427  1.00  0.00     0.209 C 
ENDROOT
BRANCH   1   7
ATOM      7  O   UNL     1      -4.136  -0.818  -0.938  1.00  0.00    -0.347 OA
BRANCH   7   8
ATOM      8  C   UNL     1      -2.903  -0.208  -0.613  1.00  0.00     0.122 C 
ATOM      9  C   UNL     1      10.698   0.393  -0.531  1.00  0.00     0.012 C 
ATOM     10  C   UNL     1       9.696  -0.363  -1.440  1.00  0.00     0.011 C 
ATOM     11  C   UNL     1      10.384   0.158   0.957  1.00  0.00     0.167 C 
ATOM     12  C   UNL     1       8.573  -1.008  -0.614  1.00  0.00     0.066 C 
ATOM     13  O   UNL     1       9.066   0.583   1.260  1.00  0.00    -0.349 OA
ATOM     14  C   UNL     1       8.034  -0.022   0.468  1.00  0.00     0.171 C 
ATOM     15  O   UNL     1       7.199  -0.794   1.349  1.00  0.00    -0.346 OA
ATOM     16  C   UNL     1       7.141   1.103  -0.209  1.00  0.00     0.052 C 
ATOM     17  C   UNL     1       5.971  -0.119   1.367  1.00  0.00     0.126 C 
ATOM     18  C   UNL     1       5.797   0.448  -0.006  1.00  0.00     0.033 C 
ATOM     19  C   UNL     1       4.665  -0.896   1.645  1.00  0.00     0.037 C 
ATOM     20  C   UNL     1       4.323   0.933  -0.006  1.00  0.00    -0.024 C 
ATOM     21  C   UNL     1       3.723  -0.399   0.516  1.00  0.00     0.002 C 
ATOM     22  C   UNL     1       3.738   1.274  -1.414  1.00  0.00     0.008 C 
ATOM     23  C   UNL     1       2.193  -0.365   0.711  1.00  0.00     0.004 C 
ATOM     24  C   UNL     1       2.469   0.451  -1.771  1.00  0.00     0.005 C 
ATOM     25  C   UNL     1       1.691  -1.762   1.124  1.00  0.00     0.080 C 
ATOM     26  C   UNL     1       1.493   0.284  -0.562  1.00  0.00    -0.001 C 
ATOM     27  C   UNL     1       0.196  -1.874   1.061  1.00  0.00     0.136 C 
ATOM     28  C   UNL     1       0.098  -0.367  -0.938  1.00  0.00    -0.020 C 
ATOM     29  O   UNL     1      -0.326  -2.924   1.409  1.00  0.00    -0.299 OA
ATOM     30  C   UNL     1      -0.620  -0.780   0.392  1.00  0.00     0.065 C 
ATOM     31  C   UNL     1      -0.786   0.698  -1.664  1.00  0.00     0.010 C 
ATOM     32  C   UNL     1      -2.074  -1.251   0.144  1.00  0.00     0.044 C 
ATOM     33  C   UNL     1      -2.215   0.197  -1.925  1.00  0.00     0.033 C 
ATOM     34  C   UNL     1      12.149   0.028  -0.858  1.00  0.00     0.010 C 
ATOM     35  C   UNL     1       7.281   2.487   0.450  1.00  0.00     0.014 C 
ATOM     36  C   UNL     1       4.019   2.112   0.976  1.00  0.00     0.012 C 
ATOM     37  C   UNL     1       0.300  -1.598  -1.882  1.00  0.00     0.012 C 
ENDBRANCH   7   8
ENDBRANCH   1   7
BRANCH   6  38
ATOM     38  O   UNL     1      -7.311  -0.416   0.743  1.00  0.00    -0.338 OA
BRANCH  38  39
ATOM     39  C   UNL     1      -7.468  -0.064   2.106  1.00  0.00     0.282 C 
ATOM     40  O   UNL     1      -8.732  -0.555   2.571  1.00  0.00    -0.347 OA
ATOM     41  C   UNL     1      -7.270   1.481   2.300  1.00  0.00     0.202 C 
ATOM     42  C   UNL     1      -9.780   0.292   2.152  1.00  0.00     0.198 C 
ATOM     43  C   UNL     1      -8.279   1.971   3.352  1.00  0.00     0.179 C 
ATOM     44  C   UNL     1      -9.731   1.640   2.915  1.00  0.00     0.171 C 
BRANCH  41  45
ATOM     45  O   UNL     1      -7.381   2.211   1.098  1.00  0.00    -0.385 OA
ATOM     46  H   UNL     1      -8.249   2.016   0.669  1.00  0.00     0.211 HD
ENDBRANCH  41  45
BRANCH  43  47
ATOM     47  O   UNL     1      -8.123   3.330   3.667  1.00  0.00    -0.387 OA
ATOM     48  H   UNL     1      -8.328   3.851   2.847  1.00  0.00     0.211 HD
ENDBRANCH  43  47
BRANCH  44  49
ATOM     49  O   UNL     1     -10.575   1.637   4.040  1.00  0.00    -0.388 OA
ATOM     50  H   UNL     1     -10.357   0.833   4.578  1.00  0.00     0.211 HD
ENDBRANCH  44  49
ENDBRANCH  38  39
ENDBRANCH   6  38
BRANCH   3  51
ATOM     51  C   UNL     1      -7.075  -0.354  -3.656  1.00  0.00     0.191 C 
BRANCH  51  52
ATOM     52  O   UNL     1      -7.431   0.978  -3.906  1.00  0.00    -0.394 OA
ATOM     53  H   UNL     1      -8.407   1.047  -3.737  1.00  0.00     0.210 HD
ENDBRANCH  51  52
ENDBRANCH   3  51
BRANCH   5  54
ATOM     54  O   UNL     1      -7.571  -3.013   0.203  1.00  0.00    -0.387 OA
ATOM     55  H   UNL     1      -8.373  -2.472  -0.020  1.00  0.00     0.211 HD
ENDBRANCH   5  54
BRANCH   4  56
ATOM     56  O   UNL     1      -7.431  -3.035  -2.507  1.00  0.00    -0.387 OA
ATOM     57  H   UNL     1      -8.370  -2.766  -2.328  1.00  0.00     0.211 HD
ENDBRANCH   4  56
TORSDOF 11
