REMARK  Name = 
REMARK  12 active torsions:
REMARK  status: ('A' for Active; 'I' for Inactive)
REMARK    1  A    between atoms: C_1  and  C_2
REMARK    2  A    between atoms: C_29  and  C_30
REMARK    3  A    between atoms: C_34  and  O_35
REMARK    4  A    between atoms: C_40  and  C_41
REMARK    5  A    between atoms: C_40  and  O_42
REMARK    6  A    between atoms: C_45  and  C_46
REMARK    7  A    between atoms: C_47  and  C_48
REMARK    8  A    between atoms: C_53  and  C_54
REMARK    9  A    between atoms: C_55  and  C_56
REMARK   10  A    between atoms: C_55  and  O_57
REMARK   11  A    between atoms: C_62  and  C_63
REMARK   12  A    between atoms: C_62  and  C_64
REMARK                            x       y       z     vdW  Elec       q    Type
REMARK                         _______ _______ _______ _____ _____    ______ ____
ROOT
ATOM      1  C   UNL     1      25.526  61.338  38.083  0.00  0.00    +0.000 C 
ATOM      2  C   UNL     1      25.083  60.436  39.236  0.00  0.00    +0.000 C 
ATOM      3  C   UNL     1      25.936  60.541  40.494  0.00  0.00    +0.000 C 
ATOM      4  C   UNL     1      24.981  59.913  41.518  0.00  0.00    +0.000 C 
ATOM      5  C   UNL     1      25.628  58.576  41.872  0.00  0.00    +0.000 C 
ATOM      6  C   UNL     1      27.123  58.981  41.949  0.00  0.00    +0.000 C 
ATOM      7  C   UNL     1      27.323  59.837  43.200  0.00  0.00    +0.000 C 
ATOM      8  O   UNL     1      27.123  61.040  43.264  0.00  0.00    +0.000 OA
ATOM      9  C   UNL     1      27.941  59.082  44.325  0.00  0.00    +0.000 C 
ATOM     10  C   UNL     1      27.968  57.648  43.775  0.00  0.00    +0.000 C 
ATOM     11  C   UNL     1      28.155  57.850  42.269  0.00  0.00    +0.000 C 
ATOM     12  C   UNL     1      28.061  56.497  41.538  0.00  0.00    +0.000 C 
ATOM     13  C   UNL     1      29.149  55.546  42.089  0.00  0.00    +0.000 C 
ATOM     14  C   UNL     1      28.979  55.324  43.612  0.00  0.00    +0.000 C 
ATOM     15  C   UNL     1      30.053  54.349  44.168  0.00  0.00    +0.000 C 
ATOM     16  C   UNL     1      30.009  54.255  45.679  0.00  0.00    +0.000 A 
ATOM     17  N   UNL     1      30.756  53.306  46.311  0.00  0.00    +0.000 NA
ATOM     18  C   UNL     1      30.684  53.133  47.657  0.00  0.00    +0.000 A 
ATOM     19  C   UNL     1      29.776  53.902  48.405  0.00  0.00    +0.000 A 
ATOM     20  C   UNL     1      29.451  53.481  49.818  0.00  0.00    +0.000 C 
ATOM     21  C   UNL     1      29.363  51.934  49.748  0.00  0.00    +0.000 C 
ATOM     22  C   UNL     1      28.592  51.239  50.878  0.00  0.00    +0.000 C 
ATOM     23  C   UNL     1      28.355  49.772  50.459  0.00  0.00    +0.000 C 
ATOM     24  C   UNL     1      29.683  49.027  50.199  0.00  0.00    +0.000 C 
ATOM     25  C   UNL     1      30.597  49.795  49.143  0.00  0.00    +0.000 C 
ATOM     26  C   UNL     1      31.947  49.019  48.914  0.00  0.00    +0.000 C 
ATOM     27  C   UNL     1      31.689  47.560  48.620  0.00  0.00    +0.000 C 
ATOM     28  O   UNL     1      32.109  47.043  47.596  0.00  0.00    +0.000 OA
ATOM     29  C   UNL     1      30.814  46.806  49.596  0.00  0.00    +0.000 C 
ATOM     30  C   UNL     1      31.572  46.748  50.976  0.00  0.00    +0.000 C 
ATOM     31  C   UNL     1      30.346  45.376  49.149  0.00  0.00    +0.000 C 
ATOM     32  C   UNL     1      28.860  45.295  49.513  0.00  0.00    +0.000 C 
ATOM     33  C   UNL     1      28.581  46.534  50.394  0.00  0.00    +0.000 C 
ATOM     34  C   UNL     1      29.458  47.573  49.648  0.00  0.00    +0.000 C 
ATOM     35  O   UNL     1      28.578  44.026  50.068  0.00  0.00    +0.000 OA
ATOM     36  C   UNL     1      29.664  43.196  49.670  0.00  0.00    +0.000 C 
ATOM     37  C   UNL     1      29.684  41.945  50.614  0.00  0.00    +0.000 C 
ATOM     38  C   UNL     1      30.473  40.797  49.983  0.00  0.00    +0.000 C 
ATOM     39  C   UNL     1      29.963  40.476  48.543  0.00  0.00    +0.000 C 
ATOM     40  C   UNL     1      29.218  39.129  48.490  0.00  0.00    +0.000 C 
ATOM     41  C   UNL     1      28.987  41.580  48.059  0.00  0.00    +0.000 C 
ATOM     42  O   UNL     1      29.529  42.862  48.276  0.00  0.00    +0.000 OA
ATOM     43  C   UNL     1      30.891  44.121  49.828  0.00  0.00    +0.000 C 
ATOM     44  C   UNL     1      32.241  43.686  49.240  0.00  0.00    +0.000 C 
ATOM     45  C   UNL     1      30.797  51.309  49.517  0.00  0.00    +0.000 C 
ATOM     46  C   UNL     1      31.678  51.427  50.808  0.00  0.00    +0.000 C 
ATOM     47  C   UNL     1      31.534  52.114  48.369  0.00  0.00    +0.000 C 
ATOM     48  N   UNL     1      29.060  54.873  47.785  0.00  0.00    +0.000 NA
ATOM     49  C   UNL     1      29.202  55.118  46.457  0.00  0.00    +0.000 A 
ATOM     50  C   UNL     1      28.477  56.295  45.858  0.00  0.00    +0.000 C 
ATOM     51  C   UNL     1      28.979  56.651  44.427  0.00  0.00    +0.000 C 
ATOM     52  C   UNL     1      30.412  57.273  44.500  0.00  0.00    +0.000 C 
ATOM     53  C   UNL     1      27.272  59.729  40.579  0.00  0.00    +0.000 C 
ATOM     54  C   UNL     1      28.507  60.653  40.449  0.00  0.00    +0.000 C 
ATOM     55  O   UNL     1      23.675  59.838  40.986  0.00  0.00    +0.000 OA
ATOM     56  C   UNL     1      23.695  60.677  39.843  0.00  0.00    +0.000 C 
ATOM     57  C   UNL     1      23.395  62.137  40.238  0.00  0.00    +0.000 C 
ATOM     58  C   UNL     1      21.930  62.007  40.488  0.00  0.00    +0.000 C 
ATOM     59  C   UNL     1      21.522  61.112  39.306  0.00  0.00    +0.000 C 
ATOM     60  C   UNL     1      20.320  60.244  39.706  0.00  0.00    +0.000 C 
ATOM     61  C   UNL     1      21.158  61.961  38.074  0.00  0.00    +0.000 C 
ATOM     62  O   UNL     1      22.641  60.287  38.978  0.00  0.00    +0.000 OA
ENDROOT
BRANCH  34  63
ATOM     63  O   UNL     1      28.948  47.699  48.324  0.00  0.00    +0.000 OA
ATOM     64  H   UNL     1      29.701  47.619  47.685  0.00  0.00    +0.000 HD
ENDBRANCH  34  63
BRANCH  39  65
ATOM     65  O   UNL     1      31.060  40.436  47.658  0.00  0.00    +0.000 OA
ATOM     66  H   UNL     1      30.976  39.615  47.106  0.00  0.00    +0.000 HD
ENDBRANCH  39  65
BRANCH  53  67
ATOM     67  O   UNL     1      27.281  58.774  39.535  0.00  0.00    +0.000 OA
ATOM     68  H   UNL     1      28.141  58.831  39.045  0.00  0.00    +0.000 HD
ENDBRANCH  53  67
TORSDOF 3
