MODEL 1
REMARK VINA RESULT:   -13.185      0.000      0.000
REMARK INTER + INTRA:         -26.581
REMARK INTER:                 -25.132
REMARK INTRA:                  -1.449
REMARK UNBOUND:                -1.449
REMARK SMILES C[C@@H]1O[C@@H](O[C@H]2[C@H](O)[C@@H](O)[C@H](OC[C@H]3O[C@@H](OC(=O)[C@H]4CC(C)(C)C[C@H]5C6=CC[C@@]7(C)[C@@](C)(CC[C@H]8[C@](C)(CO)[C@@H](O)CC[C@@]87C)[C@]6(C)CC[C@@H]45)[C@H](O)[C@@H](O)[C@@H]3O)O[C@@H]2CO)[C@H](O)[C@H](O)[C@H]1O
REMARK SMILES IDX 14 1 15 2 16 3 52 4 54 5 56 6 13 7 12 8 11 9 6 10 7 11 59 12
REMARK SMILES IDX 9 13 58 14 5 15 4 16 2 17 3 18 66 19 64 20 62 21 1 22 67 23
REMARK SMILES IDX 65 25 63 27 8 29 60 31 61 32 10 34 57 36 17 38 18 39 19 40
REMARK SMILES IDX 20 41 21 42 51 43 22 44 50 45 26 46 25 47 49 48 27 49 47 50
REMARK SMILES IDX 28 51 32 52 29 53 30 54 34 55 45 56 35 57 44 58 36 59 43 60
REMARK SMILES IDX 37 61 41 62 23 63 24 64 48 65 33 66 31 67 46 68 38 69 39 70
REMARK SMILES IDX 40 71 42 73 55 75 53 77
REMARK H PARENT 67 24 65 26 63 28 8 30 61 33 10 35 57 37 40 72 42 74 55 76
REMARK H PARENT 53 78
ROOT
ATOM      1  C   UNL     1      25.285  59.450  40.705  1.00  0.00     0.180 C 
ATOM      2  O   UNL     1      26.257  60.163  41.442  1.00  0.00    -0.332 OA
ATOM      3  C   UNL     1      27.592  59.685  41.250  1.00  0.00     0.342 C 
ATOM      4  C   UNL     1      27.688  58.178  40.834  1.00  0.00     0.214 C 
ATOM      5  C   UNL     1      26.595  57.406  41.587  1.00  0.00     0.180 C 
ATOM      6  C   UNL     1      25.193  57.968  41.191  1.00  0.00     0.177 C 
ENDROOT
BRANCH   1   7
ATOM      7  C   UNL     1      23.953  60.185  40.857  1.00  0.00     0.198 C 
BRANCH   7   8
ATOM      8  O   UNL     1      23.202  60.197  39.655  1.00  0.00    -0.347 OA
BRANCH   8   9
ATOM      9  C   UNL     1      23.973  60.823  38.628  1.00  0.00     0.282 C 
ATOM     10  C   UNL     1      21.734  60.974  36.978  1.00  0.00     0.184 C 
ATOM     11  C   UNL     1      22.988  60.444  36.278  1.00  0.00     0.180 C 
ATOM     12  C   UNL     1      22.184  62.207  37.831  1.00  0.00     0.178 C 
ATOM     13  C   UNL     1      24.002  59.962  37.333  1.00  0.00     0.202 C 
ATOM     14  O   UNL     1      23.491  62.134  38.409  1.00  0.00    -0.341 OA
BRANCH  10  15
ATOM     15  O   UNL     1      20.805  61.490  36.048  1.00  0.00    -0.341 OA
BRANCH  15  16
ATOM     16  C   UNL     1      21.240  62.597  35.281  1.00  0.00     0.282 C 
ATOM     17  C   UNL     1      19.168  63.647  34.968  1.00  0.00     0.150 C 
ATOM     18  O   UNL     1      20.437  63.743  35.580  1.00  0.00    -0.344 OA
ATOM     19  C   UNL     1      19.293  63.831  33.424  1.00  0.00     0.174 C 
ATOM     20  C   UNL     1      20.685  63.346  32.907  1.00  0.00     0.179 C 
ATOM     21  C   UNL     1      21.151  62.170  33.778  1.00  0.00     0.202 C 
ATOM     22  C   UNL     1      18.218  64.674  35.579  1.00  0.00     0.041 C 
BRANCH  19  23
ATOM     23  O   UNL     1      18.232  63.158  32.788  1.00  0.00    -0.388 OA
ATOM     24  H   UNL     1      17.430  63.223  33.371  1.00  0.00     0.211 HD
ENDBRANCH  19  23
BRANCH  20  25
ATOM     25  O   UNL     1      21.650  64.377  32.938  1.00  0.00    -0.387 OA
ATOM     26  H   UNL     1      21.311  65.166  32.443  1.00  0.00     0.211 HD
ENDBRANCH  20  25
BRANCH  21  27
ATOM     27  O   UNL     1      22.349  61.592  33.326  1.00  0.00    -0.385 OA
ATOM     28  H   UNL     1      22.144  61.085  32.497  1.00  0.00     0.211 HD
ENDBRANCH  21  27
ENDBRANCH  15  16
ENDBRANCH  10  15
BRANCH  11  29
ATOM     29  O   UNL     1      22.726  59.420  35.353  1.00  0.00    -0.387 OA
ATOM     30  H   UNL     1      21.800  59.551  35.020  1.00  0.00     0.211 HD
ENDBRANCH  11  29
BRANCH  12  31
ATOM     31  C   UNL     1      21.139  62.584  38.890  1.00  0.00     0.191 C 
BRANCH  31  32
ATOM     32  O   UNL     1      20.380  61.474  39.287  1.00  0.00    -0.394 OA
ATOM     33  H   UNL     1      20.901  60.667  39.037  1.00  0.00     0.210 HD
ENDBRANCH  31  32
ENDBRANCH  12  31
BRANCH  13  34
ATOM     34  O   UNL     1      25.288  59.920  36.752  1.00  0.00    -0.385 OA
ATOM     35  H   UNL     1      25.707  59.064  37.020  1.00  0.00     0.211 HD
ENDBRANCH  13  34
ENDBRANCH   8   9
ENDBRANCH   7   8
ENDBRANCH   1   7
BRANCH   6  36
ATOM     36  O   UNL     1      24.592  57.179  40.194  1.00  0.00    -0.387 OA
ATOM     37  H   UNL     1      25.019  56.284  40.203  1.00  0.00     0.211 HD
ENDBRANCH   6  36
BRANCH   3  38
ATOM     38  O   UNL     1      28.237  59.842  42.465  1.00  0.00    -0.432 OA
BRANCH  38  39
ATOM     39  C   UNL     1      28.665  61.011  43.008  1.00  0.00     0.311 C 
ATOM     40  O   UNL     1      28.553  62.059  42.388  1.00  0.00    -0.252 OA
BRANCH  39  41
ATOM     41  C   UNL     1      29.274  60.958  44.398  1.00  0.00     0.103 C 
ATOM     42  C   UNL     1      28.180  61.293  45.428  1.00  0.00     0.022 C 
ATOM     43  C   UNL     1      29.990  59.632  44.860  1.00  0.00     0.010 C 
ATOM     44  C   UNL     1      27.043  60.199  45.503  1.00  0.00    -0.034 C 
ATOM     45  C   UNL     1      30.982  59.065  43.822  1.00  0.00     0.006 C 
ATOM     46  C   UNL     1      29.024  58.600  45.550  1.00  0.00     0.020 C 
ATOM     47  C   UNL     1      27.571  58.772  45.113  1.00  0.00     0.014 C 
ATOM     48  C   UNL     1      31.583  57.748  44.331  1.00  0.00     0.012 C 
ATOM     49  C   UNL     1      29.506  57.147  45.600  1.00  0.00    -0.064 C 
ATOM     50  C   UNL     1      30.512  56.606  44.556  1.00  0.00    -0.005 C 
ATOM     51  C   UNL     1      29.084  56.419  46.674  1.00  0.00    -0.026 C 
ATOM     52  C   UNL     1      31.182  55.218  45.110  1.00  0.00    -0.017 C 
ATOM     53  C   UNL     1      29.475  54.995  46.997  1.00  0.00     0.035 C 
ATOM     54  C   UNL     1      30.072  54.231  45.781  1.00  0.00    -0.017 C 
ATOM     55  C   UNL     1      31.903  54.450  43.970  1.00  0.00     0.008 C 
ATOM     56  C   UNL     1      30.646  52.729  46.182  1.00  0.00    -0.023 C 
ATOM     57  C   UNL     1      32.511  53.107  44.414  1.00  0.00     0.005 C 
ATOM     58  C   UNL     1      29.485  51.713  46.511  1.00  0.00     0.010 C 
ATOM     59  C   UNL     1      31.418  52.125  44.921  1.00  0.00     0.006 C 
ATOM     60  C   UNL     1      29.955  50.259  46.737  1.00  0.00     0.033 C 
ATOM     61  C   UNL     1      31.907  50.604  45.020  1.00  0.00     0.020 C 
ATOM     62  C   UNL     1      30.683  49.732  45.486  1.00  0.00     0.123 C 
ATOM     63  C   UNL     1      25.859  60.532  44.572  1.00  0.00     0.011 C 
ATOM     64  C   UNL     1      26.499  60.200  46.952  1.00  0.00     0.011 C 
ATOM     65  C   UNL     1      29.822  56.437  43.144  1.00  0.00     0.017 C 
ATOM     66  C   UNL     1      32.292  55.646  46.138  1.00  0.00     0.013 C 
ATOM     67  C   UNL     1      28.828  54.035  44.838  1.00  0.00     0.013 C 
ATOM     68  C   UNL     1      31.506  52.770  47.500  1.00  0.00     0.012 C 
ATOM     69  C   UNL     1      33.159  50.411  45.922  1.00  0.00     0.017 C 
BRANCH  61  70
ATOM     70  C   UNL     1      32.317  50.099  43.590  1.00  0.00     0.165 C 
BRANCH  70  71
ATOM     71  O   UNL     1      33.704  49.888  43.477  1.00  0.00    -0.396 OA
ATOM     72  H   UNL     1      34.119  50.157  44.338  1.00  0.00     0.210 HD
ENDBRANCH  70  71
ENDBRANCH  61  70
BRANCH  62  73
ATOM     73  O   UNL     1      31.022  48.376  45.652  1.00  0.00    -0.392 OA
ATOM     74  H   UNL     1      30.637  47.868  44.891  1.00  0.00     0.210 HD
ENDBRANCH  62  73
ENDBRANCH  39  41
ENDBRANCH  38  39
ENDBRANCH   3  38
BRANCH   5  75
ATOM     75  O   UNL     1      26.826  57.494  42.979  1.00  0.00    -0.387 OA
ATOM     76  H   UNL     1      25.958  57.487  43.460  1.00  0.00     0.211 HD
ENDBRANCH   5  75
BRANCH   4  77
ATOM     77  O   UNL     1      27.498  58.024  39.450  1.00  0.00    -0.384 OA
ATOM     78  H   UNL     1      27.044  58.847  39.129  1.00  0.00     0.211 HD
ENDBRANCH   4  77
TORSDOF 21
ENDMDL
MODEL 2
REMARK VINA RESULT:   -12.597      2.838      3.871
REMARK INTER + INTRA:         -25.460
REMARK INTER:                 -23.395
REMARK INTRA:                  -2.064
REMARK UNBOUND:                -1.449
REMARK SMILES C[C@@H]1O[C@@H](O[C@H]2[C@H](O)[C@@H](O)[C@H](OC[C@H]3O[C@@H](OC(=O)[C@H]4CC(C)(C)C[C@H]5C6=CC[C@@]7(C)[C@@](C)(CC[C@H]8[C@](C)(CO)[C@@H](O)CC[C@@]87C)[C@]6(C)CC[C@@H]45)[C@H](O)[C@@H](O)[C@@H]3O)O[C@@H]2CO)[C@H](O)[C@H](O)[C@H]1O
REMARK SMILES IDX 14 1 15 2 16 3 52 4 54 5 56 6 13 7 12 8 11 9 6 10 7 11 59 12
REMARK SMILES IDX 9 13 58 14 5 15 4 16 2 17 3 18 66 19 64 20 62 21 1 22 67 23
REMARK SMILES IDX 65 25 63 27 8 29 60 31 61 32 10 34 57 36 17 38 18 39 19 40
REMARK SMILES IDX 20 41 21 42 51 43 22 44 50 45 26 46 25 47 49 48 27 49 47 50
REMARK SMILES IDX 28 51 32 52 29 53 30 54 34 55 45 56 35 57 44 58 36 59 43 60
REMARK SMILES IDX 37 61 41 62 23 63 24 64 48 65 33 66 31 67 46 68 38 69 39 70
REMARK SMILES IDX 40 71 42 73 55 75 53 77
REMARK H PARENT 67 24 65 26 63 28 8 30 61 33 10 35 57 37 40 72 42 74 55 76
REMARK H PARENT 53 78
ROOT
ATOM      1  C   UNL     1      25.236  59.684  41.245  1.00  0.00     0.180 C 
ATOM      2  O   UNL     1      25.722  60.185  42.474  1.00  0.00    -0.332 OA
ATOM      3  C   UNL     1      27.012  59.680  42.832  1.00  0.00     0.342 C 
ATOM      4  C   UNL     1      27.354  58.280  42.219  1.00  0.00     0.214 C 
ATOM      5  C   UNL     1      26.070  57.438  42.210  1.00  0.00     0.180 C 
ATOM      6  C   UNL     1      24.992  58.143  41.328  1.00  0.00     0.177 C 
ENDROOT
BRANCH   1   7
ATOM      7  C   UNL     1      23.956  60.449  40.904  1.00  0.00     0.198 C 
BRANCH   7   8
ATOM      8  O   UNL     1      23.417  60.066  39.650  1.00  0.00    -0.347 OA
BRANCH   8   9
ATOM      9  C   UNL     1      24.163  60.696  38.608  1.00  0.00     0.282 C 
ATOM     10  C   UNL     1      21.873  60.906  37.036  1.00  0.00     0.184 C 
ATOM     11  C   UNL     1      23.095  60.367  36.286  1.00  0.00     0.180 C 
ATOM     12  C   UNL     1      22.371  62.119  37.891  1.00  0.00     0.178 C 
ATOM     13  C   UNL     1      24.135  59.854  37.300  1.00  0.00     0.202 C 
ATOM     14  O   UNL     1      23.696  62.017  38.423  1.00  0.00    -0.341 OA
BRANCH  10  15
ATOM     15  O   UNL     1      20.923  61.450  36.144  1.00  0.00    -0.341 OA
BRANCH  15  16
ATOM     16  C   UNL     1      21.353  62.556  35.373  1.00  0.00     0.282 C 
ATOM     17  C   UNL     1      19.272  63.578  35.027  1.00  0.00     0.150 C 
ATOM     18  O   UNL     1      20.533  63.694  35.653  1.00  0.00    -0.344 OA
ATOM     19  C   UNL     1      19.412  63.750  33.484  1.00  0.00     0.174 C 
ATOM     20  C   UNL     1      20.816  63.278  32.986  1.00  0.00     0.179 C 
ATOM     21  C   UNL     1      21.286  62.115  33.872  1.00  0.00     0.202 C 
ATOM     22  C   UNL     1      18.303  64.598  35.619  1.00  0.00     0.041 C 
BRANCH  19  23
ATOM     23  O   UNL     1      18.366  63.059  32.841  1.00  0.00    -0.388 OA
ATOM     24  H   UNL     1      17.737  62.734  33.538  1.00  0.00     0.211 HD
ENDBRANCH  19  23
BRANCH  20  25
ATOM     25  O   UNL     1      21.767  64.321  33.019  1.00  0.00    -0.387 OA
ATOM     26  H   UNL     1      21.813  64.759  32.132  1.00  0.00     0.211 HD
ENDBRANCH  20  25
BRANCH  21  27
ATOM     27  O   UNL     1      22.497  61.549  33.439  1.00  0.00    -0.385 OA
ATOM     28  H   UNL     1      22.547  61.667  32.454  1.00  0.00     0.211 HD
ENDBRANCH  21  27
ENDBRANCH  15  16
ENDBRANCH  10  15
BRANCH  11  29
ATOM     29  O   UNL     1      22.786  59.361  35.356  1.00  0.00    -0.387 OA
ATOM     30  H   UNL     1      23.594  59.214  34.799  1.00  0.00     0.211 HD
ENDBRANCH  11  29
BRANCH  12  31
ATOM     31  C   UNL     1      21.368  62.496  38.990  1.00  0.00     0.191 C 
BRANCH  31  32
ATOM     32  O   UNL     1      20.327  63.291  38.490  1.00  0.00    -0.394 OA
ATOM     33  H   UNL     1      20.289  64.103  39.058  1.00  0.00     0.210 HD
ENDBRANCH  31  32
ENDBRANCH  12  31
BRANCH  13  34
ATOM     34  O   UNL     1      25.401  59.801  36.676  1.00  0.00    -0.385 OA
ATOM     35  H   UNL     1      25.296  59.291  35.835  1.00  0.00     0.211 HD
ENDBRANCH  13  34
ENDBRANCH   8   9
ENDBRANCH   7   8
ENDBRANCH   1   7
BRANCH   6  36
ATOM     36  O   UNL     1      24.958  57.598  40.032  1.00  0.00    -0.387 OA
ATOM     37  H   UNL     1      24.137  57.050  39.945  1.00  0.00     0.211 HD
ENDBRANCH   6  36
BRANCH   3  38
ATOM     38  O   UNL     1      27.010  59.562  44.211  1.00  0.00    -0.432 OA
BRANCH  38  39
ATOM     39  C   UNL     1      28.043  59.142  44.988  1.00  0.00     0.311 C 
ATOM     40  O   UNL     1      28.165  57.959  45.268  1.00  0.00    -0.252 OA
BRANCH  39  41
ATOM     41  C   UNL     1      29.024  60.192  45.479  1.00  0.00     0.103 C 
ATOM     42  C   UNL     1      28.659  60.570  46.926  1.00  0.00     0.022 C 
ATOM     43  C   UNL     1      30.566  59.866  45.434  1.00  0.00     0.010 C 
ATOM     44  C   UNL     1      28.873  59.387  47.950  1.00  0.00    -0.034 C 
ATOM     45  C   UNL     1      31.040  59.281  44.087  1.00  0.00     0.006 C 
ATOM     46  C   UNL     1      31.100  59.163  46.736  1.00  0.00     0.020 C 
ATOM     47  C   UNL     1      30.008  58.404  47.486  1.00  0.00     0.014 C 
ATOM     48  C   UNL     1      32.535  58.941  44.157  1.00  0.00     0.012 C 
ATOM     49  C   UNL     1      32.425  58.406  46.604  1.00  0.00    -0.064 C 
ATOM     50  C   UNL     1      32.886  57.841  45.239  1.00  0.00    -0.005 C 
ATOM     51  C   UNL     1      33.202  58.370  47.725  1.00  0.00    -0.026 C 
ATOM     52  C   UNL     1      34.488  57.508  45.298  1.00  0.00    -0.017 C 
ATOM     53  C   UNL     1      34.579  57.756  47.838  1.00  0.00     0.035 C 
ATOM     54  C   UNL     1      34.906  56.764  46.686  1.00  0.00    -0.017 C 
ATOM     55  C   UNL     1      34.919  56.610  44.106  1.00  0.00     0.008 C 
ATOM     56  C   UNL     1      36.471  56.222  46.728  1.00  0.00    -0.023 C 
ATOM     57  C   UNL     1      36.406  56.216  44.131  1.00  0.00     0.005 C 
ATOM     58  C   UNL     1      36.729  55.232  47.929  1.00  0.00     0.010 C 
ATOM     59  C   UNL     1      36.756  55.385  45.397  1.00  0.00     0.006 C 
ATOM     60  C   UNL     1      38.127  54.573  47.923  1.00  0.00     0.033 C 
ATOM     61  C   UNL     1      38.155  54.613  45.302  1.00  0.00     0.020 C 
ATOM     62  C   UNL     1      38.338  53.777  46.622  1.00  0.00     0.123 C 
ATOM     63  C   UNL     1      27.588  58.558  48.150  1.00  0.00     0.011 C 
ATOM     64  C   UNL     1      29.228  60.021  49.317  1.00  0.00     0.011 C 
ATOM     65  C   UNL     1      32.012  56.592  44.822  1.00  0.00     0.017 C 
ATOM     66  C   UNL     1      35.230  58.883  45.117  1.00  0.00     0.013 C 
ATOM     67  C   UNL     1      33.964  55.541  46.992  1.00  0.00     0.013 C 
ATOM     68  C   UNL     1      37.486  57.398  46.974  1.00  0.00     0.012 C 
ATOM     69  C   UNL     1      39.363  55.550  45.013  1.00  0.00     0.017 C 
BRANCH  61  70
ATOM     70  C   UNL     1      38.100  53.591  44.109  1.00  0.00     0.165 C 
BRANCH  70  71
ATOM     71  O   UNL     1      37.790  52.287  44.539  1.00  0.00    -0.396 OA
ATOM     72  H   UNL     1      36.950  52.338  45.067  1.00  0.00     0.210 HD
ENDBRANCH  70  71
ENDBRANCH  61  70
BRANCH  62  73
ATOM     73  O   UNL     1      39.569  53.094  46.659  1.00  0.00    -0.392 OA
ATOM     74  H   UNL     1      39.830  52.986  47.611  1.00  0.00     0.210 HD
ENDBRANCH  62  73
ENDBRANCH  39  41
ENDBRANCH  38  39
ENDBRANCH   3  38
BRANCH   5  75
ATOM     75  O   UNL     1      25.623  57.241  43.536  1.00  0.00    -0.387 OA
ATOM     76  H   UNL     1      26.199  56.568  43.984  1.00  0.00     0.211 HD
ENDBRANCH   5  75
BRANCH   4  77
ATOM     77  O   UNL     1      27.837  58.409  40.906  1.00  0.00    -0.384 OA
ATOM     78  H   UNL     1      28.318  59.277  40.861  1.00  0.00     0.211 HD
ENDBRANCH   4  77
TORSDOF 21
ENDMDL
MODEL 3
REMARK VINA RESULT:   -12.268      1.961      4.142
REMARK INTER + INTRA:         -24.834
REMARK INTER:                 -22.669
REMARK INTRA:                  -2.164
REMARK UNBOUND:                -1.449
REMARK SMILES C[C@@H]1O[C@@H](O[C@H]2[C@H](O)[C@@H](O)[C@H](OC[C@H]3O[C@@H](OC(=O)[C@H]4CC(C)(C)C[C@H]5C6=CC[C@@]7(C)[C@@](C)(CC[C@H]8[C@](C)(CO)[C@@H](O)CC[C@@]87C)[C@]6(C)CC[C@@H]45)[C@H](O)[C@@H](O)[C@@H]3O)O[C@@H]2CO)[C@H](O)[C@H](O)[C@H]1O
REMARK SMILES IDX 14 1 15 2 16 3 52 4 54 5 56 6 13 7 12 8 11 9 6 10 7 11 59 12
REMARK SMILES IDX 9 13 58 14 5 15 4 16 2 17 3 18 66 19 64 20 62 21 1 22 67 23
REMARK SMILES IDX 65 25 63 27 8 29 60 31 61 32 10 34 57 36 17 38 18 39 19 40
REMARK SMILES IDX 20 41 21 42 51 43 22 44 50 45 26 46 25 47 49 48 27 49 47 50
REMARK SMILES IDX 28 51 32 52 29 53 30 54 34 55 45 56 35 57 44 58 36 59 43 60
REMARK SMILES IDX 37 61 41 62 23 63 24 64 48 65 33 66 31 67 46 68 38 69 39 70
REMARK SMILES IDX 40 71 42 73 55 75 53 77
REMARK H PARENT 67 24 65 26 63 28 8 30 61 33 10 35 57 37 40 72 42 74 55 76
REMARK H PARENT 53 78
ROOT
ATOM      1  C   UNL     1      25.314  59.840  41.073  1.00  0.00     0.180 C 
ATOM      2  O   UNL     1      26.317  58.964  41.546  1.00  0.00    -0.332 OA
ATOM      3  C   UNL     1      26.780  59.276  42.863  1.00  0.00     0.342 C 
ATOM      4  C   UNL     1      26.617  60.780  43.269  1.00  0.00     0.214 C 
ATOM      5  C   UNL     1      26.899  61.641  42.030  1.00  0.00     0.180 C 
ATOM      6  C   UNL     1      25.871  61.290  40.907  1.00  0.00     0.177 C 
ENDROOT
BRANCH   1   7
ATOM      7  C   UNL     1      24.788  59.276  39.752  1.00  0.00     0.198 C 
BRANCH   7   8
ATOM      8  O   UNL     1      24.079  60.243  38.996  1.00  0.00    -0.347 OA
BRANCH   8   9
ATOM      9  C   UNL     1      22.739  59.790  38.796  1.00  0.00     0.282 C 
ATOM     10  C   UNL     1      22.137  62.079  37.328  1.00  0.00     0.184 C 
ATOM     11  C   UNL     1      21.089  61.725  38.386  1.00  0.00     0.180 C 
ATOM     12  C   UNL     1      22.515  60.742  36.607  1.00  0.00     0.178 C 
ATOM     13  C   UNL     1      21.707  60.770  39.425  1.00  0.00     0.202 C 
ATOM     14  O   UNL     1      22.516  59.563  37.419  1.00  0.00    -0.341 OA
BRANCH  10  15
ATOM     15  O   UNL     1      21.590  62.900  36.317  1.00  0.00    -0.341 OA
BRANCH  15  16
ATOM     16  C   UNL     1      20.351  62.482  35.778  1.00  0.00     0.282 C 
ATOM     17  C   UNL     1      20.883  62.645  33.501  1.00  0.00     0.150 C 
ATOM     18  O   UNL     1      20.567  61.765  34.558  1.00  0.00    -0.344 OA
ATOM     19  C   UNL     1      19.626  63.467  33.082  1.00  0.00     0.174 C 
ATOM     20  C   UNL     1      18.655  63.671  34.289  1.00  0.00     0.179 C 
ATOM     21  C   UNL     1      19.486  63.772  35.577  1.00  0.00     0.202 C 
ATOM     22  C   UNL     1      21.455  61.858  32.324  1.00  0.00     0.041 C 
BRANCH  19  23
ATOM     23  O   UNL     1      20.036  64.693  32.523  1.00  0.00    -0.388 OA
ATOM     24  H   UNL     1      19.825  64.676  31.552  1.00  0.00     0.211 HD
ENDBRANCH  19  23
BRANCH  20  25
ATOM     25  O   UNL     1      17.721  62.618  34.402  1.00  0.00    -0.387 OA
ATOM     26  H   UNL     1      17.942  62.060  35.191  1.00  0.00     0.211 HD
ENDBRANCH  20  25
BRANCH  21  27
ATOM     27  O   UNL     1      18.710  64.062  36.711  1.00  0.00    -0.385 OA
ATOM     28  H   UNL     1      19.238  64.676  37.287  1.00  0.00     0.211 HD
ENDBRANCH  21  27
ENDBRANCH  15  16
ENDBRANCH  10  15
BRANCH  11  29
ATOM     29  O   UNL     1      20.536  62.847  39.027  1.00  0.00    -0.387 OA
ATOM     30  H   UNL     1      21.283  63.462  39.246  1.00  0.00     0.211 HD
ENDBRANCH  11  29
BRANCH  12  31
ATOM     31  C   UNL     1      23.826  60.864  35.820  1.00  0.00     0.191 C 
BRANCH  31  32
ATOM     32  O   UNL     1      24.758  59.893  36.212  1.00  0.00    -0.394 OA
ATOM     33  H   UNL     1      25.654  60.236  35.957  1.00  0.00     0.210 HD
ENDBRANCH  31  32
ENDBRANCH  12  31
BRANCH  13  34
ATOM     34  O   UNL     1      20.671  60.089  40.101  1.00  0.00    -0.385 OA
ATOM     35  H   UNL     1      20.556  60.525  40.982  1.00  0.00     0.211 HD
ENDBRANCH  13  34
ENDBRANCH   8   9
ENDBRANCH   7   8
ENDBRANCH   1   7
BRANCH   6  36
ATOM     36  O   UNL     1      24.806  62.208  40.888  1.00  0.00    -0.387 OA
ATOM     37  H   UNL     1      24.697  62.540  39.960  1.00  0.00     0.211 HD
ENDBRANCH   6  36
BRANCH   3  38
ATOM     38  O   UNL     1      28.128  58.965  42.882  1.00  0.00    -0.432 OA
BRANCH  38  39
ATOM     39  C   UNL     1      28.701  57.882  43.469  1.00  0.00     0.311 C 
ATOM     40  O   UNL     1      28.327  57.506  44.570  1.00  0.00    -0.252 OA
BRANCH  39  41
ATOM     41  C   UNL     1      29.802  57.169  42.704  1.00  0.00     0.103 C 
ATOM     42  C   UNL     1      31.087  58.012  42.787  1.00  0.00     0.022 C 
ATOM     43  C   UNL     1      30.163  55.687  43.104  1.00  0.00     0.010 C 
ATOM     44  C   UNL     1      31.678  58.100  44.249  1.00  0.00    -0.034 C 
ATOM     45  C   UNL     1      28.935  54.765  43.256  1.00  0.00     0.006 C 
ATOM     46  C   UNL     1      31.263  55.587  44.225  1.00  0.00     0.020 C 
ATOM     47  C   UNL     1      31.320  56.833  45.106  1.00  0.00     0.014 C 
ATOM     48  C   UNL     1      29.379  53.365  43.704  1.00  0.00     0.012 C 
ATOM     49  C   UNL     1      31.335  54.262  44.989  1.00  0.00    -0.064 C 
ATOM     50  C   UNL     1      30.094  53.347  45.115  1.00  0.00    -0.005 C 
ATOM     51  C   UNL     1      32.573  53.903  45.438  1.00  0.00    -0.026 C 
ATOM     52  C   UNL     1      30.565  51.844  45.560  1.00  0.00    -0.017 C 
ATOM     53  C   UNL     1      32.926  52.617  46.150  1.00  0.00     0.035 C 
ATOM     54  C   UNL     1      31.690  51.881  46.739  1.00  0.00    -0.017 C 
ATOM     55  C   UNL     1      29.358  51.000  46.054  1.00  0.00     0.008 C 
ATOM     56  C   UNL     1      32.065  50.397  47.373  1.00  0.00    -0.023 C 
ATOM     57  C   UNL     1      29.741  49.591  46.538  1.00  0.00     0.005 C 
ATOM     58  C   UNL     1      32.891  50.511  48.713  1.00  0.00     0.010 C 
ATOM     59  C   UNL     1      30.707  49.647  47.754  1.00  0.00     0.006 C 
ATOM     60  C   UNL     1      33.132  49.164  49.430  1.00  0.00     0.033 C 
ATOM     61  C   UNL     1      30.832  48.264  48.550  1.00  0.00     0.020 C 
ATOM     62  C   UNL     1      31.788  48.495  49.777  1.00  0.00     0.123 C 
ATOM     63  C   UNL     1      31.161  59.340  45.007  1.00  0.00     0.011 C 
ATOM     64  C   UNL     1      33.212  58.250  44.116  1.00  0.00     0.011 C 
ATOM     65  C   UNL     1      29.029  53.976  46.099  1.00  0.00     0.017 C 
ATOM     66  C   UNL     1      31.098  51.146  44.255  1.00  0.00     0.013 C 
ATOM     67  C   UNL     1      31.251  52.815  47.926  1.00  0.00     0.013 C 
ATOM     68  C   UNL     1      33.002  49.575  46.413  1.00  0.00     0.012 C 
ATOM     69  C   UNL     1      31.280  47.072  47.657  1.00  0.00     0.017 C 
BRANCH  61  70
ATOM     70  C   UNL     1      29.424  47.872  49.127  1.00  0.00     0.165 C 
BRANCH  70  71
ATOM     71  O   UNL     1      29.208  48.402  50.413  1.00  0.00    -0.396 OA
ATOM     72  H   UNL     1      28.780  49.291  50.302  1.00  0.00     0.210 HD
ENDBRANCH  70  71
ENDBRANCH  61  70
BRANCH  62  73
ATOM     73  O   UNL     1      32.004  47.319  50.520  1.00  0.00    -0.392 OA
ATOM     74  H   UNL     1      32.940  47.026  50.364  1.00  0.00     0.210 HD
ENDBRANCH  62  73
ENDBRANCH  39  41
ENDBRANCH  38  39
ENDBRANCH   3  38
BRANCH   5  75
ATOM     75  O   UNL     1      28.232  61.441  41.607  1.00  0.00    -0.387 OA
ATOM     76  H   UNL     1      28.590  60.611  42.016  1.00  0.00     0.211 HD
ENDBRANCH   5  75
BRANCH   4  77
ATOM     77  O   UNL     1      25.315  61.040  43.731  1.00  0.00    -0.384 OA
ATOM     78  H   UNL     1      25.394  61.742  44.429  1.00  0.00     0.211 HD
ENDBRANCH   4  77
TORSDOF 21
ENDMDL
MODEL 4
REMARK VINA RESULT:   -12.232      1.089      2.153
REMARK INTER + INTRA:         -24.765
REMARK INTER:                 -23.643
REMARK INTRA:                  -1.122
REMARK UNBOUND:                -1.449
REMARK SMILES C[C@@H]1O[C@@H](O[C@H]2[C@H](O)[C@@H](O)[C@H](OC[C@H]3O[C@@H](OC(=O)[C@H]4CC(C)(C)C[C@H]5C6=CC[C@@]7(C)[C@@](C)(CC[C@H]8[C@](C)(CO)[C@@H](O)CC[C@@]87C)[C@]6(C)CC[C@@H]45)[C@H](O)[C@@H](O)[C@@H]3O)O[C@@H]2CO)[C@H](O)[C@H](O)[C@H]1O
REMARK SMILES IDX 14 1 15 2 16 3 52 4 54 5 56 6 13 7 12 8 11 9 6 10 7 11 59 12
REMARK SMILES IDX 9 13 58 14 5 15 4 16 2 17 3 18 66 19 64 20 62 21 1 22 67 23
REMARK SMILES IDX 65 25 63 27 8 29 60 31 61 32 10 34 57 36 17 38 18 39 19 40
REMARK SMILES IDX 20 41 21 42 51 43 22 44 50 45 26 46 25 47 49 48 27 49 47 50
REMARK SMILES IDX 28 51 32 52 29 53 30 54 34 55 45 56 35 57 44 58 36 59 43 60
REMARK SMILES IDX 37 61 41 62 23 63 24 64 48 65 33 66 31 67 46 68 38 69 39 70
REMARK SMILES IDX 40 71 42 73 55 75 53 77
REMARK H PARENT 67 24 65 26 63 28 8 30 61 33 10 35 57 37 40 72 42 74 55 76
REMARK H PARENT 53 78
ROOT
ATOM      1  C   UNL     1      25.799  59.550  40.665  1.00  0.00     0.180 C 
ATOM      2  O   UNL     1      26.800  60.143  41.467  1.00  0.00    -0.332 OA
ATOM      3  C   UNL     1      28.025  59.404  41.497  1.00  0.00     0.342 C 
ATOM      4  C   UNL     1      27.866  57.871  41.222  1.00  0.00     0.214 C 
ATOM      5  C   UNL     1      26.560  57.402  41.879  1.00  0.00     0.180 C 
ATOM      6  C   UNL     1      25.356  58.172  41.251  1.00  0.00     0.177 C 
ENDROOT
BRANCH   1   7
ATOM      7  C   UNL     1      24.632  60.535  40.574  1.00  0.00     0.198 C 
BRANCH   7   8
ATOM      8  O   UNL     1      24.214  60.756  39.238  1.00  0.00    -0.347 OA
BRANCH   8   9
ATOM      9  C   UNL     1      22.896  60.232  39.067  1.00  0.00     0.282 C 
ATOM     10  C   UNL     1      22.240  62.325  37.350  1.00  0.00     0.184 C 
ATOM     11  C   UNL     1      21.184  62.047  38.424  1.00  0.00     0.180 C 
ATOM     12  C   UNL     1      22.681  60.934  36.784  1.00  0.00     0.178 C 
ATOM     13  C   UNL     1      21.817  61.234  39.569  1.00  0.00     0.202 C 
ATOM     14  O   UNL     1      22.710  59.851  37.719  1.00  0.00    -0.341 OA
BRANCH  10  15
ATOM     15  O   UNL     1      21.683  63.011  36.248  1.00  0.00    -0.341 OA
BRANCH  15  16
ATOM     16  C   UNL     1      20.453  62.511  35.760  1.00  0.00     0.282 C 
ATOM     17  C   UNL     1      20.906  62.638  33.463  1.00  0.00     0.150 C 
ATOM     18  O   UNL     1      20.673  61.772  34.553  1.00  0.00    -0.344 OA
ATOM     19  C   UNL     1      19.593  63.377  33.063  1.00  0.00     0.174 C 
ATOM     20  C   UNL     1      18.649  63.562  34.294  1.00  0.00     0.179 C 
ATOM     21  C   UNL     1      19.513  63.744  35.552  1.00  0.00     0.202 C 
ATOM     22  C   UNL     1      21.486  61.851  32.291  1.00  0.00     0.041 C 
BRANCH  19  23
ATOM     23  O   UNL     1      19.917  64.608  32.458  1.00  0.00    -0.388 OA
ATOM     24  H   UNL     1      20.773  64.928  32.849  1.00  0.00     0.211 HD
ENDBRANCH  19  23
BRANCH  20  25
ATOM     25  O   UNL     1      17.780  62.463  34.464  1.00  0.00    -0.387 OA
ATOM     26  H   UNL     1      17.422  62.461  35.389  1.00  0.00     0.211 HD
ENDBRANCH  20  25
BRANCH  21  27
ATOM     27  O   UNL     1      18.755  64.024  36.702  1.00  0.00    -0.385 OA
ATOM     28  H   UNL     1      17.883  63.559  36.607  1.00  0.00     0.211 HD
ENDBRANCH  21  27
ENDBRANCH  15  16
ENDBRANCH  10  15
BRANCH  11  29
ATOM     29  O   UNL     1      20.578  63.208  38.930  1.00  0.00    -0.387 OA
ATOM     30  H   UNL     1      21.123  63.517  39.700  1.00  0.00     0.211 HD
ENDBRANCH  11  29
BRANCH  12  31
ATOM     31  C   UNL     1      24.003  61.023  36.009  1.00  0.00     0.191 C 
BRANCH  31  32
ATOM     32  O   UNL     1      24.881  59.989  36.364  1.00  0.00    -0.394 OA
ATOM     33  H   UNL     1      24.438  59.138  36.111  1.00  0.00     0.210 HD
ENDBRANCH  31  32
ENDBRANCH  12  31
BRANCH  13  34
ATOM     34  O   UNL     1      20.794  60.590  40.298  1.00  0.00    -0.385 OA
ATOM     35  H   UNL     1      21.202  60.229  41.125  1.00  0.00     0.211 HD
ENDBRANCH  13  34
ENDBRANCH   8   9
ENDBRANCH   7   8
ENDBRANCH   1   7
BRANCH   6  36
ATOM     36  O   UNL     1      24.731  57.409  40.249  1.00  0.00    -0.387 OA
ATOM     37  H   UNL     1      24.572  56.497  40.604  1.00  0.00     0.211 HD
ENDBRANCH   6  36
BRANCH   3  38
ATOM     38  O   UNL     1      28.541  59.565  42.772  1.00  0.00    -0.432 OA
BRANCH  38  39
ATOM     39  C   UNL     1      28.974  60.726  43.329  1.00  0.00     0.311 C 
ATOM     40  O   UNL     1      28.946  61.767  42.688  1.00  0.00    -0.252 OA
BRANCH  39  41
ATOM     41  C   UNL     1      29.479  60.673  44.760  1.00  0.00     0.103 C 
ATOM     42  C   UNL     1      28.362  61.168  45.696  1.00  0.00     0.022 C 
ATOM     43  C   UNL     1      30.016  59.301  45.322  1.00  0.00     0.010 C 
ATOM     44  C   UNL     1      27.110  60.205  45.732  1.00  0.00    -0.034 C 
ATOM     45  C   UNL     1      31.006  58.586  44.380  1.00  0.00     0.006 C 
ATOM     46  C   UNL     1      28.899  58.409  45.980  1.00  0.00     0.020 C 
ATOM     47  C   UNL     1      27.506  58.714  45.435  1.00  0.00     0.014 C 
ATOM     48  C   UNL     1      31.426  57.237  44.981  1.00  0.00     0.012 C 
ATOM     49  C   UNL     1      29.216  56.918  46.121  1.00  0.00    -0.064 C 
ATOM     50  C   UNL     1      30.225  56.226  45.172  1.00  0.00    -0.005 C 
ATOM     51  C   UNL     1      28.647  56.288  47.189  1.00  0.00    -0.026 C 
ATOM     52  C   UNL     1      30.702  54.802  45.825  1.00  0.00    -0.017 C 
ATOM     53  C   UNL     1      28.859  54.847  47.593  1.00  0.00     0.035 C 
ATOM     54  C   UNL     1      29.449  53.970  46.453  1.00  0.00    -0.017 C 
ATOM     55  C   UNL     1      31.410  53.910  44.770  1.00  0.00     0.008 C 
ATOM     56  C   UNL     1      29.829  52.436  46.952  1.00  0.00    -0.023 C 
ATOM     57  C   UNL     1      31.838  52.533  45.307  1.00  0.00     0.005 C 
ATOM     58  C   UNL     1      28.545  51.564  47.236  1.00  0.00     0.010 C 
ATOM     59  C   UNL     1      30.613  51.696  45.773  1.00  0.00     0.006 C 
ATOM     60  C   UNL     1      28.838  50.080  47.550  1.00  0.00     0.033 C 
ATOM     61  C   UNL     1      30.926  50.138  45.965  1.00  0.00     0.020 C 
ATOM     62  C   UNL     1      29.587  49.422  46.376  1.00  0.00     0.123 C 
ATOM     63  C   UNL     1      26.035  60.618  44.706  1.00  0.00     0.011 C 
ATOM     64  C   UNL     1      26.475  60.330  47.138  1.00  0.00     0.011 C 
ATOM     65  C   UNL     1      29.616  56.066  43.723  1.00  0.00     0.017 C 
ATOM     66  C   UNL     1      31.781  55.157  46.913  1.00  0.00     0.013 C 
ATOM     67  C   UNL     1      28.257  53.863  45.433  1.00  0.00     0.013 C 
ATOM     68  C   UNL     1      30.598  52.446  48.325  1.00  0.00     0.012 C 
ATOM     69  C   UNL     1      32.087  49.856  46.961  1.00  0.00     0.017 C 
BRANCH  61  70
ATOM     70  C   UNL     1      31.374  49.528  44.588  1.00  0.00     0.165 C 
BRANCH  70  71
ATOM     71  O   UNL     1      30.736  50.148  43.497  1.00  0.00    -0.396 OA
ATOM     72  H   UNL     1      29.968  49.576  43.235  1.00  0.00     0.210 HD
ENDBRANCH  70  71
ENDBRANCH  61  70
BRANCH  62  73
ATOM     73  O   UNL     1      29.765  48.047  46.618  1.00  0.00    -0.392 OA
ATOM     74  H   UNL     1      29.431  47.851  47.532  1.00  0.00     0.210 HD
ENDBRANCH  62  73
ENDBRANCH  39  41
ENDBRANCH  38  39
ENDBRANCH   3  38
BRANCH   5  75
ATOM     75  O   UNL     1      26.638  57.592  43.278  1.00  0.00    -0.387 OA
ATOM     76  H   UNL     1      27.506  57.246  43.612  1.00  0.00     0.211 HD
ENDBRANCH   5  75
BRANCH   4  77
ATOM     77  O   UNL     1      27.814  57.609  39.842  1.00  0.00    -0.384 OA
ATOM     78  H   UNL     1      27.967  56.634  39.729  1.00  0.00     0.211 HD
ENDBRANCH   4  77
TORSDOF 21
ENDMDL
MODEL 5
REMARK VINA RESULT:   -12.207      2.027      3.729
REMARK INTER + INTRA:         -24.718
REMARK INTER:                 -23.084
REMARK INTRA:                  -1.634
REMARK UNBOUND:                -1.449
REMARK SMILES C[C@@H]1O[C@@H](O[C@H]2[C@H](O)[C@@H](O)[C@H](OC[C@H]3O[C@@H](OC(=O)[C@H]4CC(C)(C)C[C@H]5C6=CC[C@@]7(C)[C@@](C)(CC[C@H]8[C@](C)(CO)[C@@H](O)CC[C@@]87C)[C@]6(C)CC[C@@H]45)[C@H](O)[C@@H](O)[C@@H]3O)O[C@@H]2CO)[C@H](O)[C@H](O)[C@H]1O
REMARK SMILES IDX 14 1 15 2 16 3 52 4 54 5 56 6 13 7 12 8 11 9 6 10 7 11 59 12
REMARK SMILES IDX 9 13 58 14 5 15 4 16 2 17 3 18 66 19 64 20 62 21 1 22 67 23
REMARK SMILES IDX 65 25 63 27 8 29 60 31 61 32 10 34 57 36 17 38 18 39 19 40
REMARK SMILES IDX 20 41 21 42 51 43 22 44 50 45 26 46 25 47 49 48 27 49 47 50
REMARK SMILES IDX 28 51 32 52 29 53 30 54 34 55 45 56 35 57 44 58 36 59 43 60
REMARK SMILES IDX 37 61 41 62 23 63 24 64 48 65 33 66 31 67 46 68 38 69 39 70
REMARK SMILES IDX 40 71 42 73 55 75 53 77
REMARK H PARENT 67 24 65 26 63 28 8 30 61 33 10 35 57 37 40 72 42 74 55 76
REMARK H PARENT 53 78
ROOT
ATOM      1  C   UNL     1      26.073  59.950  41.305  1.00  0.00     0.180 C 
ATOM      2  O   UNL     1      26.882  58.966  41.917  1.00  0.00    -0.332 OA
ATOM      3  C   UNL     1      27.059  59.160  43.324  1.00  0.00     0.342 C 
ATOM      4  C   UNL     1      26.914  60.646  43.797  1.00  0.00     0.214 C 
ATOM      5  C   UNL     1      27.525  61.552  42.719  1.00  0.00     0.180 C 
ATOM      6  C   UNL     1      26.752  61.355  41.376  1.00  0.00     0.177 C 
ENDROOT
BRANCH   1   7
ATOM      7  C   UNL     1      25.818  59.510  39.862  1.00  0.00     0.198 C 
BRANCH   7   8
ATOM      8  O   UNL     1      24.939  60.387  39.178  1.00  0.00    -0.347 OA
BRANCH   8   9
ATOM      9  C   UNL     1      23.606  59.881  39.273  1.00  0.00     0.282 C 
ATOM     10  C   UNL     1      22.634  62.045  37.813  1.00  0.00     0.184 C 
ATOM     11  C   UNL     1      21.826  61.732  39.076  1.00  0.00     0.180 C 
ATOM     12  C   UNL     1      22.922  60.673  37.115  1.00  0.00     0.178 C 
ATOM     13  C   UNL     1      22.674  60.870  40.030  1.00  0.00     0.202 C 
ATOM     14  O   UNL     1      23.132  59.554  37.982  1.00  0.00    -0.341 OA
BRANCH  10  15
ATOM     15  O   UNL     1      21.866  62.777  36.881  1.00  0.00    -0.341 OA
BRANCH  15  16
ATOM     16  C   UNL     1      21.077  62.015  35.987  1.00  0.00     0.282 C 
ATOM     17  C   UNL     1      20.595  63.693  34.423  1.00  0.00     0.150 C 
ATOM     18  O   UNL     1      21.276  62.477  34.647  1.00  0.00    -0.344 OA
ATOM     19  C   UNL     1      19.055  63.455  34.374  1.00  0.00     0.174 C 
ATOM     20  C   UNL     1      18.643  62.233  35.257  1.00  0.00     0.179 C 
ATOM     21  C   UNL     1      19.592  62.155  36.462  1.00  0.00     0.202 C 
ATOM     22  C   UNL     1      21.102  64.343  33.138  1.00  0.00     0.041 C 
BRANCH  19  23
ATOM     23  O   UNL     1      18.388  64.633  34.763  1.00  0.00    -0.388 OA
ATOM     24  H   UNL     1      19.019  65.393  34.658  1.00  0.00     0.211 HD
ENDBRANCH  19  23
BRANCH  20  25
ATOM     25  O   UNL     1      18.684  61.020  34.535  1.00  0.00    -0.387 OA
ATOM     26  H   UNL     1      18.722  61.212  33.564  1.00  0.00     0.211 HD
ENDBRANCH  20  25
BRANCH  21  27
ATOM     27  O   UNL     1      19.239  61.149  37.376  1.00  0.00    -0.385 OA
ATOM     28  H   UNL     1      18.362  60.778  37.090  1.00  0.00     0.211 HD
ENDBRANCH  21  27
ENDBRANCH  15  16
ENDBRANCH  10  15
BRANCH  11  29
ATOM     29  O   UNL     1      21.359  62.877  39.743  1.00  0.00    -0.387 OA
ATOM     30  H   UNL     1      22.143  63.315  40.167  1.00  0.00     0.211 HD
ENDBRANCH  11  29
BRANCH  12  31
ATOM     31  C   UNL     1      24.050  60.782  36.081  1.00  0.00     0.191 C 
BRANCH  31  32
ATOM     32  O   UNL     1      25.091  59.883  36.353  1.00  0.00    -0.394 OA
ATOM     33  H   UNL     1      25.899  60.234  35.897  1.00  0.00     0.210 HD
ENDBRANCH  31  32
ENDBRANCH  12  31
BRANCH  13  34
ATOM     34  O   UNL     1      21.819  60.205  40.936  1.00  0.00    -0.385 OA
ATOM     35  H   UNL     1      22.392  59.752  41.604  1.00  0.00     0.211 HD
ENDBRANCH  13  34
ENDBRANCH   8   9
ENDBRANCH   7   8
ENDBRANCH   1   7
BRANCH   6  36
ATOM     36  O   UNL     1      25.785  62.359  41.194  1.00  0.00    -0.387 OA
ATOM     37  H   UNL     1      25.856  63.002  41.945  1.00  0.00     0.211 HD
ENDBRANCH   6  36
BRANCH   3  38
ATOM     38  O   UNL     1      28.344  58.736  43.613  1.00  0.00    -0.432 OA
BRANCH  38  39
ATOM     39  C   UNL     1      28.693  57.588  44.251  1.00  0.00     0.311 C 
ATOM     40  O   UNL     1      28.428  56.502  43.757  1.00  0.00    -0.252 OA
BRANCH  39  41
ATOM     41  C   UNL     1      29.420  57.715  45.578  1.00  0.00     0.103 C 
ATOM     42  C   UNL     1      28.468  58.359  46.602  1.00  0.00     0.022 C 
ATOM     43  C   UNL     1      30.035  56.418  46.231  1.00  0.00     0.010 C 
ATOM     44  C   UNL     1      27.235  57.441  46.966  1.00  0.00    -0.034 C 
ATOM     45  C   UNL     1      30.860  55.559  45.251  1.00  0.00     0.006 C 
ATOM     46  C   UNL     1      29.035  55.651  47.172  1.00  0.00     0.020 C 
ATOM     47  C   UNL     1      27.573  55.914  46.817  1.00  0.00     0.014 C 
ATOM     48  C   UNL     1      31.367  54.293  45.957  1.00  0.00     0.012 C 
ATOM     49  C   UNL     1      29.366  54.184  47.463  1.00  0.00    -0.064 C 
ATOM     50  C   UNL     1      30.208  53.347  46.471  1.00  0.00    -0.005 C 
ATOM     51  C   UNL     1      28.972  53.718  48.683  1.00  0.00    -0.026 C 
ATOM     52  C   UNL     1      30.779  52.012  47.229  1.00  0.00    -0.017 C 
ATOM     53  C   UNL     1      29.241  52.340  49.242  1.00  0.00     0.035 C 
ATOM     54  C   UNL     1      29.640  51.302  48.154  1.00  0.00    -0.017 C 
ATOM     55  C   UNL     1      31.307  50.969  46.207  1.00  0.00     0.008 C 
ATOM     56  C   UNL     1      30.090  49.840  48.791  1.00  0.00    -0.023 C 
ATOM     57  C   UNL     1      31.810  49.666  46.852  1.00  0.00     0.005 C 
ATOM     58  C   UNL     1      28.864  49.047  49.389  1.00  0.00     0.010 C 
ATOM     59  C   UNL     1      30.673  48.930  47.615  1.00  0.00     0.006 C 
ATOM     60  C   UNL     1      29.199  47.612  49.853  1.00  0.00     0.033 C 
ATOM     61  C   UNL     1      31.008  47.405  47.966  1.00  0.00     0.020 C 
ATOM     62  C   UNL     1      29.749  46.784  48.676  1.00  0.00     0.123 C 
ATOM     63  C   UNL     1      26.011  57.739  46.076  1.00  0.00     0.011 C 
ATOM     64  C   UNL     1      26.832  57.769  48.424  1.00  0.00     0.011 C 
ATOM     65  C   UNL     1      29.376  53.009  45.171  1.00  0.00     0.017 C 
ATOM     66  C   UNL     1      32.018  52.483  48.074  1.00  0.00     0.013 C 
ATOM     67  C   UNL     1      28.300  51.089  47.358  1.00  0.00     0.013 C 
ATOM     68  C   UNL     1      31.067  50.015  50.011  1.00  0.00     0.012 C 
ATOM     69  C   UNL     1      32.312  47.230  48.796  1.00  0.00     0.017 C 
BRANCH  61  70
ATOM     70  C   UNL     1      31.229  46.604  46.632  1.00  0.00     0.165 C 
BRANCH  70  71
ATOM     71  O   UNL     1      30.145  46.738  45.744  1.00  0.00    -0.396 OA
ATOM     72  H   UNL     1      29.410  46.160  46.080  1.00  0.00     0.210 HD
ENDBRANCH  70  71
ENDBRANCH  61  70
BRANCH  62  73
ATOM     73  O   UNL     1      29.959  45.449  49.073  1.00  0.00    -0.392 OA
ATOM     74  H   UNL     1      30.935  45.268  49.031  1.00  0.00     0.210 HD
ENDBRANCH  62  73
ENDBRANCH  39  41
ENDBRANCH  38  39
ENDBRANCH   3  38
BRANCH   5  75
ATOM     75  O   UNL     1      28.902  61.265  42.584  1.00  0.00    -0.387 OA
ATOM     76  H   UNL     1      29.127  60.458  43.115  1.00  0.00     0.211 HD
ENDBRANCH   5  75
BRANCH   4  77
ATOM     77  O   UNL     1      25.563  60.987  43.983  1.00  0.00    -0.384 OA
ATOM     78  H   UNL     1      25.025  60.272  43.551  1.00  0.00     0.211 HD
ENDBRANCH   4  77
TORSDOF 21
ENDMDL
MODEL 6
REMARK VINA RESULT:   -12.206      3.954      5.731
REMARK INTER + INTRA:         -24.714
REMARK INTER:                 -22.918
REMARK INTRA:                  -1.796
REMARK UNBOUND:                -1.449
REMARK SMILES C[C@@H]1O[C@@H](O[C@H]2[C@H](O)[C@@H](O)[C@H](OC[C@H]3O[C@@H](OC(=O)[C@H]4CC(C)(C)C[C@H]5C6=CC[C@@]7(C)[C@@](C)(CC[C@H]8[C@](C)(CO)[C@@H](O)CC[C@@]87C)[C@]6(C)CC[C@@H]45)[C@H](O)[C@@H](O)[C@@H]3O)O[C@@H]2CO)[C@H](O)[C@H](O)[C@H]1O
REMARK SMILES IDX 14 1 15 2 16 3 52 4 54 5 56 6 13 7 12 8 11 9 6 10 7 11 59 12
REMARK SMILES IDX 9 13 58 14 5 15 4 16 2 17 3 18 66 19 64 20 62 21 1 22 67 23
REMARK SMILES IDX 65 25 63 27 8 29 60 31 61 32 10 34 57 36 17 38 18 39 19 40
REMARK SMILES IDX 20 41 21 42 51 43 22 44 50 45 26 46 25 47 49 48 27 49 47 50
REMARK SMILES IDX 28 51 32 52 29 53 30 54 34 55 45 56 35 57 44 58 36 59 43 60
REMARK SMILES IDX 37 61 41 62 23 63 24 64 48 65 33 66 31 67 46 68 38 69 39 70
REMARK SMILES IDX 40 71 42 73 55 75 53 77
REMARK H PARENT 67 24 65 26 63 28 8 30 61 33 10 35 57 37 40 72 42 74 55 76
REMARK H PARENT 53 78
ROOT
ATOM      1  C   UNL     1      25.058  59.722  41.283  1.00  0.00     0.180 C 
ATOM      2  O   UNL     1      26.022  58.761  41.663  1.00  0.00    -0.332 OA
ATOM      3  C   UNL     1      26.708  59.082  42.877  1.00  0.00     0.342 C 
ATOM      4  C   UNL     1      26.770  60.612  43.202  1.00  0.00     0.214 C 
ATOM      5  C   UNL     1      26.952  61.374  41.882  1.00  0.00     0.180 C 
ATOM      6  C   UNL     1      25.736  61.088  40.945  1.00  0.00     0.177 C 
ENDROOT
BRANCH   1   7
ATOM      7  C   UNL     1      24.282  59.158  40.092  1.00  0.00     0.198 C 
BRANCH   7   8
ATOM      8  O   UNL     1      23.449  60.129  39.482  1.00  0.00    -0.347 OA
BRANCH   8   9
ATOM      9  C   UNL     1      24.162  60.750  38.411  1.00  0.00     0.282 C 
ATOM     10  C   UNL     1      21.817  60.984  36.927  1.00  0.00     0.184 C 
ATOM     11  C   UNL     1      23.004  60.432  36.132  1.00  0.00     0.180 C 
ATOM     12  C   UNL     1      22.360  62.192  37.761  1.00  0.00     0.178 C 
ATOM     13  C   UNL     1      24.076  59.908  37.106  1.00  0.00     0.202 C 
ATOM     14  O   UNL     1      23.702  62.076  38.243  1.00  0.00    -0.341 OA
BRANCH  10  15
ATOM     15  O   UNL     1      20.839  61.537  36.071  1.00  0.00    -0.341 OA
BRANCH  15  16
ATOM     16  C   UNL     1      21.247  62.649  35.296  1.00  0.00     0.282 C 
ATOM     17  C   UNL     1      19.153  63.661  35.000  1.00  0.00     0.150 C 
ATOM     18  O   UNL     1      20.426  63.782  35.599  1.00  0.00    -0.344 OA
ATOM     19  C   UNL     1      19.258  63.842  33.455  1.00  0.00     0.174 C 
ATOM     20  C   UNL     1      20.654  63.380  32.925  1.00  0.00     0.179 C 
ATOM     21  C   UNL     1      21.149  62.215  33.795  1.00  0.00     0.202 C 
ATOM     22  C   UNL     1      18.191  64.673  35.618  1.00  0.00     0.041 C 
BRANCH  19  23
ATOM     23  O   UNL     1      18.203  63.147  32.832  1.00  0.00    -0.388 OA
ATOM     24  H   UNL     1      17.492  62.994  33.509  1.00  0.00     0.211 HD
ENDBRANCH  19  23
BRANCH  20  25
ATOM     25  O   UNL     1      21.600  64.428  32.943  1.00  0.00    -0.387 OA
ATOM     26  H   UNL     1      21.866  64.652  32.015  1.00  0.00     0.211 HD
ENDBRANCH  20  25
BRANCH  21  27
ATOM     27  O   UNL     1      22.353  61.658  33.333  1.00  0.00    -0.385 OA
ATOM     28  H   UNL     1      23.081  62.300  33.543  1.00  0.00     0.211 HD
ENDBRANCH  21  27
ENDBRANCH  15  16
ENDBRANCH  10  15
BRANCH  11  29
ATOM     29  O   UNL     1      22.649  59.428  35.215  1.00  0.00    -0.387 OA
ATOM     30  H   UNL     1      23.405  59.326  34.580  1.00  0.00     0.211 HD
ENDBRANCH  11  29
BRANCH  12  31
ATOM     31  C   UNL     1      21.403  62.580  38.897  1.00  0.00     0.191 C 
BRANCH  31  32
ATOM     32  O   UNL     1      22.047  62.569  40.142  1.00  0.00    -0.394 OA
ATOM     33  H   UNL     1      22.145  63.516  40.422  1.00  0.00     0.210 HD
ENDBRANCH  31  32
ENDBRANCH  12  31
BRANCH  13  34
ATOM     34  O   UNL     1      25.317  59.841  36.435  1.00  0.00    -0.385 OA
ATOM     35  H   UNL     1      25.959  59.397  37.043  1.00  0.00     0.211 HD
ENDBRANCH  13  34
ENDBRANCH   8   9
ENDBRANCH   7   8
ENDBRANCH   1   7
BRANCH   6  36
ATOM     36  O   UNL     1      24.784  62.121  41.018  1.00  0.00    -0.387 OA
ATOM     37  H   UNL     1      24.216  62.081  40.207  1.00  0.00     0.211 HD
ENDBRANCH   6  36
BRANCH   3  38
ATOM     38  O   UNL     1      28.004  58.619  42.722  1.00  0.00    -0.432 OA
BRANCH  38  39
ATOM     39  C   UNL     1      29.027  58.768  43.603  1.00  0.00     0.311 C 
ATOM     40  O   UNL     1      29.901  59.598  43.400  1.00  0.00    -0.252 OA
BRANCH  39  41
ATOM     41  C   UNL     1      29.031  57.877  44.832  1.00  0.00     0.103 C 
ATOM     42  C   UNL     1      28.805  56.421  44.387  1.00  0.00     0.022 C 
ATOM     43  C   UNL     1      30.288  57.907  45.783  1.00  0.00     0.010 C 
ATOM     44  C   UNL     1      29.999  55.841  43.531  1.00  0.00    -0.034 C 
ATOM     45  C   UNL     1      30.755  59.330  46.155  1.00  0.00     0.006 C 
ATOM     46  C   UNL     1      31.409  56.879  45.380  1.00  0.00     0.020 C 
ATOM     47  C   UNL     1      31.370  56.517  43.898  1.00  0.00     0.014 C 
ATOM     48  C   UNL     1      32.014  59.261  47.031  1.00  0.00     0.012 C 
ATOM     49  C   UNL     1      32.811  57.153  45.932  1.00  0.00    -0.064 C 
ATOM     50  C   UNL     1      33.251  58.587  46.311  1.00  0.00    -0.005 C 
ATOM     51  C   UNL     1      33.581  56.051  46.168  1.00  0.00    -0.026 C 
ATOM     52  C   UNL     1      34.574  58.517  47.273  1.00  0.00    -0.017 C 
ATOM     53  C   UNL     1      34.965  56.043  46.776  1.00  0.00     0.035 C 
ATOM     54  C   UNL     1      35.664  57.431  46.734  1.00  0.00    -0.017 C 
ATOM     55  C   UNL     1      35.267  59.903  47.377  1.00  0.00     0.008 C 
ATOM     56  C   UNL     1      37.108  57.451  47.546  1.00  0.00    -0.023 C 
ATOM     57  C   UNL     1      36.550  59.895  48.227  1.00  0.00     0.005 C 
ATOM     58  C   UNL     1      38.229  56.636  46.792  1.00  0.00     0.010 C 
ATOM     59  C   UNL     1      37.631  58.958  47.619  1.00  0.00     0.006 C 
ATOM     60  C   UNL     1      39.635  56.752  47.422  1.00  0.00     0.033 C 
ATOM     61  C   UNL     1      39.101  59.196  48.206  1.00  0.00     0.020 C 
ATOM     62  C   UNL     1      40.086  58.224  47.456  1.00  0.00     0.123 C 
ATOM     63  C   UNL     1      29.772  56.033  42.018  1.00  0.00     0.011 C 
ATOM     64  C   UNL     1      30.057  54.317  43.796  1.00  0.00     0.011 C 
ATOM     65  C   UNL     1      33.476  59.467  45.018  1.00  0.00     0.017 C 
ATOM     66  C   UNL     1      34.052  58.166  48.714  1.00  0.00     0.013 C 
ATOM     67  C   UNL     1      35.969  57.630  45.204  1.00  0.00     0.013 C 
ATOM     68  C   UNL     1      36.996  56.744  48.947  1.00  0.00     0.012 C 
ATOM     69  C   UNL     1      39.183  59.057  49.753  1.00  0.00     0.017 C 
BRANCH  61  70
ATOM     70  C   UNL     1      39.558  60.663  47.875  1.00  0.00     0.165 C 
BRANCH  70  71
ATOM     71  O   UNL     1      40.853  60.939  48.352  1.00  0.00    -0.396 OA
ATOM     72  H   UNL     1      41.451  60.214  48.029  1.00  0.00     0.210 HD
ENDBRANCH  70  71
ENDBRANCH  61  70
BRANCH  62  73
ATOM     73  O   UNL     1      41.406  58.321  47.936  1.00  0.00    -0.392 OA
ATOM     74  H   UNL     1      41.941  58.818  47.263  1.00  0.00     0.210 HD
ENDBRANCH  62  73
ENDBRANCH  39  41
ENDBRANCH  38  39
ENDBRANCH   3  38
BRANCH   5  75
ATOM     75  O   UNL     1      28.178  61.001  41.285  1.00  0.00    -0.387 OA
ATOM     76  H   UNL     1      28.136  61.167  40.308  1.00  0.00     0.211 HD
ENDBRANCH   5  75
BRANCH   4  77
ATOM     77  O   UNL     1      25.588  61.043  43.829  1.00  0.00    -0.384 OA
ATOM     78  H   UNL     1      24.886  61.074  43.127  1.00  0.00     0.211 HD
ENDBRANCH   4  77
TORSDOF 21
ENDMDL
MODEL 7
REMARK VINA RESULT:   -12.142      3.933      5.601
REMARK INTER + INTRA:         -24.592
REMARK INTER:                 -22.946
REMARK INTRA:                  -1.646
REMARK UNBOUND:                -1.449
REMARK SMILES C[C@@H]1O[C@@H](O[C@H]2[C@H](O)[C@@H](O)[C@H](OC[C@H]3O[C@@H](OC(=O)[C@H]4CC(C)(C)C[C@H]5C6=CC[C@@]7(C)[C@@](C)(CC[C@H]8[C@](C)(CO)[C@@H](O)CC[C@@]87C)[C@]6(C)CC[C@@H]45)[C@H](O)[C@@H](O)[C@@H]3O)O[C@@H]2CO)[C@H](O)[C@H](O)[C@H]1O
REMARK SMILES IDX 14 1 15 2 16 3 52 4 54 5 56 6 13 7 12 8 11 9 6 10 7 11 59 12
REMARK SMILES IDX 9 13 58 14 5 15 4 16 2 17 3 18 66 19 64 20 62 21 1 22 67 23
REMARK SMILES IDX 65 25 63 27 8 29 60 31 61 32 10 34 57 36 17 38 18 39 19 40
REMARK SMILES IDX 20 41 21 42 51 43 22 44 50 45 26 46 25 47 49 48 27 49 47 50
REMARK SMILES IDX 28 51 32 52 29 53 30 54 34 55 45 56 35 57 44 58 36 59 43 60
REMARK SMILES IDX 37 61 41 62 23 63 24 64 48 65 33 66 31 67 46 68 38 69 39 70
REMARK SMILES IDX 40 71 42 73 55 75 53 77
REMARK H PARENT 67 24 65 26 63 28 8 30 61 33 10 35 57 37 40 72 42 74 55 76
REMARK H PARENT 53 78
ROOT
ATOM      1  C   UNL     1      25.005  59.846  41.124  1.00  0.00     0.180 C 
ATOM      2  O   UNL     1      25.021  59.045  42.288  1.00  0.00    -0.332 OA
ATOM      3  C   UNL     1      25.876  59.546  43.320  1.00  0.00     0.342 C 
ATOM      4  C   UNL     1      27.060  60.434  42.808  1.00  0.00     0.214 C 
ATOM      5  C   UNL     1      27.562  59.842  41.484  1.00  0.00     0.180 C 
ATOM      6  C   UNL     1      26.406  59.858  40.434  1.00  0.00     0.177 C 
ENDROOT
BRANCH   1   7
ATOM      7  C   UNL     1      23.916  59.300  40.198  1.00  0.00     0.198 C 
BRANCH   7   8
ATOM      8  O   UNL     1      23.143  60.331  39.607  1.00  0.00    -0.347 OA
BRANCH   8   9
ATOM      9  C   UNL     1      23.919  60.974  38.594  1.00  0.00     0.282 C 
ATOM     10  C   UNL     1      21.710  61.066  36.900  1.00  0.00     0.184 C 
ATOM     11  C   UNL     1      22.990  60.566  36.226  1.00  0.00     0.180 C 
ATOM     12  C   UNL     1      22.112  62.312  37.758  1.00  0.00     0.178 C 
ATOM     13  C   UNL     1      23.994  60.111  37.301  1.00  0.00     0.202 C 
ATOM     14  O   UNL     1      23.410  62.272  38.361  1.00  0.00    -0.341 OA
BRANCH  10  15
ATOM     15  O   UNL     1      20.787  61.557  35.950  1.00  0.00    -0.341 OA
BRANCH  15  16
ATOM     16  C   UNL     1      21.200  62.689  35.207  1.00  0.00     0.282 C 
ATOM     17  C   UNL     1      19.103  63.687  34.888  1.00  0.00     0.150 C 
ATOM     18  O   UNL     1      20.362  63.807  35.517  1.00  0.00    -0.344 OA
ATOM     19  C   UNL     1      19.240  63.901  33.350  1.00  0.00     0.174 C 
ATOM     20  C   UNL     1      20.651  63.464  32.840  1.00  0.00     0.179 C 
ATOM     21  C   UNL     1      21.139  62.286  33.696  1.00  0.00     0.202 C 
ATOM     22  C   UNL     1      18.119  64.676  35.507  1.00  0.00     0.041 C 
BRANCH  19  23
ATOM     23  O   UNL     1      18.204  63.210  32.690  1.00  0.00    -0.388 OA
ATOM     24  H   UNL     1      17.384  63.770  32.732  1.00  0.00     0.211 HD
ENDBRANCH  19  23
BRANCH  20  25
ATOM     25  O   UNL     1      21.586  64.520  32.900  1.00  0.00    -0.387 OA
ATOM     26  H   UNL     1      22.415  64.206  33.343  1.00  0.00     0.211 HD
ENDBRANCH  20  25
BRANCH  21  27
ATOM     27  O   UNL     1      22.358  61.750  33.248  1.00  0.00    -0.385 OA
ATOM     28  H   UNL     1      22.953  61.657  34.038  1.00  0.00     0.211 HD
ENDBRANCH  21  27
ENDBRANCH  15  16
ENDBRANCH  10  15
BRANCH  11  29
ATOM     29  O   UNL     1      22.771  59.533  35.299  1.00  0.00    -0.387 OA
ATOM     30  H   UNL     1      23.654  59.282  34.920  1.00  0.00     0.211 HD
ENDBRANCH  11  29
BRANCH  12  31
ATOM     31  C   UNL     1      21.038  62.665  38.796  1.00  0.00     0.191 C 
BRANCH  31  32
ATOM     32  O   UNL     1      20.286  61.541  39.166  1.00  0.00    -0.394 OA
ATOM     33  H   UNL     1      20.854  60.747  38.991  1.00  0.00     0.210 HD
ENDBRANCH  31  32
ENDBRANCH  12  31
BRANCH  13  34
ATOM     34  O   UNL     1      25.293  60.100  36.747  1.00  0.00    -0.385 OA
ATOM     35  H   UNL     1      25.285  59.464  35.988  1.00  0.00     0.211 HD
ENDBRANCH  13  34
ENDBRANCH   8   9
ENDBRANCH   7   8
ENDBRANCH   1   7
BRANCH   6  36
ATOM     36  O   UNL     1      26.507  60.974  39.584  1.00  0.00    -0.387 OA
ATOM     37  H   UNL     1      27.022  60.709  38.780  1.00  0.00     0.211 HD
ENDBRANCH   6  36
BRANCH   3  38
ATOM     38  O   UNL     1      26.409  58.435  43.952  1.00  0.00    -0.432 OA
BRANCH  38  39
ATOM     39  C   UNL     1      27.489  58.414  44.776  1.00  0.00     0.311 C 
ATOM     40  O   UNL     1      28.552  57.949  44.390  1.00  0.00    -0.252 OA
BRANCH  39  41
ATOM     41  C   UNL     1      27.320  58.991  46.170  1.00  0.00     0.103 C 
ATOM     42  C   UNL     1      26.609  57.949  47.052  1.00  0.00     0.022 C 
ATOM     43  C   UNL     1      28.601  59.491  46.942  1.00  0.00     0.010 C 
ATOM     44  C   UNL     1      27.480  56.657  47.312  1.00  0.00    -0.034 C 
ATOM     45  C   UNL     1      29.523  60.396  46.098  1.00  0.00     0.006 C 
ATOM     46  C   UNL     1      29.301  58.370  47.795  1.00  0.00     0.020 C 
ATOM     47  C   UNL     1      29.020  56.966  47.266  1.00  0.00     0.014 C 
ATOM     48  C   UNL     1      30.768  60.784  46.910  1.00  0.00     0.012 C 
ATOM     49  C   UNL     1      30.761  58.624  48.183  1.00  0.00    -0.064 C 
ATOM     50  C   UNL     1      31.662  59.548  47.329  1.00  0.00    -0.005 C 
ATOM     51  C   UNL     1      31.162  58.083  49.369  1.00  0.00    -0.026 C 
ATOM     52  C   UNL     1      32.975  59.991  48.201  1.00  0.00    -0.017 C 
ATOM     53  C   UNL     1      32.520  58.248  50.012  1.00  0.00     0.035 C 
ATOM     54  C   UNL     1      33.615  58.736  49.020  1.00  0.00    -0.017 C 
ATOM     55  C   UNL     1      34.075  60.600  47.290  1.00  0.00     0.008 C 
ATOM     56  C   UNL     1      35.057  59.069  49.765  1.00  0.00    -0.023 C 
ATOM     57  C   UNL     1      35.359  60.991  48.043  1.00  0.00     0.005 C 
ATOM     58  C   UNL     1      35.794  57.762  50.254  1.00  0.00     0.010 C 
ATOM     59  C   UNL     1      36.033  59.754  48.702  1.00  0.00     0.006 C 
ATOM     60  C   UNL     1      37.214  58.002  50.812  1.00  0.00     0.033 C 
ATOM     61  C   UNL     1      37.548  60.004  49.152  1.00  0.00     0.020 C 
ATOM     62  C   UNL     1      38.107  58.656  49.741  1.00  0.00     0.123 C 
ATOM     63  C   UNL     1      27.193  55.550  46.277  1.00  0.00     0.011 C 
ATOM     64  C   UNL     1      27.078  56.103  48.700  1.00  0.00     0.011 C 
ATOM     65  C   UNL     1      32.038  58.857  45.958  1.00  0.00     0.017 C 
ATOM     66  C   UNL     1      32.496  61.141  49.161  1.00  0.00     0.013 C 
ATOM     67  C   UNL     1      33.831  57.488  48.088  1.00  0.00     0.013 C 
ATOM     68  C   UNL     1      34.851  59.909  51.080  1.00  0.00     0.012 C 
ATOM     69  C   UNL     1      37.717  61.201  50.131  1.00  0.00     0.017 C 
BRANCH  61  70
ATOM     70  C   UNL     1      38.413  60.350  47.886  1.00  0.00     0.165 C 
BRANCH  70  71
ATOM     71  O   UNL     1      39.610  61.010  48.222  1.00  0.00    -0.396 OA
ATOM     72  H   UNL     1      39.448  61.985  48.135  1.00  0.00     0.210 HD
ENDBRANCH  70  71
ENDBRANCH  61  70
BRANCH  62  73
ATOM     73  O   UNL     1      39.427  58.782  50.214  1.00  0.00    -0.392 OA
ATOM     74  H   UNL     1      39.722  59.716  50.052  1.00  0.00     0.210 HD
ENDBRANCH  62  73
ENDBRANCH  39  41
ENDBRANCH  38  39
ENDBRANCH   3  38
BRANCH   5  75
ATOM     75  O   UNL     1      28.056  58.536  41.706  1.00  0.00    -0.387 OA
ATOM     76  H   UNL     1      28.627  58.262  40.941  1.00  0.00     0.211 HD
ENDBRANCH   5  75
BRANCH   4  77
ATOM     77  O   UNL     1      26.641  61.759  42.597  1.00  0.00    -0.384 OA
ATOM     78  H   UNL     1      25.886  61.925  43.221  1.00  0.00     0.211 HD
ENDBRANCH   4  77
TORSDOF 21
ENDMDL
MODEL 8
REMARK VINA RESULT:   -12.002      1.670      2.155
REMARK INTER + INTRA:         -24.326
REMARK INTER:                 -22.790
REMARK INTRA:                  -1.535
REMARK UNBOUND:                -1.449
REMARK SMILES C[C@@H]1O[C@@H](O[C@H]2[C@H](O)[C@@H](O)[C@H](OC[C@H]3O[C@@H](OC(=O)[C@H]4CC(C)(C)C[C@H]5C6=CC[C@@]7(C)[C@@](C)(CC[C@H]8[C@](C)(CO)[C@@H](O)CC[C@@]87C)[C@]6(C)CC[C@@H]45)[C@H](O)[C@@H](O)[C@@H]3O)O[C@@H]2CO)[C@H](O)[C@H](O)[C@H]1O
REMARK SMILES IDX 14 1 15 2 16 3 52 4 54 5 56 6 13 7 12 8 11 9 6 10 7 11 59 12
REMARK SMILES IDX 9 13 58 14 5 15 4 16 2 17 3 18 66 19 64 20 62 21 1 22 67 23
REMARK SMILES IDX 65 25 63 27 8 29 60 31 61 32 10 34 57 36 17 38 18 39 19 40
REMARK SMILES IDX 20 41 21 42 51 43 22 44 50 45 26 46 25 47 49 48 27 49 47 50
REMARK SMILES IDX 28 51 32 52 29 53 30 54 34 55 45 56 35 57 44 58 36 59 43 60
REMARK SMILES IDX 37 61 41 62 23 63 24 64 48 65 33 66 31 67 46 68 38 69 39 70
REMARK SMILES IDX 40 71 42 73 55 75 53 77
REMARK H PARENT 67 24 65 26 63 28 8 30 61 33 10 35 57 37 40 72 42 74 55 76
REMARK H PARENT 53 78
ROOT
ATOM      1  C   UNL     1      25.705  59.088  41.071  1.00  0.00     0.180 C 
ATOM      2  O   UNL     1      26.539  59.672  42.052  1.00  0.00    -0.332 OA
ATOM      3  C   UNL     1      27.728  58.921  42.318  1.00  0.00     0.342 C 
ATOM      4  C   UNL     1      27.609  57.389  42.017  1.00  0.00     0.214 C 
ATOM      5  C   UNL     1      26.196  56.934  42.410  1.00  0.00     0.180 C 
ATOM      6  C   UNL     1      25.143  57.715  41.561  1.00  0.00     0.177 C 
ENDROOT
BRANCH   1   7
ATOM      7  C   UNL     1      24.587  60.084  40.758  1.00  0.00     0.198 C 
BRANCH   7   8
ATOM      8  O   UNL     1      24.445  60.316  39.367  1.00  0.00    -0.347 OA
BRANCH   8   9
ATOM      9  C   UNL     1      24.904  61.634  39.063  1.00  0.00     0.282 C 
ATOM     10  C   UNL     1      22.651  62.102  37.492  1.00  0.00     0.184 C 
ATOM     11  C   UNL     1      23.968  62.519  36.831  1.00  0.00     0.180 C 
ATOM     12  C   UNL     1      22.714  62.607  38.973  1.00  0.00     0.178 C 
ATOM     13  C   UNL     1      25.143  61.815  37.536  1.00  0.00     0.202 C 
ATOM     14  O   UNL     1      24.002  62.583  39.596  1.00  0.00    -0.341 OA
BRANCH  10  15
ATOM     15  O   UNL     1      21.552  62.779  36.919  1.00  0.00    -0.341 OA
BRANCH  15  16
ATOM     16  C   UNL     1      20.803  62.053  35.963  1.00  0.00     0.282 C 
ATOM     17  C   UNL     1      20.516  63.752  34.374  1.00  0.00     0.150 C 
ATOM     18  O   UNL     1      21.125  62.507  34.645  1.00  0.00    -0.344 OA
ATOM     19  C   UNL     1      18.975  63.580  34.205  1.00  0.00     0.174 C 
ATOM     20  C   UNL     1      18.444  62.377  35.048  1.00  0.00     0.179 C 
ATOM     21  C   UNL     1      19.293  62.257  36.323  1.00  0.00     0.202 C 
ATOM     22  C   UNL     1      21.149  64.379  33.134  1.00  0.00     0.041 C 
BRANCH  19  23
ATOM     23  O   UNL     1      18.332  64.786  34.546  1.00  0.00    -0.388 OA
ATOM     24  H   UNL     1      17.423  64.775  34.145  1.00  0.00     0.211 HD
ENDBRANCH  19  23
BRANCH  20  25
ATOM     25  O   UNL     1      18.489  61.164  34.327  1.00  0.00    -0.387 OA
ATOM     26  H   UNL     1      17.691  60.617  34.545  1.00  0.00     0.211 HD
ENDBRANCH  20  25
BRANCH  21  27
ATOM     27  O   UNL     1      18.826  61.266  37.202  1.00  0.00    -0.385 OA
ATOM     28  H   UNL     1      19.281  61.401  38.075  1.00  0.00     0.211 HD
ENDBRANCH  21  27
ENDBRANCH  15  16
ENDBRANCH  10  15
BRANCH  11  29
ATOM     29  O   UNL     1      24.009  62.266  35.450  1.00  0.00    -0.387 OA
ATOM     30  H   UNL     1      24.786  62.761  35.080  1.00  0.00     0.211 HD
ENDBRANCH  11  29
BRANCH  12  31
ATOM     31  C   UNL     1      21.666  61.919  39.858  1.00  0.00     0.191 C 
BRANCH  31  32
ATOM     32  O   UNL     1      21.896  62.164  41.219  1.00  0.00    -0.394 OA
ATOM     33  H   UNL     1      21.542  61.381  41.715  1.00  0.00     0.210 HD
ENDBRANCH  31  32
ENDBRANCH  12  31
BRANCH  13  34
ATOM     34  O   UNL     1      26.335  62.523  37.267  1.00  0.00    -0.385 OA
ATOM     35  H   UNL     1      26.188  63.464  37.538  1.00  0.00     0.211 HD
ENDBRANCH  13  34
ENDBRANCH   8   9
ENDBRANCH   7   8
ENDBRANCH   1   7
BRANCH   6  36
ATOM     36  O   UNL     1      24.716  56.956  40.457  1.00  0.00    -0.387 OA
ATOM     37  H   UNL     1      25.011  56.020  40.588  1.00  0.00     0.211 HD
ENDBRANCH   6  36
BRANCH   3  38
ATOM     38  O   UNL     1      27.990  59.079  43.668  1.00  0.00    -0.432 OA
BRANCH  38  39
ATOM     39  C   UNL     1      27.971  60.245  44.365  1.00  0.00     0.311 C 
ATOM     40  O   UNL     1      27.053  61.038  44.218  1.00  0.00    -0.252 OA
BRANCH  39  41
ATOM     41  C   UNL     1      29.120  60.510  45.321  1.00  0.00     0.103 C 
ATOM     42  C   UNL     1      28.545  60.741  46.731  1.00  0.00     0.022 C 
ATOM     43  C   UNL     1      30.273  59.440  45.433  1.00  0.00     0.010 C 
ATOM     44  C   UNL     1      27.870  59.452  47.345  1.00  0.00    -0.034 C 
ATOM     45  C   UNL     1      30.813  58.961  44.070  1.00  0.00     0.006 C 
ATOM     46  C   UNL     1      29.999  58.329  46.514  1.00  0.00     0.020 C 
ATOM     47  C   UNL     1      28.511  58.129  46.788  1.00  0.00     0.014 C 
ATOM     48  C   UNL     1      31.886  57.882  44.277  1.00  0.00     0.012 C 
ATOM     49  C   UNL     1      30.800  57.031  46.371  1.00  0.00    -0.064 C 
ATOM     50  C   UNL     1      31.345  56.580  44.994  1.00  0.00    -0.005 C 
ATOM     51  C   UNL     1      31.090  56.382  47.535  1.00  0.00    -0.026 C 
ATOM     52  C   UNL     1      32.513  55.453  45.211  1.00  0.00    -0.017 C 
ATOM     53  C   UNL     1      31.925  55.130  47.675  1.00  0.00     0.035 C 
ATOM     54  C   UNL     1      32.097  54.353  46.339  1.00  0.00    -0.017 C 
ATOM     55  C   UNL     1      32.827  54.708  43.885  1.00  0.00     0.008 C 
ATOM     56  C   UNL     1      33.144  53.075  46.467  1.00  0.00    -0.023 C 
ATOM     57  C   UNL     1      33.881  53.597  44.032  1.00  0.00     0.005 C 
ATOM     58  C   UNL     1      32.539  51.889  47.315  1.00  0.00     0.010 C 
ATOM     59  C   UNL     1      33.406  52.483  45.007  1.00  0.00     0.006 C 
ATOM     60  C   UNL     1      33.407  50.612  47.334  1.00  0.00     0.033 C 
ATOM     61  C   UNL     1      34.251  51.128  44.906  1.00  0.00     0.020 C 
ATOM     62  C   UNL     1      33.618  50.087  45.901  1.00  0.00     0.123 C 
ATOM     63  C   UNL     1      26.357  59.398  47.052  1.00  0.00     0.011 C 
ATOM     64  C   UNL     1      28.038  59.533  48.881  1.00  0.00     0.011 C 
ATOM     65  C   UNL     1      30.172  56.080  44.061  1.00  0.00     0.017 C 
ATOM     66  C   UNL     1      33.816  56.241  45.605  1.00  0.00     0.013 C 
ATOM     67  C   UNL     1      30.658  53.773  46.077  1.00  0.00     0.013 C 
ATOM     68  C   UNL     1      34.454  53.473  47.242  1.00  0.00     0.012 C 
ATOM     69  C   UNL     1      35.776  51.327  45.137  1.00  0.00     0.017 C 
BRANCH  61  70
ATOM     70  C   UNL     1      34.103  50.533  43.459  1.00  0.00     0.165 C 
BRANCH  70  71
ATOM     71  O   UNL     1      32.756  50.377  43.081  1.00  0.00    -0.396 OA
ATOM     72  H   UNL     1      32.634  49.435  42.794  1.00  0.00     0.210 HD
ENDBRANCH  70  71
ENDBRANCH  61  70
BRANCH  62  73
ATOM     73  O   UNL     1      34.323  48.868  45.925  1.00  0.00    -0.392 OA
ATOM     74  H   UNL     1      34.654  48.724  46.850  1.00  0.00     0.210 HD
ENDBRANCH  62  73
ENDBRANCH  39  41
ENDBRANCH  38  39
ENDBRANCH   3  38
BRANCH   5  75
ATOM     75  O   UNL     1      26.005  57.126  43.797  1.00  0.00    -0.387 OA
ATOM     76  H   UNL     1      25.740  56.267  44.217  1.00  0.00     0.211 HD
ENDBRANCH   5  75
BRANCH   4  77
ATOM     77  O   UNL     1      27.821  57.125  40.652  1.00  0.00    -0.384 OA
ATOM     78  H   UNL     1      28.804  57.127  40.510  1.00  0.00     0.211 HD
ENDBRANCH   4  77
TORSDOF 21
ENDMDL
MODEL 9
REMARK VINA RESULT:   -11.969      4.783      6.589
REMARK INTER + INTRA:         -24.263
REMARK INTER:                 -22.353
REMARK INTRA:                  -1.909
REMARK UNBOUND:                -1.449
REMARK SMILES C[C@@H]1O[C@@H](O[C@H]2[C@H](O)[C@@H](O)[C@H](OC[C@H]3O[C@@H](OC(=O)[C@H]4CC(C)(C)C[C@H]5C6=CC[C@@]7(C)[C@@](C)(CC[C@H]8[C@](C)(CO)[C@@H](O)CC[C@@]87C)[C@]6(C)CC[C@@H]45)[C@H](O)[C@@H](O)[C@@H]3O)O[C@@H]2CO)[C@H](O)[C@H](O)[C@H]1O
REMARK SMILES IDX 14 1 15 2 16 3 52 4 54 5 56 6 13 7 12 8 11 9 6 10 7 11 59 12
REMARK SMILES IDX 9 13 58 14 5 15 4 16 2 17 3 18 66 19 64 20 62 21 1 22 67 23
REMARK SMILES IDX 65 25 63 27 8 29 60 31 61 32 10 34 57 36 17 38 18 39 19 40
REMARK SMILES IDX 20 41 21 42 51 43 22 44 50 45 26 46 25 47 49 48 27 49 47 50
REMARK SMILES IDX 28 51 32 52 29 53 30 54 34 55 45 56 35 57 44 58 36 59 43 60
REMARK SMILES IDX 37 61 41 62 23 63 24 64 48 65 33 66 31 67 46 68 38 69 39 70
REMARK SMILES IDX 40 71 42 73 55 75 53 77
REMARK H PARENT 67 24 65 26 63 28 8 30 61 33 10 35 57 37 40 72 42 74 55 76
REMARK H PARENT 53 78
ROOT
ATOM      1  C   UNL     1      25.284  59.442  41.131  1.00  0.00     0.180 C 
ATOM      2  O   UNL     1      25.839  59.796  42.382  1.00  0.00    -0.332 OA
ATOM      3  C   UNL     1      27.095  59.168  42.653  1.00  0.00     0.342 C 
ATOM      4  C   UNL     1      27.312  57.806  41.912  1.00  0.00     0.214 C 
ATOM      5  C   UNL     1      25.969  57.065  41.872  1.00  0.00     0.180 C 
ATOM      6  C   UNL     1      24.924  57.923  41.090  1.00  0.00     0.177 C 
ENDROOT
BRANCH   1   7
ATOM      7  C   UNL     1      24.058  60.327  40.899  1.00  0.00     0.198 C 
BRANCH   7   8
ATOM      8  O   UNL     1      23.431  60.065  39.655  1.00  0.00    -0.347 OA
BRANCH   8   9
ATOM      9  C   UNL     1      24.177  60.699  38.614  1.00  0.00     0.282 C 
ATOM     10  C   UNL     1      21.889  60.895  37.036  1.00  0.00     0.184 C 
ATOM     11  C   UNL     1      23.117  60.362  36.290  1.00  0.00     0.180 C 
ATOM     12  C   UNL     1      22.378  62.111  37.891  1.00  0.00     0.178 C 
ATOM     13  C   UNL     1      24.157  59.856  37.306  1.00  0.00     0.202 C 
ATOM     14  O   UNL     1      23.702  62.017  38.427  1.00  0.00    -0.341 OA
BRANCH  10  15
ATOM     15  O   UNL     1      20.938  61.433  36.141  1.00  0.00    -0.341 OA
BRANCH  15  16
ATOM     16  C   UNL     1      21.364  62.540  35.370  1.00  0.00     0.282 C 
ATOM     17  C   UNL     1      19.281  63.559  35.033  1.00  0.00     0.150 C 
ATOM     18  O   UNL     1      20.543  63.677  35.655  1.00  0.00    -0.344 OA
ATOM     19  C   UNL     1      19.415  63.734  33.490  1.00  0.00     0.174 C 
ATOM     20  C   UNL     1      20.817  63.265  32.986  1.00  0.00     0.179 C 
ATOM     21  C   UNL     1      21.292  62.101  33.869  1.00  0.00     0.202 C 
ATOM     22  C   UNL     1      18.312  64.578  35.630  1.00  0.00     0.041 C 
BRANCH  19  23
ATOM     23  O   UNL     1      18.367  63.042  32.850  1.00  0.00    -0.388 OA
ATOM     24  H   UNL     1      17.741  62.715  33.549  1.00  0.00     0.211 HD
ENDBRANCH  19  23
BRANCH  20  25
ATOM     25  O   UNL     1      21.767  64.309  33.017  1.00  0.00    -0.387 OA
ATOM     26  H   UNL     1      21.722  64.774  33.891  1.00  0.00     0.211 HD
ENDBRANCH  20  25
BRANCH  21  27
ATOM     27  O   UNL     1      22.502  61.537  33.430  1.00  0.00    -0.385 OA
ATOM     28  H   UNL     1      22.549  61.657  32.445  1.00  0.00     0.211 HD
ENDBRANCH  21  27
ENDBRANCH  15  16
ENDBRANCH  10  15
BRANCH  11  29
ATOM     29  O   UNL     1      22.815  59.354  35.359  1.00  0.00    -0.387 OA
ATOM     30  H   UNL     1      23.291  59.575  34.517  1.00  0.00     0.211 HD
ENDBRANCH  11  29
BRANCH  12  31
ATOM     31  C   UNL     1      21.371  62.483  38.987  1.00  0.00     0.191 C 
BRANCH  31  32
ATOM     32  O   UNL     1      20.328  63.274  38.485  1.00  0.00    -0.394 OA
ATOM     33  H   UNL     1      19.750  62.675  37.943  1.00  0.00     0.210 HD
ENDBRANCH  31  32
ENDBRANCH  12  31
BRANCH  13  34
ATOM     34  O   UNL     1      25.425  59.810  36.686  1.00  0.00    -0.385 OA
ATOM     35  H   UNL     1      25.359  60.320  35.840  1.00  0.00     0.211 HD
ENDBRANCH  13  34
ENDBRANCH   8   9
ENDBRANCH   7   8
ENDBRANCH   1   7
BRANCH   6  36
ATOM     36  O   UNL     1      24.815  57.498  39.754  1.00  0.00    -0.387 OA
ATOM     37  H   UNL     1      24.675  56.517  39.748  1.00  0.00     0.211 HD
ENDBRANCH   6  36
BRANCH   3  38
ATOM     38  O   UNL     1      27.120  58.929  44.016  1.00  0.00    -0.432 OA
BRANCH  38  39
ATOM     39  C   UNL     1      28.186  59.081  44.845  1.00  0.00     0.311 C 
ATOM     40  O   UNL     1      28.470  60.184  45.291  1.00  0.00    -0.252 OA
BRANCH  39  41
ATOM     41  C   UNL     1      28.990  57.841  45.191  1.00  0.00     0.103 C 
ATOM     42  C   UNL     1      30.272  57.830  44.338  1.00  0.00     0.022 C 
ATOM     43  C   UNL     1      29.402  57.601  46.694  1.00  0.00     0.010 C 
ATOM     44  C   UNL     1      31.267  59.003  44.698  1.00  0.00    -0.034 C 
ATOM     45  C   UNL     1      28.241  57.780  47.694  1.00  0.00     0.006 C 
ATOM     46  C   UNL     1      30.777  58.258  47.084  1.00  0.00     0.020 C 
ATOM     47  C   UNL     1      31.131  59.451  46.198  1.00  0.00     0.014 C 
ATOM     48  C   UNL     1      28.747  57.586  49.130  1.00  0.00     0.012 C 
ATOM     49  C   UNL     1      31.024  58.480  48.579  1.00  0.00    -0.064 C 
ATOM     50  C   UNL     1      29.842  58.642  49.565  1.00  0.00    -0.005 C 
ATOM     51  C   UNL     1      32.325  58.409  48.982  1.00  0.00    -0.026 C 
ATOM     52  C   UNL     1      30.370  58.403  51.096  1.00  0.00    -0.017 C 
ATOM     53  C   UNL     1      32.826  58.516  50.404  1.00  0.00     0.035 C 
ATOM     54  C   UNL     1      31.791  59.152  51.375  1.00  0.00    -0.017 C 
ATOM     55  C   UNL     1      29.332  58.910  52.134  1.00  0.00     0.008 C 
ATOM     56  C   UNL     1      32.284  59.117  52.957  1.00  0.00    -0.023 C 
ATOM     57  C   UNL     1      29.791  58.762  53.595  1.00  0.00     0.005 C 
ATOM     58  C   UNL     1      33.469  60.121  53.236  1.00  0.00     0.010 C 
ATOM     59  C   UNL     1      31.071  59.597  53.879  1.00  0.00     0.006 C 
ATOM     60  C   UNL     1      33.861  60.245  54.725  1.00  0.00     0.033 C 
ATOM     61  C   UNL     1      31.375  59.812  55.436  1.00  0.00     0.020 C 
ATOM     62  C   UNL     1      32.656  60.718  55.559  1.00  0.00     0.123 C 
ATOM     63  C   UNL     1      31.037  60.246  43.815  1.00  0.00     0.011 C 
ATOM     64  C   UNL     1      32.700  58.494  44.410  1.00  0.00     0.011 C 
ATOM     65  C   UNL     1      29.133  60.041  49.369  1.00  0.00     0.017 C 
ATOM     66  C   UNL     1      30.475  56.846  51.287  1.00  0.00     0.013 C 
ATOM     67  C   UNL     1      31.751  60.656  50.916  1.00  0.00     0.013 C 
ATOM     68  C   UNL     1      32.871  57.711  53.350  1.00  0.00     0.012 C 
ATOM     69  C   UNL     1      31.501  58.483  56.234  1.00  0.00     0.017 C 
BRANCH  61  70
ATOM     70  C   UNL     1      30.184  60.602  56.090  1.00  0.00     0.165 C 
BRANCH  70  71
ATOM     71  O   UNL     1      30.536  61.927  56.410  1.00  0.00    -0.396 OA
ATOM     72  H   UNL     1      31.351  62.154  55.891  1.00  0.00     0.210 HD
ENDBRANCH  70  71
ENDBRANCH  61  70
BRANCH  62  73
ATOM     73  O   UNL     1      33.038  60.928  56.897  1.00  0.00    -0.392 OA
ATOM     74  H   UNL     1      34.020  61.078  56.915  1.00  0.00     0.210 HD
ENDBRANCH  62  73
ENDBRANCH  39  41
ENDBRANCH  38  39
ENDBRANCH   3  38
BRANCH   5  75
ATOM     75  O   UNL     1      25.542  56.785  43.190  1.00  0.00    -0.387 OA
ATOM     76  H   UNL     1      26.076  56.035  43.560  1.00  0.00     0.211 HD
ENDBRANCH   5  75
BRANCH   4  77
ATOM     77  O   UNL     1      27.770  58.013  40.599  1.00  0.00    -0.384 OA
ATOM     78  H   UNL     1      28.314  58.844  40.613  1.00  0.00     0.211 HD
ENDBRANCH   4  77
TORSDOF 21
ENDMDL
