MODEL 1
REMARK VINA RESULT:   -12.142      0.000      0.000
REMARK INTER + INTRA:         -21.575
REMARK INTER:                 -19.950
REMARK INTRA:                  -1.625
REMARK UNBOUND:                -1.625
REMARK SMILES C[C@H]1O[C@@H](O[C@H]2CC[C@]3(C=O)[C@H]4[C@H](O)C[C@]5(C)[C@@H](C6=CC(=O)OC6)CC[C@]5(O)[C@@H]4CC[C@]3(O)C2)C[C@H](O)[C@@H]1O[C@@H]1O[C@H](CO)[C@@H](O)[C@H](O)[C@H]1O
REMARK SMILES IDX 1 1 2 2 3 3 4 4 35 5 36 6 38 7 39 8 40 9 41 10 49 11 42 12
REMARK SMILES IDX 47 13 45 14 50 15 43 17 44 18 48 20 46 22 5 24 6 25 7 26
REMARK SMILES IDX 34 27 8 28 32 29 9 30 31 31 12 32 30 33 13 34 29 35 15 36
REMARK SMILES IDX 27 37 16 38 26 39 18 40 25 41 17 42 33 43 10 45 11 46 14 47
REMARK SMILES IDX 28 49 19 51 20 52 24 53 21 54 23 55 22 56 37 57
REMARK H PARENT 50 16 44 19 48 21 46 23 33 44 14 48 28 50 37 58
ROOT
ATOM      1  C   UNL     1      24.786  62.509  37.205  1.00  0.00     0.041 C 
ATOM      2  C   UNL     1      23.837  61.521  37.880  1.00  0.00     0.150 C 
ATOM      3  O   UNL     1      24.407  61.048  39.083  1.00  0.00    -0.347 OA
ATOM      4  C   UNL     1      23.691  59.909  39.579  1.00  0.00     0.253 C 
ATOM      5  C   UNL     1      22.146  60.025  39.409  1.00  0.00     0.096 C 
ATOM      6  C   UNL     1      21.799  61.517  39.397  1.00  0.00     0.151 C 
ATOM      7  C   UNL     1      22.433  62.148  38.131  1.00  0.00     0.179 C 
ENDROOT
BRANCH   7   8
ATOM      8  O   UNL     1      21.643  61.815  36.998  1.00  0.00    -0.341 OA
BRANCH   8   9
ATOM      9  C   UNL     1      21.075  62.924  36.335  1.00  0.00     0.282 C 
ATOM     10  O   UNL     1      19.703  63.027  36.733  1.00  0.00    -0.341 OA
ATOM     11  C   UNL     1      21.219  62.629  34.827  1.00  0.00     0.202 C 
ATOM     12  C   UNL     1      18.809  63.641  35.794  1.00  0.00     0.178 C 
ATOM     13  C   UNL     1      20.541  63.690  33.926  1.00  0.00     0.179 C 
ATOM     14  C   UNL     1      19.526  64.518  34.740  1.00  0.00     0.177 C 
BRANCH  11  15
ATOM     15  O   UNL     1      22.557  62.429  34.448  1.00  0.00    -0.385 OA
ATOM     16  H   UNL     1      23.088  62.363  35.286  1.00  0.00     0.211 HD
ENDBRANCH  11  15
BRANCH  12  17
ATOM     17  C   UNL     1      17.882  62.587  35.159  1.00  0.00     0.191 C 
BRANCH  17  18
ATOM     18  O   UNL     1      17.294  61.790  36.152  1.00  0.00    -0.394 OA
ATOM     19  H   UNL     1      18.035  61.416  36.696  1.00  0.00     0.210 HD
ENDBRANCH  17  18
ENDBRANCH  12  17
BRANCH  13  20
ATOM     20  O   UNL     1      19.894  63.051  32.852  1.00  0.00    -0.387 OA
ATOM     21  H   UNL     1      19.866  62.081  33.062  1.00  0.00     0.211 HD
ENDBRANCH  13  20
BRANCH  14  22
ATOM     22  O   UNL     1      20.197  65.543  35.434  1.00  0.00    -0.387 OA
ATOM     23  H   UNL     1      20.004  65.417  36.399  1.00  0.00     0.211 HD
ENDBRANCH  14  22
ENDBRANCH   8   9
ENDBRANCH   7   8
BRANCH   4  24
ATOM     24  O   UNL     1      23.949  59.820  40.968  1.00  0.00    -0.349 OA
BRANCH  24  25
ATOM     25  C   UNL     1      25.326  59.952  41.290  1.00  0.00     0.124 C 
ATOM     26  C   UNL     1      25.507  59.929  42.830  1.00  0.00     0.033 C 
ATOM     27  C   UNL     1      26.055  58.787  40.573  1.00  0.00     0.068 C 
ATOM     28  C   UNL     1      25.745  58.505  43.296  1.00  0.00     0.020 C 
ATOM     29  C   UNL     1      27.396  58.395  41.233  1.00  0.00     0.080 C 
ATOM     30  C   UNL     1      27.128  57.939  42.776  1.00  0.00     0.060 C 
ATOM     31  C   UNL     1      28.400  59.560  41.181  1.00  0.00     0.037 C 
ATOM     32  C   UNL     1      28.360  58.411  43.725  1.00  0.00     0.040 C 
ATOM     33  C   UNL     1      29.773  59.102  41.705  1.00  0.00     0.010 C 
ATOM     34  C   UNL     1      28.366  57.725  45.137  1.00  0.00     0.119 C 
ATOM     35  C   UNL     1      29.694  58.163  42.954  1.00  0.00     0.028 C 
ATOM     36  C   UNL     1      29.665  57.971  45.907  1.00  0.00     0.042 C 
ATOM     37  C   UNL     1      31.039  58.218  43.771  1.00  0.00     0.074 C 
ATOM     38  C   UNL     1      30.947  57.485  45.141  1.00  0.00     0.006 C 
ATOM     39  C   UNL     1      31.554  59.616  44.223  1.00  0.00     0.037 C 
ATOM     40  C   UNL     1      32.197  58.017  45.947  1.00  0.00     0.028 C 
ATOM     41  C   UNL     1      32.706  59.236  45.151  1.00  0.00     0.012 C 
ATOM     42  C   UNL     1      30.883  55.937  45.008  1.00  0.00     0.015 C 
BRANCH  29  43
ATOM     43  O   UNL     1      27.976  57.347  40.481  1.00  0.00    -0.389 OA
ATOM     44  H   UNL     1      27.592  57.362  39.564  1.00  0.00     0.211 HD
ENDBRANCH  29  43
BRANCH  30  45
ATOM     45  C   UNL     1      26.923  56.414  42.889  1.00  0.00     0.234 C 
ATOM     46  O   UNL     1      25.959  55.900  43.433  1.00  0.00    -0.303 OA
ENDBRANCH  30  45
BRANCH  34  47
ATOM     47  O   UNL     1      27.286  58.139  45.932  1.00  0.00    -0.393 OA
ATOM     48  H   UNL     1      27.105  57.420  46.594  1.00  0.00     0.210 HD
ENDBRANCH  34  47
BRANCH  37  49
ATOM     49  O   UNL     1      32.046  57.595  42.997  1.00  0.00    -0.389 OA
ATOM     50  H   UNL     1      31.694  56.727  42.666  1.00  0.00     0.211 HD
ENDBRANCH  37  49
BRANCH  40  51
ATOM     51  C   UNL     1      33.322  57.034  46.259  1.00  0.00    -0.022 C 
ATOM     52  C   UNL     1      34.373  56.862  45.467  1.00  0.00     0.096 C 
ATOM     53  C   UNL     1      33.447  56.099  47.454  1.00  0.00     0.265 C 
ATOM     54  C   UNL     1      35.199  55.870  46.105  1.00  0.00     0.331 C 
ATOM     55  O   UNL     1      34.644  55.439  47.248  1.00  0.00    -0.458 OA
ATOM     56  O   UNL     1      36.267  55.464  45.678  1.00  0.00    -0.247 OA
ENDBRANCH  40  51
ENDBRANCH  24  25
ENDBRANCH   4  24
BRANCH   6  57
ATOM     57  O   UNL     1      20.417  61.763  39.465  1.00  0.00    -0.390 OA
ATOM     58  H   UNL     1      20.075  61.359  40.304  1.00  0.00     0.211 HD
ENDBRANCH   6  57
TORSDOF 15
ENDMDL
MODEL 2
REMARK VINA RESULT:   -12.140      2.227      3.861
REMARK INTER + INTRA:         -21.572
REMARK INTER:                 -19.665
REMARK INTRA:                  -1.908
REMARK UNBOUND:                -1.625
REMARK SMILES C[C@H]1O[C@@H](O[C@H]2CC[C@]3(C=O)[C@H]4[C@H](O)C[C@]5(C)[C@@H](C6=CC(=O)OC6)CC[C@]5(O)[C@@H]4CC[C@]3(O)C2)C[C@H](O)[C@@H]1O[C@@H]1O[C@H](CO)[C@@H](O)[C@H](O)[C@H]1O
REMARK SMILES IDX 1 1 2 2 3 3 4 4 35 5 36 6 38 7 39 8 40 9 41 10 49 11 42 12
REMARK SMILES IDX 47 13 45 14 50 15 43 17 44 18 48 20 46 22 5 24 6 25 7 26
REMARK SMILES IDX 34 27 8 28 32 29 9 30 31 31 12 32 30 33 13 34 29 35 15 36
REMARK SMILES IDX 27 37 16 38 26 39 18 40 25 41 17 42 33 43 10 45 11 46 14 47
REMARK SMILES IDX 28 49 19 51 20 52 24 53 21 54 23 55 22 56 37 57
REMARK H PARENT 50 16 44 19 48 21 46 23 33 44 14 48 28 50 37 58
ROOT
ATOM      1  C   UNL     1      21.349  60.063  39.162  1.00  0.00     0.041 C 
ATOM      2  C   UNL     1      22.417  61.094  38.808  1.00  0.00     0.150 C 
ATOM      3  O   UNL     1      23.589  60.854  39.560  1.00  0.00    -0.347 OA
ATOM      4  C   UNL     1      24.490  61.967  39.478  1.00  0.00     0.253 C 
ATOM      5  C   UNL     1      24.560  62.605  38.059  1.00  0.00     0.096 C 
ATOM      6  C   UNL     1      24.201  61.512  37.048  1.00  0.00     0.151 C 
ATOM      7  C   UNL     1      22.723  61.108  37.280  1.00  0.00     0.179 C 
ENDROOT
BRANCH   7   8
ATOM      8  O   UNL     1      21.875  62.098  36.717  1.00  0.00    -0.341 OA
BRANCH   8   9
ATOM      9  C   UNL     1      21.024  61.626  35.693  1.00  0.00     0.282 C 
ATOM     10  O   UNL     1      21.636  61.921  34.432  1.00  0.00    -0.341 OA
ATOM     11  C   UNL     1      19.689  62.378  35.878  1.00  0.00     0.202 C 
ATOM     12  C   UNL     1      20.751  62.096  33.318  1.00  0.00     0.178 C 
ATOM     13  C   UNL     1      18.655  62.078  34.766  1.00  0.00     0.179 C 
ATOM     14  C   UNL     1      19.353  61.468  33.533  1.00  0.00     0.177 C 
BRANCH  11  15
ATOM     15  O   UNL     1      19.132  62.171  37.151  1.00  0.00    -0.385 OA
ATOM     16  H   UNL     1      19.528  61.331  37.507  1.00  0.00     0.211 HD
ENDBRANCH  11  15
BRANCH  12  17
ATOM     17  C   UNL     1      20.680  63.580  32.908  1.00  0.00     0.191 C 
BRANCH  17  18
ATOM     18  O   UNL     1      21.846  64.252  33.302  1.00  0.00    -0.394 OA
ATOM     19  H   UNL     1      22.605  63.637  33.129  1.00  0.00     0.210 HD
ENDBRANCH  17  18
ENDBRANCH  12  17
BRANCH  13  20
ATOM     20  O   UNL     1      17.990  63.265  34.409  1.00  0.00    -0.387 OA
ATOM     21  H   UNL     1      17.784  63.750  35.250  1.00  0.00     0.211 HD
ENDBRANCH  13  20
BRANCH  14  22
ATOM     22  O   UNL     1      19.539  60.087  33.727  1.00  0.00    -0.387 OA
ATOM     23  H   UNL     1      19.799  59.958  34.677  1.00  0.00     0.211 HD
ENDBRANCH  14  22
ENDBRANCH   8   9
ENDBRANCH   7   8
BRANCH   4  24
ATOM     24  O   UNL     1      25.786  61.483  39.778  1.00  0.00    -0.349 OA
BRANCH  24  25
ATOM     25  C   UNL     1      25.799  60.538  40.839  1.00  0.00     0.124 C 
ATOM     26  C   UNL     1      26.311  59.171  40.316  1.00  0.00     0.033 C 
ATOM     27  C   UNL     1      26.697  61.142  41.950  1.00  0.00     0.068 C 
ATOM     28  C   UNL     1      27.815  59.086  40.496  1.00  0.00     0.020 C 
ATOM     29  C   UNL     1      27.313  60.085  42.892  1.00  0.00     0.080 C 
ATOM     30  C   UNL     1      28.225  59.049  42.023  1.00  0.00     0.060 C 
ATOM     31  C   UNL     1      26.218  59.325  43.662  1.00  0.00     0.037 C 
ATOM     32  C   UNL     1      28.109  57.547  42.635  1.00  0.00     0.040 C 
ATOM     33  C   UNL     1      26.854  58.386  44.702  1.00  0.00     0.010 C 
ATOM     34  C   UNL     1      29.206  56.561  42.096  1.00  0.00     0.119 C 
ATOM     35  C   UNL     1      28.137  57.650  44.192  1.00  0.00     0.028 C 
ATOM     36  C   UNL     1      29.249  55.245  42.874  1.00  0.00     0.042 C 
ATOM     37  C   UNL     1      28.378  56.328  45.014  1.00  0.00     0.074 C 
ATOM     38  C   UNL     1      29.502  55.436  44.411  1.00  0.00     0.006 C 
ATOM     39  C   UNL     1      27.208  55.305  45.096  1.00  0.00     0.037 C 
ATOM     40  C   UNL     1      29.285  54.029  45.095  1.00  0.00     0.028 C 
ATOM     41  C   UNL     1      27.892  54.106  45.751  1.00  0.00     0.012 C 
ATOM     42  C   UNL     1      30.927  56.028  44.605  1.00  0.00     0.015 C 
BRANCH  29  43
ATOM     43  O   UNL     1      28.085  60.752  43.871  1.00  0.00    -0.389 OA
ATOM     44  H   UNL     1      28.839  61.217  43.419  1.00  0.00     0.211 HD
ENDBRANCH  29  43
BRANCH  30  45
ATOM     45  C   UNL     1      29.701  59.493  41.979  1.00  0.00     0.234 C 
ATOM     46  O   UNL     1      30.056  60.647  41.801  1.00  0.00    -0.303 OA
ENDBRANCH  30  45
BRANCH  34  47
ATOM     47  O   UNL     1      29.034  56.273  40.733  1.00  0.00    -0.393 OA
ATOM     48  H   UNL     1      28.171  55.790  40.633  1.00  0.00     0.210 HD
ENDBRANCH  34  47
BRANCH  37  49
ATOM     49  O   UNL     1      28.752  56.693  46.328  1.00  0.00    -0.389 OA
ATOM     50  H   UNL     1      28.163  57.435  46.627  1.00  0.00     0.211 HD
ENDBRANCH  37  49
BRANCH  40  51
ATOM     51  C   UNL     1      30.347  53.534  46.075  1.00  0.00    -0.022 C 
ATOM     52  C   UNL     1      31.297  52.672  45.737  1.00  0.00     0.096 C 
ATOM     53  C   UNL     1      30.507  53.893  47.545  1.00  0.00     0.265 C 
ATOM     54  C   UNL     1      32.093  52.467  46.920  1.00  0.00     0.331 C 
ATOM     55  O   UNL     1      31.616  53.177  47.953  1.00  0.00    -0.458 OA
ATOM     56  O   UNL     1      33.076  51.748  46.990  1.00  0.00    -0.247 OA
ENDBRANCH  40  51
ENDBRANCH  24  25
ENDBRANCH   4  24
BRANCH   6  57
ATOM     57  O   UNL     1      24.433  61.894  35.716  1.00  0.00    -0.390 OA
ATOM     58  H   UNL     1      23.917  62.723  35.540  1.00  0.00     0.211 HD
ENDBRANCH   6  57
TORSDOF 15
ENDMDL
MODEL 3
REMARK VINA RESULT:   -12.128      3.053     14.204
REMARK INTER + INTRA:         -21.552
REMARK INTER:                 -19.827
REMARK INTRA:                  -1.725
REMARK UNBOUND:                -1.625
REMARK SMILES C[C@H]1O[C@@H](O[C@H]2CC[C@]3(C=O)[C@H]4[C@H](O)C[C@]5(C)[C@@H](C6=CC(=O)OC6)CC[C@]5(O)[C@@H]4CC[C@]3(O)C2)C[C@H](O)[C@@H]1O[C@@H]1O[C@H](CO)[C@@H](O)[C@H](O)[C@H]1O
REMARK SMILES IDX 1 1 2 2 3 3 4 4 35 5 36 6 38 7 39 8 40 9 41 10 49 11 42 12
REMARK SMILES IDX 47 13 45 14 50 15 43 17 44 18 48 20 46 22 5 24 6 25 7 26
REMARK SMILES IDX 34 27 8 28 32 29 9 30 31 31 12 32 30 33 13 34 29 35 15 36
REMARK SMILES IDX 27 37 16 38 26 39 18 40 25 41 17 42 33 43 10 45 11 46 14 47
REMARK SMILES IDX 28 49 19 51 20 52 24 53 21 54 23 55 22 56 37 57
REMARK H PARENT 50 16 44 19 48 21 46 23 33 44 14 48 28 50 37 58
ROOT
ATOM      1  C   UNL     1      28.374  61.097  42.418  1.00  0.00     0.041 C 
ATOM      2  C   UNL     1      26.965  60.516  42.337  1.00  0.00     0.150 C 
ATOM      3  O   UNL     1      26.533  60.478  40.992  1.00  0.00    -0.347 OA
ATOM      4  C   UNL     1      25.124  60.226  40.910  1.00  0.00     0.253 C 
ATOM      5  C   UNL     1      24.619  59.180  41.949  1.00  0.00     0.096 C 
ATOM      6  C   UNL     1      25.798  58.260  42.280  1.00  0.00     0.151 C 
ATOM      7  C   UNL     1      26.883  59.105  42.994  1.00  0.00     0.179 C 
ENDROOT
BRANCH   7   8
ATOM      8  O   UNL     1      26.494  59.319  44.343  1.00  0.00    -0.341 OA
BRANCH   8   9
ATOM      9  C   UNL     1      27.412  58.834  45.300  1.00  0.00     0.282 C 
ATOM     10  O   UNL     1      27.698  57.465  44.991  1.00  0.00    -0.341 OA
ATOM     11  C   UNL     1      26.711  58.985  46.667  1.00  0.00     0.202 C 
ATOM     12  C   UNL     1      28.083  56.629  46.091  1.00  0.00     0.178 C 
ATOM     13  C   UNL     1      27.523  58.391  47.843  1.00  0.00     0.179 C 
ATOM     14  C   UNL     1      28.598  57.418  47.318  1.00  0.00     0.177 C 
BRANCH  11  15
ATOM     15  O   UNL     1      26.339  60.314  46.932  1.00  0.00    -0.385 OA
ATOM     16  H   UNL     1      26.249  60.770  46.054  1.00  0.00     0.211 HD
ENDBRANCH  11  15
BRANCH  12  17
ATOM     17  C   UNL     1      26.950  55.647  46.449  1.00  0.00     0.191 C 
BRANCH  17  18
ATOM     18  O   UNL     1      26.065  55.507  45.370  1.00  0.00    -0.394 OA
ATOM     19  H   UNL     1      25.885  56.420  45.025  1.00  0.00     0.210 HD
ENDBRANCH  17  18
ENDBRANCH  12  17
BRANCH  13  20
ATOM     20  O   UNL     1      26.655  57.724  48.726  1.00  0.00    -0.387 OA
ATOM     21  H   UNL     1      26.403  58.372  49.435  1.00  0.00     0.211 HD
ENDBRANCH  13  20
BRANCH  14  22
ATOM     22  O   UNL     1      29.733  58.142  46.905  1.00  0.00    -0.387 OA
ATOM     23  H   UNL     1      29.583  59.089  47.159  1.00  0.00     0.211 HD
ENDBRANCH  14  22
ENDBRANCH   8   9
ENDBRANCH   7   8
BRANCH   4  24
ATOM     24  O   UNL     1      24.865  59.692  39.625  1.00  0.00    -0.349 OA
BRANCH  24  25
ATOM     25  C   UNL     1      24.440  60.672  38.688  1.00  0.00     0.124 C 
ATOM     26  C   UNL     1      23.892  59.974  37.415  1.00  0.00     0.033 C 
ATOM     27  C   UNL     1      23.379  61.538  39.414  1.00  0.00     0.068 C 
ATOM     28  C   UNL     1      22.397  59.756  37.556  1.00  0.00     0.020 C 
ATOM     29  C   UNL     1      22.393  62.243  38.455  1.00  0.00     0.080 C 
ATOM     30  C   UNL     1      21.602  61.123  37.572  1.00  0.00     0.060 C 
ATOM     31  C   UNL     1      23.128  63.234  37.536  1.00  0.00     0.037 C 
ATOM     32  C   UNL     1      21.337  61.677  36.067  1.00  0.00     0.040 C 
ATOM     33  C   UNL     1      22.114  64.033  36.698  1.00  0.00     0.010 C 
ATOM     34  C   UNL     1      20.290  60.830  35.259  1.00  0.00     0.119 C 
ATOM     35  C   UNL     1      20.918  63.177  36.165  1.00  0.00     0.028 C 
ATOM     36  C   UNL     1      19.857  61.512  33.960  1.00  0.00     0.042 C 
ATOM     37  C   UNL     1      20.284  63.850  34.889  1.00  0.00     0.074 C 
ATOM     38  C   UNL     1      19.241  62.940  34.179  1.00  0.00     0.006 C 
ATOM     39  C   UNL     1      21.232  64.186  33.702  1.00  0.00     0.037 C 
ATOM     40  C   UNL     1      19.067  63.594  32.752  1.00  0.00     0.028 C 
ATOM     41  C   UNL     1      20.237  64.589  32.616  1.00  0.00     0.012 C 
ATOM     42  C   UNL     1      17.914  62.786  34.977  1.00  0.00     0.015 C 
BRANCH  29  43
ATOM     43  O   UNL     1      21.495  63.018  39.225  1.00  0.00    -0.389 OA
ATOM     44  H   UNL     1      21.585  62.754  40.180  1.00  0.00     0.211 HD
ENDBRANCH  29  43
BRANCH  30  45
ATOM     45  C   UNL     1      20.267  60.720  38.233  1.00  0.00     0.234 C 
ATOM     46  O   UNL     1      20.176  60.313  39.380  1.00  0.00    -0.303 OA
ENDBRANCH  30  45
BRANCH  34  47
ATOM     47  O   UNL     1      20.769  59.547  34.955  1.00  0.00    -0.393 OA
ATOM     48  H   UNL     1      20.388  58.917  35.623  1.00  0.00     0.210 HD
ENDBRANCH  34  47
BRANCH  37  49
ATOM     49  O   UNL     1      19.636  65.039  35.300  1.00  0.00    -0.389 OA
ATOM     50  H   UNL     1      18.676  64.972  35.056  1.00  0.00     0.211 HD
ENDBRANCH  37  49
BRANCH  40  51
ATOM     51  C   UNL     1      17.728  64.244  32.417  1.00  0.00    -0.022 C 
ATOM     52  C   UNL     1      17.137  64.116  31.235  1.00  0.00     0.096 C 
ATOM     53  C   UNL     1      16.864  65.127  33.306  1.00  0.00     0.265 C 
ATOM     54  C   UNL     1      15.906  64.860  31.318  1.00  0.00     0.331 C 
ATOM     55  O   UNL     1      15.771  65.440  32.521  1.00  0.00    -0.458 OA
ATOM     56  O   UNL     1      15.082  64.958  30.424  1.00  0.00    -0.247 OA
ENDBRANCH  40  51
ENDBRANCH  24  25
ENDBRANCH   4  24
BRANCH   6  57
ATOM     57  O   UNL     1      25.426  57.139  43.041  1.00  0.00    -0.390 OA
ATOM     58  H   UNL     1      25.561  57.361  44.000  1.00  0.00     0.211 HD
ENDBRANCH   6  57
TORSDOF 15
ENDMDL
MODEL 4
REMARK VINA RESULT:   -12.056      1.552      2.306
REMARK INTER + INTRA:         -21.433
REMARK INTER:                 -19.979
REMARK INTRA:                  -1.454
REMARK UNBOUND:                -1.625
REMARK SMILES C[C@H]1O[C@@H](O[C@H]2CC[C@]3(C=O)[C@H]4[C@H](O)C[C@]5(C)[C@@H](C6=CC(=O)OC6)CC[C@]5(O)[C@@H]4CC[C@]3(O)C2)C[C@H](O)[C@@H]1O[C@@H]1O[C@H](CO)[C@@H](O)[C@H](O)[C@H]1O
REMARK SMILES IDX 1 1 2 2 3 3 4 4 35 5 36 6 38 7 39 8 40 9 41 10 49 11 42 12
REMARK SMILES IDX 47 13 45 14 50 15 43 17 44 18 48 20 46 22 5 24 6 25 7 26
REMARK SMILES IDX 34 27 8 28 32 29 9 30 31 31 12 32 30 33 13 34 29 35 15 36
REMARK SMILES IDX 27 37 16 38 26 39 18 40 25 41 17 42 33 43 10 45 11 46 14 47
REMARK SMILES IDX 28 49 19 51 20 52 24 53 21 54 23 55 22 56 37 57
REMARK H PARENT 50 16 44 19 48 21 46 23 33 44 14 48 28 50 37 58
ROOT
ATOM      1  C   UNL     1      24.797  62.164  37.007  1.00  0.00     0.041 C 
ATOM      2  C   UNL     1      23.754  61.346  37.765  1.00  0.00     0.150 C 
ATOM      3  O   UNL     1      24.289  60.901  38.995  1.00  0.00    -0.347 OA
ATOM      4  C   UNL     1      23.457  59.892  39.584  1.00  0.00     0.253 C 
ATOM      5  C   UNL     1      21.933  60.173  39.422  1.00  0.00     0.096 C 
ATOM      6  C   UNL     1      21.759  61.690  39.300  1.00  0.00     0.151 C 
ATOM      7  C   UNL     1      22.436  62.148  37.982  1.00  0.00     0.179 C 
ENDROOT
BRANCH   7   8
ATOM      8  O   UNL     1      21.592  61.825  36.887  1.00  0.00    -0.341 OA
BRANCH   8   9
ATOM      9  C   UNL     1      21.033  62.943  36.230  1.00  0.00     0.282 C 
ATOM     10  O   UNL     1      19.672  63.077  36.656  1.00  0.00    -0.341 OA
ATOM     11  C   UNL     1      21.140  62.637  34.721  1.00  0.00     0.202 C 
ATOM     12  C   UNL     1      18.773  63.705  35.732  1.00  0.00     0.178 C 
ATOM     13  C   UNL     1      20.465  63.707  33.828  1.00  0.00     0.179 C 
ATOM     14  C   UNL     1      19.485  64.561  34.658  1.00  0.00     0.177 C 
BRANCH  11  15
ATOM     15  O   UNL     1      22.465  62.407  34.315  1.00  0.00    -0.385 OA
ATOM     16  H   UNL     1      22.437  62.191  33.346  1.00  0.00     0.211 HD
ENDBRANCH  11  15
BRANCH  12  17
ATOM     17  C   UNL     1      17.810  62.667  35.122  1.00  0.00     0.191 C 
BRANCH  17  18
ATOM     18  O   UNL     1      17.304  61.823  36.121  1.00  0.00    -0.394 OA
ATOM     19  H   UNL     1      18.036  61.203  36.372  1.00  0.00     0.210 HD
ENDBRANCH  17  18
ENDBRANCH  12  17
BRANCH  13  20
ATOM     20  O   UNL     1      19.783  63.077  32.772  1.00  0.00    -0.387 OA
ATOM     21  H   UNL     1      19.285  62.311  33.160  1.00  0.00     0.211 HD
ENDBRANCH  13  20
BRANCH  14  22
ATOM     22  O   UNL     1      20.193  65.575  35.333  1.00  0.00    -0.387 OA
ATOM     23  H   UNL     1      19.679  66.416  35.217  1.00  0.00     0.211 HD
ENDBRANCH  14  22
ENDBRANCH   8   9
ENDBRANCH   7   8
BRANCH   4  24
ATOM     24  O   UNL     1      23.730  59.878  40.973  1.00  0.00    -0.349 OA
BRANCH  24  25
ATOM     25  C   UNL     1      24.922  59.178  41.301  1.00  0.00     0.124 C 
ATOM     26  C   UNL     1      26.138  60.135  41.191  1.00  0.00     0.033 C 
ATOM     27  C   UNL     1      24.716  58.615  42.731  1.00  0.00     0.068 C 
ATOM     28  C   UNL     1      26.395  60.791  42.534  1.00  0.00     0.020 C 
ATOM     29  C   UNL     1      26.037  58.351  43.489  1.00  0.00     0.080 C 
ATOM     30  C   UNL     1      26.875  59.744  43.618  1.00  0.00     0.060 C 
ATOM     31  C   UNL     1      26.879  57.278  42.777  1.00  0.00     0.037 C 
ATOM     32  C   UNL     1      28.470  59.454  43.501  1.00  0.00     0.040 C 
ATOM     33  C   UNL     1      28.113  56.922  43.624  1.00  0.00     0.010 C 
ATOM     34  C   UNL     1      29.366  60.660  43.958  1.00  0.00     0.119 C 
ATOM     35  C   UNL     1      28.792  58.156  44.306  1.00  0.00     0.028 C 
ATOM     36  C   UNL     1      30.841  60.281  44.096  1.00  0.00     0.042 C 
ATOM     37  C   UNL     1      30.301  57.845  44.631  1.00  0.00     0.074 C 
ATOM     38  C   UNL     1      31.091  59.101  45.102  1.00  0.00     0.006 C 
ATOM     39  C   UNL     1      31.205  57.352  43.465  1.00  0.00     0.037 C 
ATOM     40  C   UNL     1      32.607  58.680  44.954  1.00  0.00     0.028 C 
ATOM     41  C   UNL     1      32.589  57.389  44.110  1.00  0.00     0.012 C 
ATOM     42  C   UNL     1      30.697  59.578  46.528  1.00  0.00     0.015 C 
BRANCH  29  43
ATOM     43  O   UNL     1      25.725  57.820  44.762  1.00  0.00    -0.389 OA
ATOM     44  H   UNL     1      24.780  58.045  44.979  1.00  0.00     0.211 HD
ENDBRANCH  29  43
BRANCH  30  45
ATOM     45  C   UNL     1      26.563  60.473  44.941  1.00  0.00     0.234 C 
ATOM     46  O   UNL     1      26.727  59.975  46.043  1.00  0.00    -0.303 OA
ENDBRANCH  30  45
BRANCH  34  47
ATOM     47  O   UNL     1      29.263  61.756  43.088  1.00  0.00    -0.393 OA
ATOM     48  H   UNL     1      29.298  62.583  43.638  1.00  0.00     0.210 HD
ENDBRANCH  34  47
BRANCH  37  49
ATOM     49  O   UNL     1      30.334  56.881  45.667  1.00  0.00    -0.389 OA
ATOM     50  H   UNL     1      29.423  56.501  45.771  1.00  0.00     0.211 HD
ENDBRANCH  37  49
BRANCH  40  51
ATOM     51  C   UNL     1      33.434  58.514  46.226  1.00  0.00    -0.022 C 
ATOM     52  C   UNL     1      34.256  59.452  46.681  1.00  0.00     0.096 C 
ATOM     53  C   UNL     1      33.493  57.313  47.158  1.00  0.00     0.265 C 
ATOM     54  C   UNL     1      34.836  58.925  47.889  1.00  0.00     0.331 C 
ATOM     55  O   UNL     1      34.386  57.688  48.144  1.00  0.00    -0.458 OA
ATOM     56  O   UNL     1      35.632  59.515  48.602  1.00  0.00    -0.247 OA
ENDBRANCH  40  51
ENDBRANCH  24  25
ENDBRANCH   4  24
BRANCH   6  57
ATOM     57  O   UNL     1      20.416  62.099  39.363  1.00  0.00    -0.390 OA
ATOM     58  H   UNL     1      20.052  62.104  38.440  1.00  0.00     0.211 HD
ENDBRANCH   6  57
TORSDOF 15
ENDMDL
MODEL 5
REMARK VINA RESULT:   -12.043      2.651      3.945
REMARK INTER + INTRA:         -21.412
REMARK INTER:                 -19.505
REMARK INTRA:                  -1.907
REMARK UNBOUND:                -1.625
REMARK SMILES C[C@H]1O[C@@H](O[C@H]2CC[C@]3(C=O)[C@H]4[C@H](O)C[C@]5(C)[C@@H](C6=CC(=O)OC6)CC[C@]5(O)[C@@H]4CC[C@]3(O)C2)C[C@H](O)[C@@H]1O[C@@H]1O[C@H](CO)[C@@H](O)[C@H](O)[C@H]1O
REMARK SMILES IDX 1 1 2 2 3 3 4 4 35 5 36 6 38 7 39 8 40 9 41 10 49 11 42 12
REMARK SMILES IDX 47 13 45 14 50 15 43 17 44 18 48 20 46 22 5 24 6 25 7 26
REMARK SMILES IDX 34 27 8 28 32 29 9 30 31 31 12 32 30 33 13 34 29 35 15 36
REMARK SMILES IDX 27 37 16 38 26 39 18 40 25 41 17 42 33 43 10 45 11 46 14 47
REMARK SMILES IDX 28 49 19 51 20 52 24 53 21 54 23 55 22 56 37 57
REMARK H PARENT 50 16 44 19 48 21 46 23 33 44 14 48 28 50 37 58
ROOT
ATOM      1  C   UNL     1      20.298  61.081  38.955  1.00  0.00     0.041 C 
ATOM      2  C   UNL     1      21.588  61.865  38.730  1.00  0.00     0.150 C 
ATOM      3  O   UNL     1      22.653  61.253  39.428  1.00  0.00    -0.347 OA
ATOM      4  C   UNL     1      23.795  62.119  39.487  1.00  0.00     0.253 C 
ATOM      5  C   UNL     1      24.044  62.908  38.167  1.00  0.00     0.096 C 
ATOM      6  C   UNL     1      23.456  62.078  37.021  1.00  0.00     0.151 C 
ATOM      7  C   UNL     1      21.919  62.011  37.215  1.00  0.00     0.179 C 
ENDROOT
BRANCH   7   8
ATOM      8  O   UNL     1      21.343  63.241  36.801  1.00  0.00    -0.341 OA
BRANCH   8   9
ATOM      9  C   UNL     1      20.264  63.108  35.899  1.00  0.00     0.282 C 
ATOM     10  O   UNL     1      20.435  61.883  35.178  1.00  0.00    -0.341 OA
ATOM     11  C   UNL     1      20.339  64.340  34.973  1.00  0.00     0.202 C 
ATOM     12  C   UNL     1      19.859  61.829  33.865  1.00  0.00     0.178 C 
ATOM     13  C   UNL     1      19.296  64.313  33.830  1.00  0.00     0.179 C 
ATOM     14  C   UNL     1      18.752  62.884  33.631  1.00  0.00     0.177 C 
BRANCH  11  15
ATOM     15  O   UNL     1      20.272  65.549  35.687  1.00  0.00    -0.385 OA
ATOM     16  H   UNL     1      20.011  66.254  35.037  1.00  0.00     0.211 HD
ENDBRANCH  11  15
BRANCH  12  17
ATOM     17  C   UNL     1      20.960  61.874  32.787  1.00  0.00     0.191 C 
BRANCH  17  18
ATOM     18  O   UNL     1      22.202  61.535  33.343  1.00  0.00    -0.394 OA
ATOM     19  H   UNL     1      22.023  61.174  34.250  1.00  0.00     0.210 HD
ENDBRANCH  17  18
ENDBRANCH  12  17
BRANCH  13  20
ATOM     20  O   UNL     1      19.889  64.775  32.640  1.00  0.00    -0.387 OA
ATOM     21  H   UNL     1      19.215  65.338  32.177  1.00  0.00     0.211 HD
ENDBRANCH  13  20
BRANCH  14  22
ATOM     22  O   UNL     1      17.729  62.632  34.565  1.00  0.00    -0.387 OA
ATOM     23  H   UNL     1      17.071  63.370  34.484  1.00  0.00     0.211 HD
ENDBRANCH  14  22
ENDBRANCH   8   9
ENDBRANCH   7   8
BRANCH   4  24
ATOM     24  O   UNL     1      24.932  61.304  39.703  1.00  0.00    -0.349 OA
BRANCH  24  25
ATOM     25  C   UNL     1      25.079  60.897  41.056  1.00  0.00     0.124 C 
ATOM     26  C   UNL     1      24.715  59.395  41.192  1.00  0.00     0.033 C 
ATOM     27  C   UNL     1      26.547  61.207  41.446  1.00  0.00     0.068 C 
ATOM     28  C   UNL     1      25.961  58.549  41.015  1.00  0.00     0.020 C 
ATOM     29  C   UNL     1      27.075  60.340  42.611  1.00  0.00     0.080 C 
ATOM     30  C   UNL     1      26.992  58.764  42.196  1.00  0.00     0.060 C 
ATOM     31  C   UNL     1      26.277  60.600  43.901  1.00  0.00     0.037 C 
ATOM     32  C   UNL     1      26.612  57.860  43.492  1.00  0.00     0.040 C 
ATOM     33  C   UNL     1      26.912  59.844  45.081  1.00  0.00     0.010 C 
ATOM     34  C   UNL     1      26.850  56.322  43.279  1.00  0.00     0.119 C 
ATOM     35  C   UNL     1      27.407  58.405  44.719  1.00  0.00     0.028 C 
ATOM     36  C   UNL     1      26.746  55.523  44.579  1.00  0.00     0.042 C 
ATOM     37  C   UNL     1      27.478  57.505  46.010  1.00  0.00     0.074 C 
ATOM     38  C   UNL     1      27.745  56.006  45.690  1.00  0.00     0.006 C 
ATOM     39  C   UNL     1      26.196  57.392  46.884  1.00  0.00     0.037 C 
ATOM     40  C   UNL     1      27.355  55.252  47.022  1.00  0.00     0.028 C 
ATOM     41  C   UNL     1      26.587  56.290  47.866  1.00  0.00     0.012 C 
ATOM     42  C   UNL     1      29.196  55.729  45.201  1.00  0.00     0.015 C 
BRANCH  29  43
ATOM     43  O   UNL     1      28.406  60.727  42.892  1.00  0.00    -0.389 OA
ATOM     44  H   UNL     1      28.619  60.476  43.831  1.00  0.00     0.211 HD
ENDBRANCH  29  43
BRANCH  30  45
ATOM     45  C   UNL     1      28.314  58.272  41.573  1.00  0.00     0.234 C 
ATOM     46  O   UNL     1      29.065  58.986  40.928  1.00  0.00    -0.303 OA
ENDBRANCH  30  45
BRANCH  34  47
ATOM     47  O   UNL     1      25.961  55.774  42.341  1.00  0.00    -0.393 OA
ATOM     48  H   UNL     1      25.171  55.431  42.839  1.00  0.00     0.210 HD
ENDBRANCH  34  47
BRANCH  37  49
ATOM     49  O   UNL     1      28.535  57.986  46.819  1.00  0.00    -0.389 OA
ATOM     50  H   UNL     1      29.082  57.211  47.113  1.00  0.00     0.211 HD
ENDBRANCH  37  49
BRANCH  40  51
ATOM     51  C   UNL     1      28.470  54.583  47.823  1.00  0.00    -0.022 C 
ATOM     52  C   UNL     1      28.696  53.276  47.795  1.00  0.00     0.096 C 
ATOM     53  C   UNL     1      29.470  55.236  48.767  1.00  0.00     0.265 C 
ATOM     54  C   UNL     1      29.820  53.044  48.664  1.00  0.00     0.331 C 
ATOM     55  O   UNL     1      30.249  54.188  49.218  1.00  0.00    -0.458 OA
ATOM     56  O   UNL     1      30.332  51.957  48.877  1.00  0.00    -0.247 OA
ENDBRANCH  40  51
ENDBRANCH  24  25
ENDBRANCH   4  24
BRANCH   6  57
ATOM     57  O   UNL     1      23.799  62.569  35.750  1.00  0.00    -0.390 OA
ATOM     58  H   UNL     1      24.718  62.942  35.803  1.00  0.00     0.211 HD
ENDBRANCH   6  57
TORSDOF 15
ENDMDL
MODEL 6
REMARK VINA RESULT:   -11.881      2.404      3.452
REMARK INTER + INTRA:         -21.146
REMARK INTER:                 -19.626
REMARK INTRA:                  -1.520
REMARK UNBOUND:                -1.625
REMARK SMILES C[C@H]1O[C@@H](O[C@H]2CC[C@]3(C=O)[C@H]4[C@H](O)C[C@]5(C)[C@@H](C6=CC(=O)OC6)CC[C@]5(O)[C@@H]4CC[C@]3(O)C2)C[C@H](O)[C@@H]1O[C@@H]1O[C@H](CO)[C@@H](O)[C@H](O)[C@H]1O
REMARK SMILES IDX 1 1 2 2 3 3 4 4 35 5 36 6 38 7 39 8 40 9 41 10 49 11 42 12
REMARK SMILES IDX 47 13 45 14 50 15 43 17 44 18 48 20 46 22 5 24 6 25 7 26
REMARK SMILES IDX 34 27 8 28 32 29 9 30 31 31 12 32 30 33 13 34 29 35 15 36
REMARK SMILES IDX 27 37 16 38 26 39 18 40 25 41 17 42 33 43 10 45 11 46 14 47
REMARK SMILES IDX 28 49 19 51 20 52 24 53 21 54 23 55 22 56 37 57
REMARK H PARENT 50 16 44 19 48 21 46 23 33 44 14 48 28 50 37 58
ROOT
ATOM      1  C   UNL     1      20.573  60.521  39.065  1.00  0.00     0.041 C 
ATOM      2  C   UNL     1      22.065  60.664  38.780  1.00  0.00     0.150 C 
ATOM      3  O   UNL     1      22.808  59.863  39.677  1.00  0.00    -0.347 OA
ATOM      4  C   UNL     1      24.201  60.201  39.638  1.00  0.00     0.253 C 
ATOM      5  C   UNL     1      24.726  60.504  38.203  1.00  0.00     0.096 C 
ATOM      6  C   UNL     1      23.840  59.731  37.220  1.00  0.00     0.151 C 
ATOM      7  C   UNL     1      22.408  60.317  37.300  1.00  0.00     0.179 C 
ENDROOT
BRANCH   7   8
ATOM      8  O   UNL     1      22.364  61.543  36.586  1.00  0.00    -0.341 OA
BRANCH   8   9
ATOM      9  C   UNL     1      21.123  61.820  35.973  1.00  0.00     0.282 C 
ATOM     10  O   UNL     1      21.071  61.108  34.731  1.00  0.00    -0.341 OA
ATOM     11  C   UNL     1      21.090  63.348  35.766  1.00  0.00     0.202 C 
ATOM     12  C   UNL     1      20.245  61.675  33.704  1.00  0.00     0.178 C 
ATOM     13  C   UNL     1      19.842  63.837  34.990  1.00  0.00     0.179 C 
ATOM     14  C   UNL     1      19.181  62.662  34.240  1.00  0.00     0.177 C 
BRANCH  11  15
ATOM     15  O   UNL     1      21.240  64.054  36.971  1.00  0.00    -0.385 OA
ATOM     16  H   UNL     1      21.020  65.004  36.780  1.00  0.00     0.211 HD
ENDBRANCH  11  15
BRANCH  12  17
ATOM     17  C   UNL     1      21.111  62.284  32.585  1.00  0.00     0.191 C 
BRANCH  17  18
ATOM     18  O   UNL     1      22.197  61.445  32.296  1.00  0.00    -0.394 OA
ATOM     19  H   UNL     1      22.356  61.508  31.318  1.00  0.00     0.210 HD
ENDBRANCH  17  18
ENDBRANCH  12  17
BRANCH  13  20
ATOM     20  O   UNL     1      20.216  64.843  34.081  1.00  0.00    -0.387 OA
ATOM     21  H   UNL     1      20.966  64.483  33.539  1.00  0.00     0.211 HD
ENDBRANCH  13  20
BRANCH  14  22
ATOM     22  O   UNL     1      18.349  61.945  35.120  1.00  0.00    -0.387 OA
ATOM     23  H   UNL     1      17.582  62.535  35.343  1.00  0.00     0.211 HD
ENDBRANCH  14  22
ENDBRANCH   8   9
ENDBRANCH   7   8
BRANCH   4  24
ATOM     24  O   UNL     1      24.921  59.080  40.114  1.00  0.00    -0.349 OA
BRANCH  24  25
ATOM     25  C   UNL     1      25.875  59.411  41.114  1.00  0.00     0.124 C 
ATOM     26  C   UNL     1      25.181  59.471  42.500  1.00  0.00     0.033 C 
ATOM     27  C   UNL     1      26.984  58.331  41.032  1.00  0.00     0.068 C 
ATOM     28  C   UNL     1      25.257  58.111  43.168  1.00  0.00     0.020 C 
ATOM     29  C   UNL     1      27.771  58.151  42.349  1.00  0.00     0.080 C 
ATOM     30  C   UNL     1      26.744  57.720  43.541  1.00  0.00     0.060 C 
ATOM     31  C   UNL     1      28.524  59.439  42.725  1.00  0.00     0.037 C 
ATOM     32  C   UNL     1      27.202  58.391  44.949  1.00  0.00     0.040 C 
ATOM     33  C   UNL     1      29.419  59.193  43.953  1.00  0.00     0.010 C 
ATOM     34  C   UNL     1      26.495  57.766  46.204  1.00  0.00     0.119 C 
ATOM     35  C   UNL     1      28.756  58.299  45.052  1.00  0.00     0.028 C 
ATOM     36  C   UNL     1      27.127  58.216  47.522  1.00  0.00     0.042 C 
ATOM     37  C   UNL     1      29.419  58.568  46.455  1.00  0.00     0.074 C 
ATOM     38  C   UNL     1      28.658  57.881  47.627  1.00  0.00     0.006 C 
ATOM     39  C   UNL     1      29.467  60.038  46.962  1.00  0.00     0.037 C 
ATOM     40  C   UNL     1      29.203  58.609  48.919  1.00  0.00     0.028 C 
ATOM     41  C   UNL     1      29.949  59.855  48.400  1.00  0.00     0.012 C 
ATOM     42  C   UNL     1      28.823  56.335  47.646  1.00  0.00     0.015 C 
BRANCH  29  43
ATOM     43  O   UNL     1      28.764  57.164  42.147  1.00  0.00    -0.389 OA
ATOM     44  H   UNL     1      29.052  57.192  41.195  1.00  0.00     0.211 HD
ENDBRANCH  29  43
BRANCH  30  45
ATOM     45  C   UNL     1      26.655  56.187  43.686  1.00  0.00     0.234 C 
ATOM     46  O   UNL     1      26.281  55.443  42.794  1.00  0.00    -0.303 OA
ENDBRANCH  30  45
BRANCH  34  47
ATOM     47  O   UNL     1      25.123  58.058  46.240  1.00  0.00    -0.393 OA
ATOM     48  H   UNL     1      25.013  58.936  46.695  1.00  0.00     0.210 HD
ENDBRANCH  34  47
BRANCH  37  49
ATOM     49  O   UNL     1      30.739  58.059  46.419  1.00  0.00    -0.389 OA
ATOM     50  H   UNL     1      31.101  58.194  45.505  1.00  0.00     0.211 HD
ENDBRANCH  37  49
BRANCH  40  51
ATOM     51  C   UNL     1      30.058  57.800  49.892  1.00  0.00    -0.022 C 
ATOM     52  C   UNL     1      29.603  57.356  51.056  1.00  0.00     0.096 C 
ATOM     53  C   UNL     1      31.515  57.385  49.740  1.00  0.00     0.265 C 
ATOM     54  C   UNL     1      30.695  56.642  51.668  1.00  0.00     0.331 C 
ATOM     55  O   UNL     1      31.790  56.675  50.894  1.00  0.00    -0.458 OA
ATOM     56  O   UNL     1      30.646  56.074  52.747  1.00  0.00    -0.247 OA
ENDBRANCH  40  51
ENDBRANCH  24  25
ENDBRANCH   4  24
BRANCH   6  57
ATOM     57  O   UNL     1      24.334  59.742  35.905  1.00  0.00    -0.390 OA
ATOM     58  H   UNL     1      25.229  60.172  35.917  1.00  0.00     0.211 HD
ENDBRANCH   6  57
TORSDOF 15
ENDMDL
MODEL 7
REMARK VINA RESULT:   -11.749      1.255      2.237
REMARK INTER + INTRA:         -20.929
REMARK INTER:                 -19.377
REMARK INTRA:                  -1.552
REMARK UNBOUND:                -1.625
REMARK SMILES C[C@H]1O[C@@H](O[C@H]2CC[C@]3(C=O)[C@H]4[C@H](O)C[C@]5(C)[C@@H](C6=CC(=O)OC6)CC[C@]5(O)[C@@H]4CC[C@]3(O)C2)C[C@H](O)[C@@H]1O[C@@H]1O[C@H](CO)[C@@H](O)[C@H](O)[C@H]1O
REMARK SMILES IDX 1 1 2 2 3 3 4 4 35 5 36 6 38 7 39 8 40 9 41 10 49 11 42 12
REMARK SMILES IDX 47 13 45 14 50 15 43 17 44 18 48 20 46 22 5 24 6 25 7 26
REMARK SMILES IDX 34 27 8 28 32 29 9 30 31 31 12 32 30 33 13 34 29 35 15 36
REMARK SMILES IDX 27 37 16 38 26 39 18 40 25 41 17 42 33 43 10 45 11 46 14 47
REMARK SMILES IDX 28 49 19 51 20 52 24 53 21 54 23 55 22 56 37 57
REMARK H PARENT 50 16 44 19 48 21 46 23 33 44 14 48 28 50 37 58
ROOT
ATOM      1  C   UNL     1      20.307  60.766  39.187  1.00  0.00     0.041 C 
ATOM      2  C   UNL     1      21.811  60.779  38.928  1.00  0.00     0.150 C 
ATOM      3  O   UNL     1      22.471  59.950  39.864  1.00  0.00    -0.347 OA
ATOM      4  C   UNL     1      23.887  60.175  39.843  1.00  0.00     0.253 C 
ATOM      5  C   UNL     1      24.460  60.387  38.410  1.00  0.00     0.096 C 
ATOM      6  C   UNL     1      23.532  59.657  37.434  1.00  0.00     0.151 C 
ATOM      7  C   UNL     1      22.150  60.358  37.467  1.00  0.00     0.179 C 
ENDROOT
BRANCH   7   8
ATOM      8  O   UNL     1      22.219  61.560  36.715  1.00  0.00    -0.341 OA
BRANCH   8   9
ATOM      9  C   UNL     1      21.030  61.890  36.029  1.00  0.00     0.282 C 
ATOM     10  O   UNL     1      21.021  61.180  34.785  1.00  0.00    -0.341 OA
ATOM     11  C   UNL     1      21.076  63.419  35.822  1.00  0.00     0.202 C 
ATOM     12  C   UNL     1      20.283  61.782  33.712  1.00  0.00     0.178 C 
ATOM     13  C   UNL     1      19.899  63.960  34.974  1.00  0.00     0.179 C 
ATOM     14  C   UNL     1      19.233  62.815  34.184  1.00  0.00     0.177 C 
BRANCH  11  15
ATOM     15  O   UNL     1      21.185  64.118  37.036  1.00  0.00    -0.385 OA
ATOM     16  H   UNL     1      21.995  64.690  36.968  1.00  0.00     0.211 HD
ENDBRANCH  11  15
BRANCH  12  17
ATOM     17  C   UNL     1      21.241  62.351  32.647  1.00  0.00     0.191 C 
BRANCH  17  18
ATOM     18  O   UNL     1      22.158  61.371  32.240  1.00  0.00    -0.394 OA
ATOM     19  H   UNL     1      21.741  60.883  31.483  1.00  0.00     0.210 HD
ENDBRANCH  17  18
ENDBRANCH  12  17
BRANCH  13  20
ATOM     20  O   UNL     1      20.371  64.948  34.091  1.00  0.00    -0.387 OA
ATOM     21  H   UNL     1      19.582  65.306  33.605  1.00  0.00     0.211 HD
ENDBRANCH  13  20
BRANCH  14  22
ATOM     22  O   UNL     1      18.320  62.136  35.013  1.00  0.00    -0.387 OA
ATOM     23  H   UNL     1      17.859  62.821  35.563  1.00  0.00     0.211 HD
ENDBRANCH  14  22
ENDBRANCH   8   9
ENDBRANCH   7   8
BRANCH   4  24
ATOM     24  O   UNL     1      24.506  59.015  40.368  1.00  0.00    -0.349 OA
BRANCH  24  25
ATOM     25  C   UNL     1      25.844  59.238  40.789  1.00  0.00     0.124 C 
ATOM     26  C   UNL     1      25.875  59.501  42.317  1.00  0.00     0.033 C 
ATOM     27  C   UNL     1      26.647  57.979  40.371  1.00  0.00     0.068 C 
ATOM     28  C   UNL     1      26.075  58.193  43.058  1.00  0.00     0.020 C 
ATOM     29  C   UNL     1      27.919  57.746  41.216  1.00  0.00     0.080 C 
ATOM     30  C   UNL     1      27.505  57.574  42.784  1.00  0.00     0.060 C 
ATOM     31  C   UNL     1      28.917  58.906  41.045  1.00  0.00     0.037 C 
ATOM     32  C   UNL     1      28.637  58.241  43.741  1.00  0.00     0.040 C 
ATOM     33  C   UNL     1      30.235  58.584  41.771  1.00  0.00     0.010 C 
ATOM     34  C   UNL     1      28.510  57.825  45.251  1.00  0.00     0.119 C 
ATOM     35  C   UNL     1      30.041  57.888  43.159  1.00  0.00     0.028 C 
ATOM     36  C   UNL     1      29.726  58.240  46.081  1.00  0.00     0.042 C 
ATOM     37  C   UNL     1      31.300  58.124  44.075  1.00  0.00     0.074 C 
ATOM     38  C   UNL     1      31.079  57.653  45.542  1.00  0.00     0.006 C 
ATOM     39  C   UNL     1      31.760  59.592  44.307  1.00  0.00     0.037 C 
ATOM     40  C   UNL     1      32.242  58.353  46.350  1.00  0.00     0.028 C 
ATOM     41  C   UNL     1      32.818  59.417  45.394  1.00  0.00     0.012 C 
ATOM     42  C   UNL     1      31.039  56.105  45.692  1.00  0.00     0.015 C 
BRANCH  29  43
ATOM     43  O   UNL     1      28.576  56.592  40.729  1.00  0.00    -0.389 OA
ATOM     44  H   UNL     1      29.483  56.547  41.136  1.00  0.00     0.211 HD
ENDBRANCH  29  43
BRANCH  30  45
ATOM     45  C   UNL     1      27.300  56.091  43.157  1.00  0.00     0.234 C 
ATOM     46  O   UNL     1      26.368  55.415  42.752  1.00  0.00    -0.303 OA
ENDBRANCH  30  45
BRANCH  34  47
ATOM     47  O   UNL     1      27.356  58.353  45.850  1.00  0.00    -0.393 OA
ATOM     48  H   UNL     1      26.752  58.662  45.122  1.00  0.00     0.210 HD
ENDBRANCH  34  47
BRANCH  37  49
ATOM     49  O   UNL     1      32.381  57.393  43.528  1.00  0.00    -0.389 OA
ATOM     50  H   UNL     1      33.012  58.035  43.109  1.00  0.00     0.211 HD
ENDBRANCH  37  49
BRANCH  40  51
ATOM     51  C   UNL     1      33.337  57.470  46.943  1.00  0.00    -0.022 C 
ATOM     52  C   UNL     1      33.355  57.098  48.217  1.00  0.00     0.096 C 
ATOM     53  C   UNL     1      34.560  56.893  46.244  1.00  0.00     0.265 C 
ATOM     54  C   UNL     1      34.528  56.277  48.379  1.00  0.00     0.331 C 
ATOM     55  O   UNL     1      35.211  56.176  47.229  1.00  0.00    -0.458 OA
ATOM     56  O   UNL     1      34.868  55.735  49.418  1.00  0.00    -0.247 OA
ENDBRANCH  40  51
ENDBRANCH  24  25
ENDBRANCH   4  24
BRANCH   6  57
ATOM     57  O   UNL     1      24.049  59.586  36.129  1.00  0.00    -0.390 OA
ATOM     58  H   UNL     1      23.303  59.747  35.494  1.00  0.00     0.211 HD
ENDBRANCH   6  57
TORSDOF 15
ENDMDL
MODEL 8
REMARK VINA RESULT:   -11.698      2.670     14.153
REMARK INTER + INTRA:         -20.845
REMARK INTER:                 -19.794
REMARK INTRA:                  -1.051
REMARK UNBOUND:                -1.625
REMARK SMILES C[C@H]1O[C@@H](O[C@H]2CC[C@]3(C=O)[C@H]4[C@H](O)C[C@]5(C)[C@@H](C6=CC(=O)OC6)CC[C@]5(O)[C@@H]4CC[C@]3(O)C2)C[C@H](O)[C@@H]1O[C@@H]1O[C@H](CO)[C@@H](O)[C@H](O)[C@H]1O
REMARK SMILES IDX 1 1 2 2 3 3 4 4 35 5 36 6 38 7 39 8 40 9 41 10 49 11 42 12
REMARK SMILES IDX 47 13 45 14 50 15 43 17 44 18 48 20 46 22 5 24 6 25 7 26
REMARK SMILES IDX 34 27 8 28 32 29 9 30 31 31 12 32 30 33 13 34 29 35 15 36
REMARK SMILES IDX 27 37 16 38 26 39 18 40 25 41 17 42 33 43 10 45 11 46 14 47
REMARK SMILES IDX 28 49 19 51 20 52 24 53 21 54 23 55 22 56 37 57
REMARK H PARENT 50 16 44 19 48 21 46 23 33 44 14 48 28 50 37 58
ROOT
ATOM      1  C   UNL     1      28.311  56.917  41.135  1.00  0.00     0.041 C 
ATOM      2  C   UNL     1      27.633  58.284  41.162  1.00  0.00     0.150 C 
ATOM      3  O   UNL     1      26.504  58.281  40.313  1.00  0.00    -0.347 OA
ATOM      4  C   UNL     1      26.029  59.615  40.082  1.00  0.00     0.253 C 
ATOM      5  C   UNL     1      26.081  60.519  41.350  1.00  0.00     0.096 C 
ATOM      6  C   UNL     1      25.978  59.601  42.571  1.00  0.00     0.151 C 
ATOM      7  C   UNL     1      27.245  58.709  42.611  1.00  0.00     0.179 C 
ENDROOT
BRANCH   7   8
ATOM      8  O   UNL     1      28.337  59.471  43.105  1.00  0.00    -0.341 OA
BRANCH   8   9
ATOM      9  C   UNL     1      28.874  59.001  44.323  1.00  0.00     0.282 C 
ATOM     10  O   UNL     1      27.787  58.593  45.162  1.00  0.00    -0.341 OA
ATOM     11  C   UNL     1      29.654  60.190  44.923  1.00  0.00     0.202 C 
ATOM     12  C   UNL     1      28.012  58.663  46.578  1.00  0.00     0.178 C 
ATOM     13  C   UNL     1      30.224  59.903  46.333  1.00  0.00     0.179 C 
ATOM     14  C   UNL     1      29.509  58.691  46.966  1.00  0.00     0.177 C 
BRANCH  11  15
ATOM     15  O   UNL     1      30.659  60.659  44.061  1.00  0.00    -0.385 OA
ATOM     16  H   UNL     1      31.516  60.265  44.374  1.00  0.00     0.211 HD
ENDBRANCH  11  15
BRANCH  12  17
ATOM     17  C   UNL     1      27.215  59.828  47.196  1.00  0.00     0.191 C 
BRANCH  17  18
ATOM     18  O   UNL     1      25.938  59.395  47.584  1.00  0.00    -0.394 OA
ATOM     19  H   UNL     1      25.326  60.168  47.473  1.00  0.00     0.210 HD
ENDBRANCH  17  18
ENDBRANCH  12  17
BRANCH  13  20
ATOM     20  O   UNL     1      30.064  61.039  47.147  1.00  0.00    -0.387 OA
ATOM     21  H   UNL     1      30.870  61.103  47.722  1.00  0.00     0.211 HD
ENDBRANCH  13  20
BRANCH  14  22
ATOM     22  O   UNL     1      30.088  57.498  46.493  1.00  0.00    -0.387 OA
ATOM     23  H   UNL     1      30.511  57.705  45.620  1.00  0.00     0.211 HD
ENDBRANCH  14  22
ENDBRANCH   8   9
ENDBRANCH   7   8
BRANCH   4  24
ATOM     24  O   UNL     1      24.669  59.518  39.699  1.00  0.00    -0.349 OA
BRANCH  24  25
ATOM     25  C   UNL     1      24.278  60.517  38.769  1.00  0.00     0.124 C 
ATOM     26  C   UNL     1      23.735  59.847  37.479  1.00  0.00     0.033 C 
ATOM     27  C   UNL     1      23.223  61.395  39.490  1.00  0.00     0.068 C 
ATOM     28  C   UNL     1      22.235  59.657  37.595  1.00  0.00     0.020 C 
ATOM     29  C   UNL     1      22.266  62.131  38.527  1.00  0.00     0.080 C 
ATOM     30  C   UNL     1      21.466  61.039  37.617  1.00  0.00     0.060 C 
ATOM     31  C   UNL     1      23.034  63.120  37.631  1.00  0.00     0.037 C 
ATOM     32  C   UNL     1      21.235  61.618  36.116  1.00  0.00     0.040 C 
ATOM     33  C   UNL     1      22.049  63.949  36.789  1.00  0.00     0.010 C 
ATOM     34  C   UNL     1      20.184  60.802  35.281  1.00  0.00     0.119 C 
ATOM     35  C   UNL     1      20.844  63.124  36.227  1.00  0.00     0.028 C 
ATOM     36  C   UNL     1      19.783  61.509  33.985  1.00  0.00     0.042 C 
ATOM     37  C   UNL     1      20.242  63.826  34.951  1.00  0.00     0.074 C 
ATOM     38  C   UNL     1      19.192  62.945  34.214  1.00  0.00     0.006 C 
ATOM     39  C   UNL     1      21.215  64.158  33.783  1.00  0.00     0.037 C 
ATOM     40  C   UNL     1      19.053  63.620  32.793  1.00  0.00     0.028 C 
ATOM     41  C   UNL     1      20.244  64.594  32.687  1.00  0.00     0.012 C 
ATOM     42  C   UNL     1      17.851  62.807  34.990  1.00  0.00     0.015 C 
BRANCH  29  43
ATOM     43  O   UNL     1      21.372  62.914  39.294  1.00  0.00    -0.389 OA
ATOM     44  H   UNL     1      21.670  62.901  40.243  1.00  0.00     0.211 HD
ENDBRANCH  29  43
BRANCH  30  45
ATOM     45  C   UNL     1      20.114  60.654  38.253  1.00  0.00     0.234 C 
ATOM     46  O   UNL     1      19.965  60.434  39.444  1.00  0.00    -0.303 OA
ENDBRANCH  30  45
BRANCH  34  47
ATOM     47  O   UNL     1      20.642  59.513  34.968  1.00  0.00    -0.393 OA
ATOM     48  H   UNL     1      21.173  59.185  35.742  1.00  0.00     0.210 HD
ENDBRANCH  34  47
BRANCH  37  49
ATOM     49  O   UNL     1      19.611  65.022  35.368  1.00  0.00    -0.389 OA
ATOM     50  H   UNL     1      18.916  64.792  36.038  1.00  0.00     0.211 HD
ENDBRANCH  37  49
BRANCH  40  51
ATOM     51  C   UNL     1      17.731  64.301  32.447  1.00  0.00    -0.022 C 
ATOM     52  C   UNL     1      17.057  65.053  33.309  1.00  0.00     0.096 C 
ATOM     53  C   UNL     1      16.960  64.244  31.135  1.00  0.00     0.265 C 
ATOM     54  C   UNL     1      15.886  65.513  32.610  1.00  0.00     0.331 C 
ATOM     55  O   UNL     1      15.847  65.031  31.359  1.00  0.00    -0.458 OA
ATOM     56  O   UNL     1      15.031  66.249  33.078  1.00  0.00    -0.247 OA
ENDBRANCH  40  51
ENDBRANCH  24  25
ENDBRANCH   4  24
BRANCH   6  57
ATOM     57  O   UNL     1      25.798  60.302  43.776  1.00  0.00    -0.390 OA
ATOM     58  H   UNL     1      26.679  60.664  44.055  1.00  0.00     0.211 HD
ENDBRANCH   6  57
TORSDOF 15
ENDMDL
MODEL 9
REMARK VINA RESULT:   -11.681      2.539      3.721
REMARK INTER + INTRA:         -20.818
REMARK INTER:                 -20.759
REMARK INTRA:                  -0.059
REMARK UNBOUND:                -1.625
REMARK SMILES C[C@H]1O[C@@H](O[C@H]2CC[C@]3(C=O)[C@H]4[C@H](O)C[C@]5(C)[C@@H](C6=CC(=O)OC6)CC[C@]5(O)[C@@H]4CC[C@]3(O)C2)C[C@H](O)[C@@H]1O[C@@H]1O[C@H](CO)[C@@H](O)[C@H](O)[C@H]1O
REMARK SMILES IDX 1 1 2 2 3 3 4 4 35 5 36 6 38 7 39 8 40 9 41 10 49 11 42 12
REMARK SMILES IDX 47 13 45 14 50 15 43 17 44 18 48 20 46 22 5 24 6 25 7 26
REMARK SMILES IDX 34 27 8 28 32 29 9 30 31 31 12 32 30 33 13 34 29 35 15 36
REMARK SMILES IDX 27 37 16 38 26 39 18 40 25 41 17 42 33 43 10 45 11 46 14 47
REMARK SMILES IDX 28 49 19 51 20 52 24 53 21 54 23 55 22 56 37 57
REMARK H PARENT 50 16 44 19 48 21 46 23 33 44 14 48 28 50 37 58
ROOT
ATOM      1  C   UNL     1      20.907  60.708  38.972  1.00  0.00     0.041 C 
ATOM      2  C   UNL     1      22.240  61.260  38.474  1.00  0.00     0.150 C 
ATOM      3  O   UNL     1      23.064  61.599  39.571  1.00  0.00    -0.347 OA
ATOM      4  C   UNL     1      24.183  62.390  39.149  1.00  0.00     0.253 C 
ATOM      5  C   UNL     1      24.796  61.925  37.795  1.00  0.00     0.096 C 
ATOM      6  C   UNL     1      24.495  60.430  37.646  1.00  0.00     0.151 C 
ATOM      7  C   UNL     1      22.959  60.260  37.519  1.00  0.00     0.179 C 
ENDROOT
BRANCH   7   8
ATOM      8  O   UNL     1      22.558  60.611  36.203  1.00  0.00    -0.341 OA
BRANCH   8   9
ATOM      9  C   UNL     1      21.568  61.616  36.142  1.00  0.00     0.282 C 
ATOM     10  O   UNL     1      20.308  60.985  35.884  1.00  0.00    -0.341 OA
ATOM     11  C   UNL     1      21.992  62.553  34.992  1.00  0.00     0.202 C 
ATOM     12  C   UNL     1      19.324  61.778  35.204  1.00  0.00     0.178 C 
ATOM     13  C   UNL     1      20.957  63.664  34.692  1.00  0.00     0.179 C 
ATOM     14  C   UNL     1      19.585  63.300  35.295  1.00  0.00     0.177 C 
BRANCH  11  15
ATOM     15  O   UNL     1      23.271  63.099  35.193  1.00  0.00    -0.385 OA
ATOM     16  H   UNL     1      23.174  64.087  35.153  1.00  0.00     0.211 HD
ENDBRANCH  11  15
BRANCH  12  17
ATOM     17  C   UNL     1      19.142  61.291  33.754  1.00  0.00     0.191 C 
BRANCH  17  18
ATOM     18  O   UNL     1      19.192  59.891  33.698  1.00  0.00    -0.394 OA
ATOM     19  H   UNL     1      18.739  59.554  34.515  1.00  0.00     0.210 HD
ENDBRANCH  17  18
ENDBRANCH  12  17
BRANCH  13  20
ATOM     20  O   UNL     1      20.843  63.838  33.300  1.00  0.00    -0.387 OA
ATOM     21  H   UNL     1      21.372  63.116  32.871  1.00  0.00     0.211 HD
ENDBRANCH  13  20
BRANCH  14  22
ATOM     22  O   UNL     1      19.559  63.650  36.659  1.00  0.00    -0.387 OA
ATOM     23  H   UNL     1      19.375  64.624  36.707  1.00  0.00     0.211 HD
ENDBRANCH  14  22
ENDBRANCH   8   9
ENDBRANCH   7   8
BRANCH   4  24
ATOM     24  O   UNL     1      25.193  62.248  40.131  1.00  0.00    -0.349 OA
BRANCH  24  25
ATOM     25  C   UNL     1      25.518  60.893  40.408  1.00  0.00     0.124 C 
ATOM     26  C   UNL     1      27.001  60.790  40.849  1.00  0.00     0.033 C 
ATOM     27  C   UNL     1      24.523  60.421  41.499  1.00  0.00     0.068 C 
ATOM     28  C   UNL     1      27.095  60.908  42.358  1.00  0.00     0.020 C 
ATOM     29  C   UNL     1      25.045  59.238  42.344  1.00  0.00     0.080 C 
ATOM     30  C   UNL     1      26.430  59.671  43.088  1.00  0.00     0.060 C 
ATOM     31  C   UNL     1      25.269  57.991  41.471  1.00  0.00     0.037 C 
ATOM     32  C   UNL     1      27.448  58.406  43.164  1.00  0.00     0.040 C 
ATOM     33  C   UNL     1      25.642  56.785  42.352  1.00  0.00     0.010 C 
ATOM     34  C   UNL     1      28.646  58.621  44.157  1.00  0.00     0.119 C 
ATOM     35  C   UNL     1      26.620  57.133  43.522  1.00  0.00     0.028 C 
ATOM     36  C   UNL     1      29.433  57.335  44.418  1.00  0.00     0.042 C 
ATOM     37  C   UNL     1      27.405  55.848  43.985  1.00  0.00     0.074 C 
ATOM     38  C   UNL     1      28.552  56.168  44.988  1.00  0.00     0.006 C 
ATOM     39  C   UNL     1      28.181  55.046  42.901  1.00  0.00     0.037 C 
ATOM     40  C   UNL     1      29.446  54.865  44.977  1.00  0.00     0.028 C 
ATOM     41  C   UNL     1      28.969  54.055  43.755  1.00  0.00     0.012 C 
ATOM     42  C   UNL     1      28.040  56.581  46.397  1.00  0.00     0.015 C 
BRANCH  29  43
ATOM     43  O   UNL     1      24.048  58.882  43.283  1.00  0.00    -0.389 OA
ATOM     44  H   UNL     1      24.295  59.262  44.168  1.00  0.00     0.211 HD
ENDBRANCH  29  43
BRANCH  30  45
ATOM     45  C   UNL     1      26.165  60.227  44.502  1.00  0.00     0.234 C 
ATOM     46  O   UNL     1      25.692  59.565  45.411  1.00  0.00    -0.303 OA
ENDBRANCH  30  45
BRANCH  34  47
ATOM     47  O   UNL     1      29.535  59.609  43.708  1.00  0.00    -0.393 OA
ATOM     48  H   UNL     1      29.090  60.102  42.968  1.00  0.00     0.210 HD
ENDBRANCH  34  47
BRANCH  37  49
ATOM     49  O   UNL     1      26.485  54.980  44.618  1.00  0.00    -0.389 OA
ATOM     50  H   UNL     1      26.181  55.406  45.462  1.00  0.00     0.211 HD
ENDBRANCH  37  49
BRANCH  40  51
ATOM     51  C   UNL     1      29.487  54.012  46.243  1.00  0.00    -0.022 C 
ATOM     52  C   UNL     1      30.462  54.096  47.139  1.00  0.00     0.096 C 
ATOM     53  C   UNL     1      28.494  52.951  46.693  1.00  0.00     0.265 C 
ATOM     54  C   UNL     1      30.138  53.149  48.175  1.00  0.00     0.331 C 
ATOM     55  O   UNL     1      29.000  52.495  47.895  1.00  0.00    -0.458 OA
ATOM     56  O   UNL     1      30.799  52.955  49.183  1.00  0.00    -0.247 OA
ENDBRANCH  40  51
ENDBRANCH  24  25
ENDBRANCH   4  24
BRANCH   6  57
ATOM     57  O   UNL     1      25.175  59.834  36.571  1.00  0.00    -0.390 OA
ATOM     58  H   UNL     1      25.999  60.360  36.399  1.00  0.00     0.211 HD
ENDBRANCH   6  57
TORSDOF 15
ENDMDL
