MODEL 1
REMARK VINA RESULT:   -14.099      0.000      0.000
REMARK INTER + INTRA:         -20.863
REMARK INTER:                 -19.457
REMARK INTRA:                  -1.406
REMARK UNBOUND:                -1.406
REMARK SMILES C[C@@H]1O[C@H](O[C@@]2(C)CC(=O)[C@]3(O)C4=C(C=C[C@]3(O)C2)C(=O)c2c(ccc([C@@H]3C[C@H]5O[C@H]6CC(=O)[C@@H](C)O[C@H]6O[C@@H]5[C@@H](C)O3)c2O)C4=O)CC[C@H]1O[C@@H]1CCC(=O)[C@@H](C)O1
REMARK SMILES IDX 50 1 49 2 48 3 4 4 3 5 2 6 1 7 51 8 52 9 57 10 59 11 55 12
REMARK SMILES IDX 54 13 56 14 53 15 58 16 5 17 6 18 8 19 19 20 9 21 17 22
REMARK SMILES IDX 10 23 11 24 16 25 13 26 15 27 14 28 46 29 20 30 23 31 47 32
REMARK SMILES IDX 21 33 22 34 24 35 44 36 25 37 26 38 7 39 18 40 12 42 45 44
REMARK SMILES IDX 27 46 28 47 43 48 29 49 41 50 30 51 40 52 31 53 39 54 32 55
REMARK SMILES IDX 38 56 33 57 37 58 34 59 35 60 42 61 36 62
REMARK H PARENT 18 41 12 43 45 45
ROOT
ATOM      1  C   UNL     1      29.628  58.396  51.282  1.00  0.00     0.150 C 
ATOM      2  C   UNL     1      28.937  59.340  50.299  1.00  0.00     0.040 C 
ATOM      3  C   UNL     1      29.717  59.315  48.986  1.00  0.00     0.065 C 
ATOM      4  C   UNL     1      29.842  57.867  48.472  1.00  0.00     0.251 C 
ATOM      5  O   UNL     1      30.446  57.032  49.450  1.00  0.00    -0.347 OA
ATOM      6  C   UNL     1      29.679  56.990  50.645  1.00  0.00     0.147 C 
ATOM      7  C   UNL     1      30.327  55.982  51.594  1.00  0.00     0.041 C 
ENDROOT
BRANCH   1   8
ATOM      8  O   UNL     1      28.916  58.363  52.513  1.00  0.00    -0.347 OA
BRANCH   8   9
ATOM      9  C   UNL     1      29.254  59.460  53.351  1.00  0.00     0.251 C 
ATOM     10  C   UNL     1      28.904  59.642  55.727  1.00  0.00     0.185 C 
ATOM     11  O   UNL     1      28.313  59.536  54.434  1.00  0.00    -0.342 OA
ATOM     12  C   UNL     1      30.031  60.661  55.722  1.00  0.00     0.161 C 
ATOM     13  C   UNL     1      31.088  60.521  54.667  1.00  0.00     0.084 C 
ATOM     14  O   UNL     1      30.059  61.604  56.500  1.00  0.00    -0.297 OA
ATOM     15  C   UNL     1      30.736  59.326  53.777  1.00  0.00     0.070 C 
ATOM     16  C   UNL     1      27.821  59.989  56.750  1.00  0.00     0.047 C 
ENDBRANCH   8   9
ENDBRANCH   1   8
BRANCH   4  17
ATOM     17  O   UNL     1      30.706  57.890  47.347  1.00  0.00    -0.346 OA
BRANCH  17  18
ATOM     18  C   UNL     1      30.103  57.647  46.079  1.00  0.00     0.079 C 
ATOM     19  C   UNL     1      29.814  58.977  45.302  1.00  0.00     0.114 C 
ATOM     20  C   UNL     1      30.997  56.656  45.246  1.00  0.00     0.079 C 
ATOM     21  C   UNL     1      30.620  59.005  44.036  1.00  0.00     0.175 C 
ATOM     22  C   UNL     1      30.587  56.464  43.749  1.00  0.00     0.126 C 
ATOM     23  O   UNL     1      31.470  59.867  43.867  1.00  0.00    -0.296 OA
ATOM     24  C   UNL     1      30.386  57.881  43.017  1.00  0.00     0.185 C 
ATOM     25  C   UNL     1      29.388  55.549  43.686  1.00  0.00     0.012 C 
ATOM     26  C   UNL     1      28.981  58.102  42.405  1.00  0.00     0.054 C 
ATOM     27  C   UNL     1      28.238  55.861  43.107  1.00  0.00     0.011 C 
ATOM     28  C   UNL     1      28.006  57.162  42.460  1.00  0.00     0.033 C 
ATOM     29  C   UNL     1      28.682  59.406  41.723  1.00  0.00     0.194 C 
ATOM     30  C   UNL     1      26.658  57.405  41.861  1.00  0.00     0.198 C 
ATOM     31  C   UNL     1      27.372  59.648  41.078  1.00  0.00     0.037 A 
ATOM     32  O   UNL     1      29.527  60.288  41.686  1.00  0.00    -0.289 OA
ATOM     33  O   UNL     1      25.803  56.536  41.946  1.00  0.00    -0.288 OA
ATOM     34  C   UNL     1      26.360  58.673  41.141  1.00  0.00     0.076 A 
ATOM     35  C   UNL     1      27.146  60.841  40.385  1.00  0.00     0.013 A 
ATOM     36  C   UNL     1      25.110  58.905  40.504  1.00  0.00     0.133 A 
ATOM     37  C   UNL     1      25.941  61.063  39.742  1.00  0.00     0.011 A 
ATOM     38  C   UNL     1      24.906  60.115  39.785  1.00  0.00     0.023 A 
ATOM     39  C   UNL     1      28.747  57.001  46.431  1.00  0.00     0.043 C 
BRANCH  22  40
ATOM     40  O   UNL     1      31.639  55.776  43.099  1.00  0.00    -0.382 OA
ATOM     41  H   UNL     1      32.110  56.404  42.490  1.00  0.00     0.212 HD
ENDBRANCH  22  40
BRANCH  24  42
ATOM     42  O   UNL     1      31.335  57.955  41.966  1.00  0.00    -0.374 OA
ATOM     43  H   UNL     1      32.255  57.853  42.315  1.00  0.00     0.212 HD
ENDBRANCH  24  42
BRANCH  36  44
ATOM     44  O   UNL     1      24.162  57.942  40.567  1.00  0.00    -0.507 OA
ATOM     45  H   UNL     1      23.304  58.018  41.000  1.00  0.00     0.293 HD
ENDBRANCH  36  44
BRANCH  38  46
ATOM     46  C   UNL     1      23.654  60.443  38.996  1.00  0.00     0.155 C 
ATOM     47  C   UNL     1      24.094  61.238  37.739  1.00  0.00     0.072 C 
ATOM     48  O   UNL     1      22.750  61.175  39.808  1.00  0.00    -0.368 OA
ATOM     49  C   UNL     1      22.992  62.165  37.226  1.00  0.00     0.153 C 
ATOM     50  C   UNL     1      21.536  61.530  39.133  1.00  0.00     0.147 C 
ATOM     51  O   UNL     1      23.172  62.381  35.839  1.00  0.00    -0.366 OA
ATOM     52  C   UNL     1      21.619  61.556  37.574  1.00  0.00     0.179 C 
ATOM     53  C   UNL     1      22.027  62.949  35.217  1.00  0.00     0.182 C 
ATOM     54  O   UNL     1      20.502  62.271  37.049  1.00  0.00    -0.341 OA
ATOM     55  C   UNL     1      21.487  61.967  34.176  1.00  0.00     0.116 C 
ATOM     56  C   UNL     1      20.883  63.350  36.209  1.00  0.00     0.280 C 
ATOM     57  C   UNL     1      20.298  62.628  33.569  1.00  0.00     0.164 C 
ATOM     58  O   UNL     1      19.745  63.906  35.550  1.00  0.00    -0.339 OA
ATOM     59  O   UNL     1      20.261  62.883  32.374  1.00  0.00    -0.297 OA
ATOM     60  C   UNL     1      19.213  63.094  34.501  1.00  0.00     0.185 C 
ATOM     61  C   UNL     1      20.388  60.642  39.613  1.00  0.00     0.041 C 
ATOM     62  C   UNL     1      18.365  61.936  35.041  1.00  0.00     0.047 C 
ENDBRANCH  38  46
ENDBRANCH  17  18
ENDBRANCH   4  17
TORSDOF 8
ENDMDL
MODEL 2
REMARK VINA RESULT:   -14.081      5.036     15.212
REMARK INTER + INTRA:         -20.838
REMARK INTER:                 -19.779
REMARK INTRA:                  -1.059
REMARK UNBOUND:                -1.406
REMARK SMILES C[C@@H]1O[C@H](O[C@@]2(C)CC(=O)[C@]3(O)C4=C(C=C[C@]3(O)C2)C(=O)c2c(ccc([C@@H]3C[C@H]5O[C@H]6CC(=O)[C@@H](C)O[C@H]6O[C@@H]5[C@@H](C)O3)c2O)C4=O)CC[C@H]1O[C@@H]1CCC(=O)[C@@H](C)O1
REMARK SMILES IDX 50 1 49 2 48 3 4 4 3 5 2 6 1 7 51 8 52 9 57 10 59 11 55 12
REMARK SMILES IDX 54 13 56 14 53 15 58 16 5 17 6 18 8 19 19 20 9 21 17 22
REMARK SMILES IDX 10 23 11 24 16 25 13 26 15 27 14 28 46 29 20 30 23 31 47 32
REMARK SMILES IDX 21 33 22 34 24 35 44 36 25 37 26 38 7 39 18 40 12 42 45 44
REMARK SMILES IDX 27 46 28 47 43 48 29 49 41 50 30 51 40 52 31 53 39 54 32 55
REMARK SMILES IDX 38 56 33 57 37 58 34 59 35 60 42 61 36 62
REMARK H PARENT 18 41 12 43 45 45
ROOT
ATOM      1  C   UNL     1      21.504  61.312  37.274  1.00  0.00     0.150 C 
ATOM      2  C   UNL     1      22.046  59.955  36.826  1.00  0.00     0.040 C 
ATOM      3  C   UNL     1      23.529  59.894  37.183  1.00  0.00     0.065 C 
ATOM      4  C   UNL     1      23.724  60.174  38.686  1.00  0.00     0.251 C 
ATOM      5  O   UNL     1      23.155  61.425  39.047  1.00  0.00    -0.347 OA
ATOM      6  C   UNL     1      21.759  61.456  38.790  1.00  0.00     0.147 C 
ATOM      7  C   UNL     1      21.206  62.781  39.315  1.00  0.00     0.041 C 
ENDROOT
BRANCH   1   8
ATOM      8  O   UNL     1      20.113  61.402  36.988  1.00  0.00    -0.347 OA
BRANCH   8   9
ATOM      9  C   UNL     1      19.848  62.297  35.917  1.00  0.00     0.251 C 
ATOM     10  C   UNL     1      20.250  61.924  33.571  1.00  0.00     0.185 C 
ATOM     11  O   UNL     1      20.811  62.083  34.872  1.00  0.00    -0.342 OA
ATOM     12  C   UNL     1      19.178  62.970  33.316  1.00  0.00     0.161 C 
ATOM     13  C   UNL     1      18.096  63.120  34.344  1.00  0.00     0.084 C 
ATOM     14  O   UNL     1      19.213  63.714  32.346  1.00  0.00    -0.297 OA
ATOM     15  C   UNL     1      18.369  62.140  35.489  1.00  0.00     0.070 C 
ATOM     16  C   UNL     1      21.368  61.981  32.529  1.00  0.00     0.047 C 
ENDBRANCH   8   9
ENDBRANCH   1   8
BRANCH   4  17
ATOM     17  O   UNL     1      25.121  60.263  38.923  1.00  0.00    -0.346 OA
BRANCH  17  18
ATOM     18  C   UNL     1      25.579  59.797  40.189  1.00  0.00     0.079 C 
ATOM     19  C   UNL     1      26.916  58.987  40.068  1.00  0.00     0.114 C 
ATOM     20  C   UNL     1      25.710  61.009  41.185  1.00  0.00     0.079 C 
ATOM     21  C   UNL     1      28.006  59.700  40.813  1.00  0.00     0.175 C 
ATOM     22  C   UNL     1      26.413  60.698  42.547  1.00  0.00     0.126 C 
ATOM     23  O   UNL     1      28.983  60.126  40.214  1.00  0.00    -0.296 OA
ATOM     24  C   UNL     1      27.808  59.932  42.317  1.00  0.00     0.185 C 
ATOM     25  C   UNL     1      25.439  59.972  43.443  1.00  0.00     0.012 C 
ATOM     26  C   UNL     1      27.913  58.552  43.011  1.00  0.00     0.054 C 
ATOM     27  C   UNL     1      25.667  58.789  43.994  1.00  0.00     0.011 C 
ATOM     28  C   UNL     1      26.916  58.043  43.776  1.00  0.00     0.033 C 
ATOM     29  C   UNL     1      29.166  57.743  42.836  1.00  0.00     0.194 C 
ATOM     30  C   UNL     1      27.047  56.706  44.433  1.00  0.00     0.198 C 
ATOM     31  C   UNL     1      29.338  56.442  43.519  1.00  0.00     0.037 A 
ATOM     32  O   UNL     1      30.070  58.158  42.126  1.00  0.00    -0.289 OA
ATOM     33  O   UNL     1      26.117  56.278  45.102  1.00  0.00    -0.288 OA
ATOM     34  C   UNL     1      28.299  55.913  44.307  1.00  0.00     0.076 A 
ATOM     35  C   UNL     1      30.544  55.745  43.399  1.00  0.00     0.013 A 
ATOM     36  C   UNL     1      28.477  54.671  44.975  1.00  0.00     0.133 A 
ATOM     37  C   UNL     1      30.733  54.548  44.066  1.00  0.00     0.011 A 
ATOM     38  C   UNL     1      29.719  53.987  44.859  1.00  0.00     0.023 A 
ATOM     39  C   UNL     1      24.475  58.823  40.649  1.00  0.00     0.043 C 
BRANCH  22  40
ATOM     40  O   UNL     1      26.686  61.932  43.183  1.00  0.00    -0.382 OA
ATOM     41  H   UNL     1      26.037  62.613  42.861  1.00  0.00     0.212 HD
ENDBRANCH  22  40
BRANCH  24  42
ATOM     42  O   UNL     1      28.837  60.759  42.834  1.00  0.00    -0.374 OA
ATOM     43  H   UNL     1      29.141  61.409  42.153  1.00  0.00     0.212 HD
ENDBRANCH  24  42
BRANCH  36  44
ATOM     44  O   UNL     1      27.468  54.195  45.740  1.00  0.00    -0.507 OA
ATOM     45  H   UNL     1      27.118  53.297  45.723  1.00  0.00     0.293 HD
ENDBRANCH  36  44
BRANCH  38  46
ATOM     46  C   UNL     1      30.062  52.701  45.586  1.00  0.00     0.155 C 
ATOM     47  C   UNL     1      30.695  51.737  44.549  1.00  0.00     0.072 C 
ATOM     48  O   UNL     1      28.895  52.160  46.184  1.00  0.00    -0.368 OA
ATOM     49  C   UNL     1      30.491  50.269  44.923  1.00  0.00     0.153 C 
ATOM     50  C   UNL     1      29.133  50.935  46.892  1.00  0.00     0.147 C 
ATOM     51  O   UNL     1      31.529  49.494  44.357  1.00  0.00    -0.366 OA
ATOM     52  C   UNL     1      30.410  50.148  46.458  1.00  0.00     0.179 C 
ATOM     53  C   UNL     1      31.611  48.189  44.915  1.00  0.00     0.182 C 
ATOM     54  O   UNL     1      30.331  48.809  46.945  1.00  0.00    -0.341 OA
ATOM     55  C   UNL     1      32.963  48.029  45.611  1.00  0.00     0.116 C 
ATOM     56  C   UNL     1      30.457  47.840  45.916  1.00  0.00     0.280 C 
ATOM     57  C   UNL     1      32.976  46.646  46.166  1.00  0.00     0.164 C 
ATOM     58  O   UNL     1      30.576  46.528  46.467  1.00  0.00    -0.339 OA
ATOM     59  O   UNL     1      33.813  45.832  45.806  1.00  0.00    -0.297 OA
ATOM     60  C   UNL     1      31.841  46.253  47.071  1.00  0.00     0.185 C 
ATOM     61  C   UNL     1      29.121  51.188  48.400  1.00  0.00     0.041 C 
ATOM     62  C   UNL     1      31.961  46.875  48.467  1.00  0.00     0.047 C 
ENDBRANCH  38  46
ENDBRANCH  17  18
ENDBRANCH   4  17
TORSDOF 8
ENDMDL
MODEL 3
REMARK VINA RESULT:   -13.962      1.751     15.313
REMARK INTER + INTRA:         -20.673
REMARK INTER:                 -19.177
REMARK INTRA:                  -1.496
REMARK UNBOUND:                -1.406
REMARK SMILES C[C@@H]1O[C@H](O[C@@]2(C)CC(=O)[C@]3(O)C4=C(C=C[C@]3(O)C2)C(=O)c2c(ccc([C@@H]3C[C@H]5O[C@H]6CC(=O)[C@@H](C)O[C@H]6O[C@@H]5[C@@H](C)O3)c2O)C4=O)CC[C@H]1O[C@@H]1CCC(=O)[C@@H](C)O1
REMARK SMILES IDX 50 1 49 2 48 3 4 4 3 5 2 6 1 7 51 8 52 9 57 10 59 11 55 12
REMARK SMILES IDX 54 13 56 14 53 15 58 16 5 17 6 18 8 19 19 20 9 21 17 22
REMARK SMILES IDX 10 23 11 24 16 25 13 26 15 27 14 28 46 29 20 30 23 31 47 32
REMARK SMILES IDX 21 33 22 34 24 35 44 36 25 37 26 38 7 39 18 40 12 42 45 44
REMARK SMILES IDX 27 46 28 47 43 48 29 49 41 50 30 51 40 52 31 53 39 54 32 55
REMARK SMILES IDX 38 56 33 57 37 58 34 59 35 60 42 61 36 62
REMARK H PARENT 18 41 12 43 45 45
ROOT
ATOM      1  C   UNL     1      22.627  61.542  38.083  1.00  0.00     0.150 C 
ATOM      2  C   UNL     1      22.105  61.447  39.516  1.00  0.00     0.040 C 
ATOM      3  C   UNL     1      22.635  60.154  40.130  1.00  0.00     0.065 C 
ATOM      4  C   UNL     1      24.172  60.110  40.026  1.00  0.00     0.251 C 
ATOM      5  O   UNL     1      24.594  60.253  38.677  1.00  0.00    -0.347 OA
ATOM      6  C   UNL     1      24.170  61.492  38.128  1.00  0.00     0.147 C 
ATOM      7  C   UNL     1      24.763  61.621  36.725  1.00  0.00     0.041 C 
ENDROOT
BRANCH   1   8
ATOM      8  O   UNL     1      22.182  62.751  37.479  1.00  0.00    -0.347 OA
BRANCH   8   9
ATOM      9  C   UNL     1      21.024  62.550  36.680  1.00  0.00     0.251 C 
ATOM     10  C   UNL     1      20.304  63.869  34.797  1.00  0.00     0.185 C 
ATOM     11  O   UNL     1      20.554  63.820  36.200  1.00  0.00    -0.342 OA
ATOM     12  C   UNL     1      19.540  62.636  34.343  1.00  0.00     0.161 C 
ATOM     13  C   UNL     1      20.088  61.297  34.737  1.00  0.00     0.084 C 
ATOM     14  O   UNL     1      18.484  62.714  33.734  1.00  0.00    -0.297 OA
ATOM     15  C   UNL     1      21.349  61.512  35.580  1.00  0.00     0.070 C 
ATOM     16  C   UNL     1      19.559  65.162  34.462  1.00  0.00     0.047 C 
ENDBRANCH   8   9
ENDBRANCH   1   8
BRANCH   4  17
ATOM     17  O   UNL     1      24.590  58.825  40.463  1.00  0.00    -0.346 OA
BRANCH  17  18
ATOM     18  C   UNL     1      25.777  58.779  41.250  1.00  0.00     0.079 C 
ATOM     19  C   UNL     1      25.528  58.115  42.649  1.00  0.00     0.114 C 
ATOM     20  C   UNL     1      26.920  58.054  40.446  1.00  0.00     0.079 C 
ATOM     21  C   UNL     1      26.341  56.859  42.762  1.00  0.00     0.175 C 
ATOM     22  C   UNL     1      28.217  57.725  41.255  1.00  0.00     0.126 C 
ATOM     23  O   UNL     1      25.785  55.777  42.889  1.00  0.00    -0.296 OA
ATOM     24  C   UNL     1      27.866  56.982  42.637  1.00  0.00     0.185 C 
ATOM     25  C   UNL     1      29.027  58.989  41.410  1.00  0.00     0.012 C 
ATOM     26  C   UNL     1      28.372  57.704  43.910  1.00  0.00     0.054 C 
ATOM     27  C   UNL     1      29.415  59.491  42.574  1.00  0.00     0.011 C 
ATOM     28  C   UNL     1      29.081  58.858  43.859  1.00  0.00     0.033 C 
ATOM     29  C   UNL     1      28.071  57.106  45.254  1.00  0.00     0.194 C 
ATOM     30  C   UNL     1      29.556  59.533  45.106  1.00  0.00     0.198 C 
ATOM     31  C   UNL     1      28.577  57.728  46.497  1.00  0.00     0.037 A 
ATOM     32  O   UNL     1      27.406  56.084  45.336  1.00  0.00    -0.289 OA
ATOM     33  O   UNL     1      30.179  60.581  45.015  1.00  0.00    -0.288 OA
ATOM     34  C   UNL     1      29.306  58.929  46.443  1.00  0.00     0.076 A 
ATOM     35  C   UNL     1      28.346  57.110  47.730  1.00  0.00     0.013 A 
ATOM     36  C   UNL     1      29.804  59.513  47.640  1.00  0.00     0.133 A 
ATOM     37  C   UNL     1      28.848  57.659  48.897  1.00  0.00     0.011 A 
ATOM     38  C   UNL     1      29.578  58.858  48.882  1.00  0.00     0.023 A 
ATOM     39  C   UNL     1      26.125  60.263  41.486  1.00  0.00     0.043 C 
BRANCH  22  40
ATOM     40  O   UNL     1      29.003  56.850  40.470  1.00  0.00    -0.382 OA
ATOM     41  H   UNL     1      29.108  57.235  39.560  1.00  0.00     0.212 HD
ENDBRANCH  22  40
BRANCH  24  42
ATOM     42  O   UNL     1      28.468  55.699  42.595  1.00  0.00    -0.374 OA
ATOM     43  H   UNL     1      29.373  55.749  42.197  1.00  0.00     0.212 HD
ENDBRANCH  24  42
BRANCH  36  44
ATOM     44  O   UNL     1      30.518  60.659  47.555  1.00  0.00    -0.507 OA
ATOM     45  H   UNL     1      30.267  61.448  47.061  1.00  0.00     0.293 HD
ENDBRANCH  36  44
BRANCH  38  46
ATOM     46  C   UNL     1      30.126  59.333  50.215  1.00  0.00     0.155 C 
ATOM     47  C   UNL     1      29.333  58.601  51.329  1.00  0.00     0.072 C 
ATOM     48  O   UNL     1      30.011  60.743  50.308  1.00  0.00    -0.368 OA
ATOM     49  C   UNL     1      29.290  59.402  52.629  1.00  0.00     0.153 C 
ATOM     50  C   UNL     1      30.506  61.274  51.545  1.00  0.00     0.147 C 
ATOM     51  O   UNL     1      29.125  58.515  53.719  1.00  0.00    -0.366 OA
ATOM     52  C   UNL     1      30.565  60.263  52.733  1.00  0.00     0.179 C 
ATOM     53  C   UNL     1      29.404  59.124  54.973  1.00  0.00     0.182 C 
ATOM     54  O   UNL     1      30.701  60.977  53.960  1.00  0.00    -0.341 OA
ATOM     55  C   UNL     1      30.596  58.416  55.617  1.00  0.00     0.116 C 
ATOM     56  C   UNL     1      29.681  60.664  54.896  1.00  0.00     0.280 C 
ATOM     57  C   UNL     1      30.826  59.103  56.919  1.00  0.00     0.164 C 
ATOM     58  O   UNL     1      29.969  61.241  56.170  1.00  0.00    -0.339 OA
ATOM     59  O   UNL     1      30.743  58.494  57.975  1.00  0.00    -0.297 OA
ATOM     60  C   UNL     1      31.021  60.595  56.890  1.00  0.00     0.185 C 
ATOM     61  C   UNL     1      31.859  61.951  51.324  1.00  0.00     0.041 C 
ATOM     62  C   UNL     1      32.406  60.996  56.369  1.00  0.00     0.047 C 
ENDBRANCH  38  46
ENDBRANCH  17  18
ENDBRANCH   4  17
TORSDOF 8
ENDMDL
MODEL 4
REMARK VINA RESULT:   -13.865      5.339     15.263
REMARK INTER + INTRA:         -20.539
REMARK INTER:                 -19.145
REMARK INTRA:                  -1.394
REMARK UNBOUND:                -1.406
REMARK SMILES C[C@@H]1O[C@H](O[C@@]2(C)CC(=O)[C@]3(O)C4=C(C=C[C@]3(O)C2)C(=O)c2c(ccc([C@@H]3C[C@H]5O[C@H]6CC(=O)[C@@H](C)O[C@H]6O[C@@H]5[C@@H](C)O3)c2O)C4=O)CC[C@H]1O[C@@H]1CCC(=O)[C@@H](C)O1
REMARK SMILES IDX 50 1 49 2 48 3 4 4 3 5 2 6 1 7 51 8 52 9 57 10 59 11 55 12
REMARK SMILES IDX 54 13 56 14 53 15 58 16 5 17 6 18 8 19 19 20 9 21 17 22
REMARK SMILES IDX 10 23 11 24 16 25 13 26 15 27 14 28 46 29 20 30 23 31 47 32
REMARK SMILES IDX 21 33 22 34 24 35 44 36 25 37 26 38 7 39 18 40 12 42 45 44
REMARK SMILES IDX 27 46 28 47 43 48 29 49 41 50 30 51 40 52 31 53 39 54 32 55
REMARK SMILES IDX 38 56 33 57 37 58 34 59 35 60 42 61 36 62
REMARK H PARENT 18 41 12 43 45 45
ROOT
ATOM      1  C   UNL     1      22.081  60.683  36.513  1.00  0.00     0.150 C 
ATOM      2  C   UNL     1      23.336  59.924  36.083  1.00  0.00     0.040 C 
ATOM      3  C   UNL     1      24.484  60.349  36.994  1.00  0.00     0.065 C 
ATOM      4  C   UNL     1      24.099  60.125  38.470  1.00  0.00     0.251 C 
ATOM      5  O   UNL     1      22.900  60.816  38.792  1.00  0.00    -0.347 OA
ATOM      6  C   UNL     1      21.811  60.365  38.000  1.00  0.00     0.147 C 
ATOM      7  C   UNL     1      20.543  61.065  38.488  1.00  0.00     0.041 C 
ENDROOT
BRANCH   1   8
ATOM      8  O   UNL     1      20.974  60.295  35.708  1.00  0.00    -0.347 OA
BRANCH   8   9
ATOM      9  C   UNL     1      20.584  61.325  34.810  1.00  0.00     0.251 C 
ATOM     10  C   UNL     1      19.643  63.470  35.371  1.00  0.00     0.185 C 
ATOM     11  O   UNL     1      19.483  62.054  35.375  1.00  0.00    -0.342 OA
ATOM     12  C   UNL     1      20.168  63.948  34.027  1.00  0.00     0.161 C 
ATOM     13  C   UNL     1      21.391  63.274  33.480  1.00  0.00     0.084 C 
ATOM     14  O   UNL     1      19.592  64.804  33.371  1.00  0.00    -0.297 OA
ATOM     15  C   UNL     1      21.825  62.179  34.458  1.00  0.00     0.070 C 
ATOM     16  C   UNL     1      18.313  64.131  35.736  1.00  0.00     0.047 C 
ENDBRANCH   8   9
ENDBRANCH   1   8
BRANCH   4  17
ATOM     17  O   UNL     1      25.133  60.684  39.267  1.00  0.00    -0.346 OA
BRANCH  17  18
ATOM     18  C   UNL     1      25.554  59.913  40.389  1.00  0.00     0.079 C 
ATOM     19  C   UNL     1      27.114  59.768  40.449  1.00  0.00     0.114 C 
ATOM     20  C   UNL     1      24.967  60.534  41.711  1.00  0.00     0.079 C 
ATOM     21  C   UNL     1      27.633  60.424  41.695  1.00  0.00     0.175 C 
ATOM     22  C   UNL     1      25.518  59.936  43.047  1.00  0.00     0.126 C 
ATOM     23  O   UNL     1      28.388  61.382  41.616  1.00  0.00    -0.296 OA
ATOM     24  C   UNL     1      27.125  59.895  43.044  1.00  0.00     0.185 C 
ATOM     25  C   UNL     1      24.856  58.602  43.292  1.00  0.00     0.012 C 
ATOM     26  C   UNL     1      27.740  58.489  43.246  1.00  0.00     0.054 C 
ATOM     27  C   UNL     1      25.511  57.463  43.470  1.00  0.00     0.011 C 
ATOM     28  C   UNL     1      26.980  57.382  43.438  1.00  0.00     0.033 C 
ATOM     29  C   UNL     1      29.233  58.339  43.231  1.00  0.00     0.194 C 
ATOM     30  C   UNL     1      27.602  56.037  43.629  1.00  0.00     0.198 C 
ATOM     31  C   UNL     1      29.872  57.025  43.470  1.00  0.00     0.037 A 
ATOM     32  O   UNL     1      29.946  59.310  43.026  1.00  0.00    -0.289 OA
ATOM     33  O   UNL     1      26.879  55.063  43.784  1.00  0.00    -0.288 OA
ATOM     34  C   UNL     1      29.081  55.878  43.663  1.00  0.00     0.076 A 
ATOM     35  C   UNL     1      31.265  56.927  43.526  1.00  0.00     0.013 A 
ATOM     36  C   UNL     1      29.701  54.622  43.911  1.00  0.00     0.133 A 
ATOM     37  C   UNL     1      31.875  55.713  43.790  1.00  0.00     0.011 A 
ATOM     38  C   UNL     1      31.119  54.546  43.985  1.00  0.00     0.023 A 
ATOM     39  C   UNL     1      24.959  58.515  40.125  1.00  0.00     0.043 C 
BRANCH  22  40
ATOM     40  O   UNL     1      25.099  60.781  44.101  1.00  0.00    -0.382 OA
ATOM     41  H   UNL     1      24.454  60.289  44.675  1.00  0.00     0.212 HD
ENDBRANCH  22  40
BRANCH  24  42
ATOM     42  O   UNL     1      27.573  60.723  44.105  1.00  0.00    -0.374 OA
ATOM     43  H   UNL     1      27.930  60.177  44.849  1.00  0.00     0.212 HD
ENDBRANCH  24  42
BRANCH  36  44
ATOM     44  O   UNL     1      28.915  53.539  44.109  1.00  0.00    -0.507 OA
ATOM     45  H   UNL     1      27.991  53.454  43.850  1.00  0.00     0.293 HD
ENDBRANCH  36  44
BRANCH  38  46
ATOM     46  C   UNL     1      31.894  53.287  44.324  1.00  0.00     0.155 C 
ATOM     47  C   UNL     1      33.403  53.621  44.189  1.00  0.00     0.072 C 
ATOM     48  O   UNL     1      31.497  52.231  43.465  1.00  0.00    -0.368 OA
ATOM     49  C   UNL     1      34.241  52.388  43.855  1.00  0.00     0.153 C 
ATOM     50  C   UNL     1      32.188  51.000  43.719  1.00  0.00     0.147 C 
ATOM     51  O   UNL     1      35.561  52.580  44.324  1.00  0.00    -0.366 OA
ATOM     52  C   UNL     1      33.560  51.140  44.451  1.00  0.00     0.179 C 
ATOM     53  C   UNL     1      36.316  51.375  44.358  1.00  0.00     0.182 C 
ATOM     54  O   UNL     1      34.303  49.931  44.306  1.00  0.00    -0.341 OA
ATOM     55  C   UNL     1      36.705  51.071  45.805  1.00  0.00     0.116 C 
ATOM     56  C   UNL     1      35.585  50.137  43.735  1.00  0.00     0.280 C 
ATOM     57  C   UNL     1      37.489  49.805  45.760  1.00  0.00     0.164 C 
ATOM     58  O   UNL     1      36.365  48.943  43.795  1.00  0.00    -0.339 OA
ATOM     59  O   UNL     1      38.650  49.770  46.140  1.00  0.00    -0.297 OA
ATOM     60  C   UNL     1      36.846  48.615  45.100  1.00  0.00     0.185 C 
ATOM     61  C   UNL     1      31.267  50.019  44.445  1.00  0.00     0.041 C 
ATOM     62  C   UNL     1      35.758  47.977  45.972  1.00  0.00     0.047 C 
ENDBRANCH  38  46
ENDBRANCH  17  18
ENDBRANCH   4  17
TORSDOF 8
ENDMDL
MODEL 5
REMARK VINA RESULT:   -13.824      3.391     15.342
REMARK INTER + INTRA:         -20.483
REMARK INTER:                 -19.223
REMARK INTRA:                  -1.260
REMARK UNBOUND:                -1.406
REMARK SMILES C[C@@H]1O[C@H](O[C@@]2(C)CC(=O)[C@]3(O)C4=C(C=C[C@]3(O)C2)C(=O)c2c(ccc([C@@H]3C[C@H]5O[C@H]6CC(=O)[C@@H](C)O[C@H]6O[C@@H]5[C@@H](C)O3)c2O)C4=O)CC[C@H]1O[C@@H]1CCC(=O)[C@@H](C)O1
REMARK SMILES IDX 50 1 49 2 48 3 4 4 3 5 2 6 1 7 51 8 52 9 57 10 59 11 55 12
REMARK SMILES IDX 54 13 56 14 53 15 58 16 5 17 6 18 8 19 19 20 9 21 17 22
REMARK SMILES IDX 10 23 11 24 16 25 13 26 15 27 14 28 46 29 20 30 23 31 47 32
REMARK SMILES IDX 21 33 22 34 24 35 44 36 25 37 26 38 7 39 18 40 12 42 45 44
REMARK SMILES IDX 27 46 28 47 43 48 29 49 41 50 30 51 40 52 31 53 39 54 32 55
REMARK SMILES IDX 38 56 33 57 37 58 34 59 35 60 42 61 36 62
REMARK H PARENT 18 41 12 43 45 45
ROOT
ATOM      1  C   UNL     1      23.417  61.965  37.236  1.00  0.00     0.150 C 
ATOM      2  C   UNL     1      24.405  62.808  38.041  1.00  0.00     0.040 C 
ATOM      3  C   UNL     1      24.379  62.321  39.487  1.00  0.00     0.065 C 
ATOM      4  C   UNL     1      24.668  60.807  39.541  1.00  0.00     0.251 C 
ATOM      5  O   UNL     1      23.747  60.086  38.734  1.00  0.00    -0.347 OA
ATOM      6  C   UNL     1      23.826  60.482  37.373  1.00  0.00     0.147 C 
ATOM      7  C   UNL     1      22.898  59.581  36.558  1.00  0.00     0.041 C 
ENDROOT
BRANCH   1   8
ATOM      8  O   UNL     1      23.430  62.365  35.871  1.00  0.00    -0.347 OA
BRANCH   8   9
ATOM      9  C   UNL     1      22.178  62.900  35.463  1.00  0.00     0.251 C 
ATOM     10  C   UNL     1      20.188  61.674  34.879  1.00  0.00     0.185 C 
ATOM     11  O   UNL     1      21.543  61.982  34.559  1.00  0.00    -0.342 OA
ATOM     12  C   UNL     1      19.419  62.936  35.232  1.00  0.00     0.161 C 
ATOM     13  C   UNL     1      20.014  63.846  36.265  1.00  0.00     0.084 C 
ATOM     14  O   UNL     1      18.384  63.247  34.661  1.00  0.00    -0.297 OA
ATOM     15  C   UNL     1      21.353  63.258  36.722  1.00  0.00     0.070 C 
ATOM     16  C   UNL     1      19.551  60.920  33.711  1.00  0.00     0.047 C 
ENDBRANCH   8   9
ENDBRANCH   1   8
BRANCH   4  17
ATOM     17  O   UNL     1      24.472  60.386  40.882  1.00  0.00    -0.346 OA
BRANCH  17  18
ATOM     18  C   UNL     1      25.610  59.846  41.549  1.00  0.00     0.079 C 
ATOM     19  C   UNL     1      25.591  60.156  43.086  1.00  0.00     0.114 C 
ATOM     20  C   UNL     1      25.715  58.303  41.257  1.00  0.00     0.079 C 
ATOM     21  C   UNL     1      25.507  58.871  43.857  1.00  0.00     0.175 C 
ATOM     22  C   UNL     1      26.780  57.523  42.095  1.00  0.00     0.126 C 
ATOM     23  O   UNL     1      24.536  58.641  44.564  1.00  0.00    -0.296 OA
ATOM     24  C   UNL     1      26.635  57.848  43.663  1.00  0.00     0.185 C 
ATOM     25  C   UNL     1      28.148  57.798  41.521  1.00  0.00     0.012 C 
ATOM     26  C   UNL     1      27.905  58.435  44.325  1.00  0.00     0.054 C 
ATOM     27  C   UNL     1      29.165  58.291  42.213  1.00  0.00     0.011 C 
ATOM     28  C   UNL     1      29.058  58.634  43.640  1.00  0.00     0.033 C 
ATOM     29  C   UNL     1      27.864  58.800  45.781  1.00  0.00     0.194 C 
ATOM     30  C   UNL     1      30.268  59.205  44.307  1.00  0.00     0.198 C 
ATOM     31  C   UNL     1      29.066  59.316  46.473  1.00  0.00     0.037 A 
ATOM     32  O   UNL     1      26.830  58.665  46.419  1.00  0.00    -0.289 OA
ATOM     33  O   UNL     1      31.283  59.382  43.648  1.00  0.00    -0.288 OA
ATOM     34  C   UNL     1      30.259  59.527  45.759  1.00  0.00     0.076 A 
ATOM     35  C   UNL     1      29.022  59.576  47.846  1.00  0.00     0.013 A 
ATOM     36  C   UNL     1      31.415  60.007  46.434  1.00  0.00     0.133 A 
ATOM     37  C   UNL     1      30.149  60.021  48.514  1.00  0.00     0.011 A 
ATOM     38  C   UNL     1      31.357  60.246  47.835  1.00  0.00     0.023 A 
ATOM     39  C   UNL     1      26.800  60.606  40.928  1.00  0.00     0.043 C 
BRANCH  22  40
ATOM     40  O   UNL     1      26.547  56.141  41.907  1.00  0.00    -0.382 OA
ATOM     41  H   UNL     1      26.062  55.782  42.697  1.00  0.00     0.212 HD
ENDBRANCH  22  40
BRANCH  24  42
ATOM     42  O   UNL     1      26.323  56.632  44.323  1.00  0.00    -0.374 OA
ATOM     43  H   UNL     1      26.505  56.701  45.292  1.00  0.00     0.212 HD
ENDBRANCH  24  42
BRANCH  36  44
ATOM     44  O   UNL     1      32.554  60.184  45.725  1.00  0.00    -0.507 OA
ATOM     45  H   UNL     1      32.650  60.076  44.772  1.00  0.00     0.293 HD
ENDBRANCH  36  44
BRANCH  38  46
ATOM     46  C   UNL     1      32.540  60.677  48.681  1.00  0.00     0.155 C 
ATOM     47  C   UNL     1      31.990  61.574  49.821  1.00  0.00     0.072 C 
ATOM     48  O   UNL     1      33.490  61.352  47.874  1.00  0.00    -0.368 OA
ATOM     49  C   UNL     1      33.033  62.571  50.326  1.00  0.00     0.153 C 
ATOM     50  C   UNL     1      34.642  61.798  48.601  1.00  0.00     0.147 C 
ATOM     51  O   UNL     1      32.743  62.910  51.668  1.00  0.00    -0.366 OA
ATOM     52  C   UNL     1      34.439  61.967  50.140  1.00  0.00     0.179 C 
ATOM     53  C   UNL     1      33.827  63.562  52.318  1.00  0.00     0.182 C 
ATOM     54  O   UNL     1      35.500  62.756  50.677  1.00  0.00    -0.341 OA
ATOM     55  C   UNL     1      34.303  62.695  53.484  1.00  0.00     0.116 C 
ATOM     56  C   UNL     1      35.037  63.897  51.380  1.00  0.00     0.280 C 
ATOM     57  C   UNL     1      35.430  63.438  54.114  1.00  0.00     0.164 C 
ATOM     58  O   UNL     1      36.111  64.540  52.067  1.00  0.00    -0.339 OA
ATOM     59  O   UNL     1      35.370  63.804  55.278  1.00  0.00    -0.297 OA
ATOM     60  C   UNL     1      36.575  63.843  53.225  1.00  0.00     0.185 C 
ATOM     61  C   UNL     1      35.840  60.898  48.294  1.00  0.00     0.041 C 
ATOM     62  C   UNL     1      37.482  62.661  52.862  1.00  0.00     0.047 C 
ENDBRANCH  38  46
ENDBRANCH  17  18
ENDBRANCH   4  17
TORSDOF 8
ENDMDL
MODEL 6
REMARK VINA RESULT:   -13.530      4.661     15.102
REMARK INTER + INTRA:         -20.077
REMARK INTER:                 -18.505
REMARK INTRA:                  -1.571
REMARK UNBOUND:                -1.406
REMARK SMILES C[C@@H]1O[C@H](O[C@@]2(C)CC(=O)[C@]3(O)C4=C(C=C[C@]3(O)C2)C(=O)c2c(ccc([C@@H]3C[C@H]5O[C@H]6CC(=O)[C@@H](C)O[C@H]6O[C@@H]5[C@@H](C)O3)c2O)C4=O)CC[C@H]1O[C@@H]1CCC(=O)[C@@H](C)O1
REMARK SMILES IDX 50 1 49 2 48 3 4 4 3 5 2 6 1 7 51 8 52 9 57 10 59 11 55 12
REMARK SMILES IDX 54 13 56 14 53 15 58 16 5 17 6 18 8 19 19 20 9 21 17 22
REMARK SMILES IDX 10 23 11 24 16 25 13 26 15 27 14 28 46 29 20 30 23 31 47 32
REMARK SMILES IDX 21 33 22 34 24 35 44 36 25 37 26 38 7 39 18 40 12 42 45 44
REMARK SMILES IDX 27 46 28 47 43 48 29 49 41 50 30 51 40 52 31 53 39 54 32 55
REMARK SMILES IDX 38 56 33 57 37 58 34 59 35 60 42 61 36 62
REMARK H PARENT 18 41 12 43 45 45
ROOT
ATOM      1  C   UNL     1      23.554  61.933  37.446  1.00  0.00     0.150 C 
ATOM      2  C   UNL     1      24.553  62.813  38.195  1.00  0.00     0.040 C 
ATOM      3  C   UNL     1      24.472  62.468  39.680  1.00  0.00     0.065 C 
ATOM      4  C   UNL     1      24.701  60.958  39.885  1.00  0.00     0.251 C 
ATOM      5  O   UNL     1      23.773  60.196  39.125  1.00  0.00    -0.347 OA
ATOM      6  C   UNL     1      23.902  60.456  37.735  1.00  0.00     0.147 C 
ATOM      7  C   UNL     1      22.960  59.515  36.983  1.00  0.00     0.041 C 
ENDROOT
BRANCH   1   8
ATOM      8  O   UNL     1      23.617  62.199  36.050  1.00  0.00    -0.347 OA
BRANCH   8   9
ATOM      9  C   UNL     1      22.413  62.779  35.565  1.00  0.00     0.251 C 
ATOM     10  C   UNL     1      20.390  61.631  34.940  1.00  0.00     0.185 C 
ATOM     11  O   UNL     1      21.771  61.858  34.669  1.00  0.00    -0.342 OA
ATOM     12  C   UNL     1      19.672  62.943  35.209  1.00  0.00     0.161 C 
ATOM     13  C   UNL     1      20.268  63.863  36.232  1.00  0.00     0.084 C 
ATOM     14  O   UNL     1      18.680  63.283  34.580  1.00  0.00    -0.297 OA
ATOM     15  C   UNL     1      21.554  63.229  36.771  1.00  0.00     0.070 C 
ATOM     16  C   UNL     1      19.766  60.864  33.773  1.00  0.00     0.047 C 
ENDBRANCH   8   9
ENDBRANCH   1   8
BRANCH   4  17
ATOM     17  O   UNL     1      24.455  60.675  41.254  1.00  0.00    -0.346 OA
BRANCH  17  18
ATOM     18  C   UNL     1      25.545  60.132  41.995  1.00  0.00     0.079 C 
ATOM     19  C   UNL     1      25.862  58.655  41.575  1.00  0.00     0.114 C 
ATOM     20  C   UNL     1      26.802  61.070  41.854  1.00  0.00     0.079 C 
ATOM     21  C   UNL     1      27.243  58.583  40.991  1.00  0.00     0.175 C 
ATOM     22  C   UNL     1      28.142  60.501  42.424  1.00  0.00     0.126 C 
ATOM     23  O   UNL     1      27.400  58.247  39.826  1.00  0.00    -0.296 OA
ATOM     24  C   UNL     1      28.417  59.012  41.882  1.00  0.00     0.185 C 
ATOM     25  C   UNL     1      28.124  60.627  43.928  1.00  0.00     0.012 C 
ATOM     26  C   UNL     1      28.573  57.937  42.985  1.00  0.00     0.054 C 
ATOM     27  C   UNL     1      28.292  59.615  44.767  1.00  0.00     0.011 C 
ATOM     28  C   UNL     1      28.509  58.234  44.306  1.00  0.00     0.033 C 
ATOM     29  C   UNL     1      28.804  56.510  42.582  1.00  0.00     0.194 C 
ATOM     30  C   UNL     1      28.662  57.174  45.349  1.00  0.00     0.198 C 
ATOM     31  C   UNL     1      29.010  55.453  43.597  1.00  0.00     0.037 A 
ATOM     32  O   UNL     1      28.833  56.202  41.399  1.00  0.00    -0.289 OA
ATOM     33  O   UNL     1      28.583  57.484  46.529  1.00  0.00    -0.288 OA
ATOM     34  C   UNL     1      28.938  55.763  44.967  1.00  0.00     0.076 A 
ATOM     35  C   UNL     1      29.299  54.146  43.194  1.00  0.00     0.013 A 
ATOM     36  C   UNL     1      29.155  54.746  45.938  1.00  0.00     0.133 A 
ATOM     37  C   UNL     1      29.535  53.156  44.132  1.00  0.00     0.011 A 
ATOM     38  C   UNL     1      29.468  53.427  45.509  1.00  0.00     0.023 A 
ATOM     39  C   UNL     1      25.033  60.112  43.449  1.00  0.00     0.043 C 
BRANCH  22  40
ATOM     40  O   UNL     1      29.191  61.336  41.973  1.00  0.00    -0.382 OA
ATOM     41  H   UNL     1      29.044  61.552  41.014  1.00  0.00     0.212 HD
ENDBRANCH  22  40
BRANCH  24  42
ATOM     42  O   UNL     1      29.622  59.048  41.135  1.00  0.00    -0.374 OA
ATOM     43  H   UNL     1      30.114  59.890  41.302  1.00  0.00     0.212 HD
ENDBRANCH  24  42
BRANCH  36  44
ATOM     44  O   UNL     1      29.096  55.077  47.248  1.00  0.00    -0.507 OA
ATOM     45  H   UNL     1      28.628  54.591  47.935  1.00  0.00     0.293 HD
ENDBRANCH  36  44
BRANCH  38  46
ATOM     46  C   UNL     1      29.802  52.278  46.441  1.00  0.00     0.155 C 
ATOM     47  C   UNL     1      30.278  51.092  45.562  1.00  0.00     0.072 C 
ATOM     48  O   UNL     1      28.667  51.948  47.224  1.00  0.00    -0.368 OA
ATOM     49  C   UNL     1      30.025  49.740  46.229  1.00  0.00     0.153 C 
ATOM     50  C   UNL     1      28.898  50.863  48.134  1.00  0.00     0.147 C 
ATOM     51  O   UNL     1      30.958  48.797  45.740  1.00  0.00    -0.366 OA
ATOM     52  C   UNL     1      30.080  49.915  47.759  1.00  0.00     0.179 C 
ATOM     53  C   UNL     1      31.016  47.617  46.532  1.00  0.00     0.182 C 
ATOM     54  O   UNL     1      29.970  48.701  48.500  1.00  0.00    -0.341 OA
ATOM     55  C   UNL     1      32.416  47.489  47.134  1.00  0.00     0.116 C 
ATOM     56  C   UNL     1      29.942  47.550  47.671  1.00  0.00     0.280 C 
ATOM     57  C   UNL     1      32.400  46.238  47.943  1.00  0.00     0.164 C 
ATOM     58  O   UNL     1      30.036  46.359  48.454  1.00  0.00    -0.339 OA
ATOM     59  O   UNL     1      33.151  45.310  47.682  1.00  0.00    -0.297 OA
ATOM     60  C   UNL     1      31.334  46.108  48.996  1.00  0.00     0.185 C 
ATOM     61  C   UNL     1      29.042  51.395  49.560  1.00  0.00     0.041 C 
ATOM     62  C   UNL     1      31.619  46.970  50.231  1.00  0.00     0.047 C 
ENDBRANCH  38  46
ENDBRANCH  17  18
ENDBRANCH   4  17
TORSDOF 8
ENDMDL
MODEL 7
REMARK VINA RESULT:   -13.446      3.971      7.219
REMARK INTER + INTRA:         -19.961
REMARK INTER:                 -18.274
REMARK INTRA:                  -1.687
REMARK UNBOUND:                -1.406
REMARK SMILES C[C@@H]1O[C@H](O[C@@]2(C)CC(=O)[C@]3(O)C4=C(C=C[C@]3(O)C2)C(=O)c2c(ccc([C@@H]3C[C@H]5O[C@H]6CC(=O)[C@@H](C)O[C@H]6O[C@@H]5[C@@H](C)O3)c2O)C4=O)CC[C@H]1O[C@@H]1CCC(=O)[C@@H](C)O1
REMARK SMILES IDX 50 1 49 2 48 3 4 4 3 5 2 6 1 7 51 8 52 9 57 10 59 11 55 12
REMARK SMILES IDX 54 13 56 14 53 15 58 16 5 17 6 18 8 19 19 20 9 21 17 22
REMARK SMILES IDX 10 23 11 24 16 25 13 26 15 27 14 28 46 29 20 30 23 31 47 32
REMARK SMILES IDX 21 33 22 34 24 35 44 36 25 37 26 38 7 39 18 40 12 42 45 44
REMARK SMILES IDX 27 46 28 47 43 48 29 49 41 50 30 51 40 52 31 53 39 54 32 55
REMARK SMILES IDX 38 56 33 57 37 58 34 59 35 60 42 61 36 62
REMARK H PARENT 18 41 12 43 45 45
ROOT
ATOM      1  C   UNL     1      35.436  54.292  45.214  1.00  0.00     0.150 C 
ATOM      2  C   UNL     1      35.813  55.510  46.057  1.00  0.00     0.040 C 
ATOM      3  C   UNL     1      35.330  56.761  45.327  1.00  0.00     0.065 C 
ATOM      4  C   UNL     1      33.820  56.653  45.034  1.00  0.00     0.251 C 
ATOM      5  O   UNL     1      33.530  55.476  44.292  1.00  0.00    -0.347 OA
ATOM      6  C   UNL     1      33.906  54.306  45.005  1.00  0.00     0.147 C 
ATOM      7  C   UNL     1      33.453  53.090  44.197  1.00  0.00     0.041 C 
ENDROOT
BRANCH   1   8
ATOM      8  O   UNL     1      35.840  53.097  45.873  1.00  0.00    -0.347 OA
BRANCH   8   9
ATOM      9  C   UNL     1      36.872  52.424  45.164  1.00  0.00     0.251 C 
ATOM     10  C   UNL     1      36.635  50.534  43.689  1.00  0.00     0.185 C 
ATOM     11  O   UNL     1      36.520  51.039  45.018  1.00  0.00    -0.342 OA
ATOM     12  C   UNL     1      37.940  50.983  43.054  1.00  0.00     0.161 C 
ATOM     13  C   UNL     1      38.263  52.447  43.094  1.00  0.00     0.084 C 
ATOM     14  O   UNL     1      38.739  50.189  42.579  1.00  0.00    -0.297 OA
ATOM     15  C   UNL     1      37.141  53.176  43.838  1.00  0.00     0.070 C 
ATOM     16  C   UNL     1      36.503  49.010  43.715  1.00  0.00     0.047 C 
ENDBRANCH   8   9
ENDBRANCH   1   8
BRANCH   4  17
ATOM     17  O   UNL     1      33.466  57.761  44.220  1.00  0.00    -0.346 OA
BRANCH  17  18
ATOM     18  C   UNL     1      32.103  58.173  44.269  1.00  0.00     0.079 C 
ATOM     19  C   UNL     1      31.205  57.348  43.284  1.00  0.00     0.114 C 
ATOM     20  C   UNL     1      31.579  58.100  45.751  1.00  0.00     0.079 C 
ATOM     21  C   UNL     1      30.183  56.574  44.064  1.00  0.00     0.175 C 
ATOM     22  C   UNL     1      30.040  58.307  45.940  1.00  0.00     0.126 C 
ATOM     23  O   UNL     1      30.185  55.351  44.037  1.00  0.00    -0.296 OA
ATOM     24  C   UNL     1      29.202  57.367  44.940  1.00  0.00     0.185 C 
ATOM     25  C   UNL     1      29.729  59.779  45.825  1.00  0.00     0.012 C 
ATOM     26  C   UNL     1      28.246  58.123  43.986  1.00  0.00     0.054 C 
ATOM     27  C   UNL     1      28.863  60.297  44.966  1.00  0.00     0.011 C 
ATOM     28  C   UNL     1      28.106  59.471  44.012  1.00  0.00     0.033 C 
ATOM     29  C   UNL     1      27.438  57.338  42.993  1.00  0.00     0.194 C 
ATOM     30  C   UNL     1      27.175  60.174  43.077  1.00  0.00     0.198 C 
ATOM     31  C   UNL     1      26.471  58.008  42.094  1.00  0.00     0.037 A 
ATOM     32  O   UNL     1      27.565  56.125  42.920  1.00  0.00    -0.289 OA
ATOM     33  O   UNL     1      27.090  61.393  43.125  1.00  0.00    -0.288 OA
ATOM     34  C   UNL     1      26.333  59.407  42.119  1.00  0.00     0.076 A 
ATOM     35  C   UNL     1      25.678  57.245  41.232  1.00  0.00     0.013 A 
ATOM     36  C   UNL     1      25.389  60.043  41.266  1.00  0.00     0.133 A 
ATOM     37  C   UNL     1      24.741  57.855  40.416  1.00  0.00     0.011 A 
ATOM     38  C   UNL     1      24.576  59.249  40.411  1.00  0.00     0.023 A 
ATOM     39  C   UNL     1      32.138  59.631  43.768  1.00  0.00     0.043 C 
BRANCH  22  40
ATOM     40  O   UNL     1      29.716  57.940  47.266  1.00  0.00    -0.382 OA
ATOM     41  H   UNL     1      30.500  58.115  47.853  1.00  0.00     0.212 HD
ENDBRANCH  22  40
BRANCH  24  42
ATOM     42  O   UNL     1      28.421  56.490  45.735  1.00  0.00    -0.374 OA
ATOM     43  H   UNL     1      27.580  56.253  45.272  1.00  0.00     0.212 HD
ENDBRANCH  24  42
BRANCH  36  44
ATOM     44  O   UNL     1      25.266  61.389  41.324  1.00  0.00    -0.507 OA
ATOM     45  H   UNL     1      25.877  62.031  40.947  1.00  0.00     0.293 HD
ENDBRANCH  36  44
BRANCH  38  46
ATOM     46  C   UNL     1      23.479  59.798  39.518  1.00  0.00     0.155 C 
ATOM     47  C   UNL     1      24.168  60.486  38.310  1.00  0.00     0.072 C 
ATOM     48  O   UNL     1      22.661  60.692  40.254  1.00  0.00    -0.368 OA
ATOM     49  C   UNL     1      23.307  61.597  37.709  1.00  0.00     0.153 C 
ATOM     50  C   UNL     1      21.598  61.261  39.478  1.00  0.00     0.147 C 
ATOM     51  O   UNL     1      23.643  61.763  36.346  1.00  0.00    -0.366 OA
ATOM     52  C   UNL     1      21.819  61.257  37.932  1.00  0.00     0.179 C 
ATOM     53  C   UNL     1      22.682  62.528  35.630  1.00  0.00     0.182 C 
ATOM     54  O   UNL     1      20.905  62.163  37.317  1.00  0.00    -0.341 OA
ATOM     55  C   UNL     1      22.061  61.655  34.539  1.00  0.00     0.116 C 
ATOM     56  C   UNL     1      21.551  63.144  36.522  1.00  0.00     0.280 C 
ATOM     57  C   UNL     1      21.074  62.520  33.835  1.00  0.00     0.164 C 
ATOM     58  O   UNL     1      20.598  63.896  35.771  1.00  0.00    -0.339 OA
ATOM     59  O   UNL     1      21.189  62.767  32.644  1.00  0.00    -0.297 OA
ATOM     60  C   UNL     1      20.018  63.189  34.673  1.00  0.00     0.185 C 
ATOM     61  C   UNL     1      20.267  60.606  39.849  1.00  0.00     0.041 C 
ATOM     62  C   UNL     1      18.925  62.214  35.129  1.00  0.00     0.047 C 
ENDBRANCH  38  46
ENDBRANCH  17  18
ENDBRANCH   4  17
TORSDOF 8
ENDMDL
MODEL 8
REMARK VINA RESULT:   -13.234      2.776      3.289
REMARK INTER + INTRA:         -19.669
REMARK INTER:                 -18.532
REMARK INTRA:                  -1.138
REMARK UNBOUND:                -1.406
REMARK SMILES C[C@@H]1O[C@H](O[C@@]2(C)CC(=O)[C@]3(O)C4=C(C=C[C@]3(O)C2)C(=O)c2c(ccc([C@@H]3C[C@H]5O[C@H]6CC(=O)[C@@H](C)O[C@H]6O[C@@H]5[C@@H](C)O3)c2O)C4=O)CC[C@H]1O[C@@H]1CCC(=O)[C@@H](C)O1
REMARK SMILES IDX 50 1 49 2 48 3 4 4 3 5 2 6 1 7 51 8 52 9 57 10 59 11 55 12
REMARK SMILES IDX 54 13 56 14 53 15 58 16 5 17 6 18 8 19 19 20 9 21 17 22
REMARK SMILES IDX 10 23 11 24 16 25 13 26 15 27 14 28 46 29 20 30 23 31 47 32
REMARK SMILES IDX 21 33 22 34 24 35 44 36 25 37 26 38 7 39 18 40 12 42 45 44
REMARK SMILES IDX 27 46 28 47 43 48 29 49 41 50 30 51 40 52 31 53 39 54 32 55
REMARK SMILES IDX 38 56 33 57 37 58 34 59 35 60 42 61 36 62
REMARK H PARENT 18 41 12 43 45 45
ROOT
ATOM      1  C   UNL     1      29.758  53.991  50.196  1.00  0.00     0.150 C 
ATOM      2  C   UNL     1      28.498  54.664  49.653  1.00  0.00     0.040 C 
ATOM      3  C   UNL     1      28.910  55.962  48.965  1.00  0.00     0.065 C 
ATOM      4  C   UNL     1      29.973  55.675  47.886  1.00  0.00     0.251 C 
ATOM      5  O   UNL     1      31.095  55.005  48.444  1.00  0.00    -0.347 OA
ATOM      6  C   UNL     1      30.725  53.758  49.015  1.00  0.00     0.147 C 
ATOM      7  C   UNL     1      31.998  53.051  49.481  1.00  0.00     0.041 C 
ENDROOT
BRANCH   1   8
ATOM      8  O   UNL     1      29.424  52.757  50.821  1.00  0.00    -0.347 OA
BRANCH   8   9
ATOM      9  C   UNL     1      29.552  52.827  52.234  1.00  0.00     0.251 C 
ATOM     10  C   UNL     1      31.583  53.083  53.504  1.00  0.00     0.185 C 
ATOM     11  O   UNL     1      30.816  52.266  52.623  1.00  0.00    -0.342 OA
ATOM     12  C   UNL     1      30.710  53.647  54.612  1.00  0.00     0.161 C 
ATOM     13  C   UNL     1      29.443  54.343  54.212  1.00  0.00     0.084 C 
ATOM     14  O   UNL     1      30.980  53.493  55.795  1.00  0.00    -0.297 OA
ATOM     15  C   UNL     1      29.316  54.288  52.687  1.00  0.00     0.070 C 
ATOM     16  C   UNL     1      32.756  52.270  54.054  1.00  0.00     0.047 C 
ENDBRANCH   8   9
ENDBRANCH   1   8
BRANCH   4  17
ATOM     17  O   UNL     1      30.431  56.927  47.397  1.00  0.00    -0.346 OA
BRANCH  17  18
ATOM     18  C   UNL     1      30.121  57.229  46.040  1.00  0.00     0.079 C 
ATOM     19  C   UNL     1      29.255  58.529  45.910  1.00  0.00     0.114 C 
ATOM     20  C   UNL     1      31.449  57.315  45.199  1.00  0.00     0.079 C 
ATOM     21  C   UNL     1      30.022  59.570  45.148  1.00  0.00     0.175 C 
ATOM     22  C   UNL     1      31.296  57.858  43.740  1.00  0.00     0.126 C 
ATOM     23  O   UNL     1      30.330  60.624  45.687  1.00  0.00    -0.296 OA
ATOM     24  C   UNL     1      30.458  59.230  43.717  1.00  0.00     0.185 C 
ATOM     25  C   UNL     1      30.730  56.762  42.870  1.00  0.00     0.012 C 
ATOM     26  C   UNL     1      29.179  59.195  42.844  1.00  0.00     0.054 C 
ATOM     27  C   UNL     1      29.623  56.873  42.151  1.00  0.00     0.011 C 
ATOM     28  C   UNL     1      28.811  58.100  42.134  1.00  0.00     0.033 C 
ATOM     29  C   UNL     1      28.311  60.418  42.778  1.00  0.00     0.194 C 
ATOM     30  C   UNL     1      27.570  58.096  41.301  1.00  0.00     0.198 C 
ATOM     31  C   UNL     1      27.106  60.454  41.919  1.00  0.00     0.037 A 
ATOM     32  O   UNL     1      28.596  61.410  43.433  1.00  0.00    -0.289 OA
ATOM     33  O   UNL     1      27.267  57.083  40.688  1.00  0.00    -0.288 OA
ATOM     34  C   UNL     1      26.723  59.315  41.188  1.00  0.00     0.076 A 
ATOM     35  C   UNL     1      26.358  61.630  41.817  1.00  0.00     0.013 A 
ATOM     36  C   UNL     1      25.575  59.362  40.350  1.00  0.00     0.133 A 
ATOM     37  C   UNL     1      25.253  61.691  40.986  1.00  0.00     0.011 A 
ATOM     38  C   UNL     1      24.838  60.574  40.243  1.00  0.00     0.023 A 
ATOM     39  C   UNL     1      29.256  56.036  45.582  1.00  0.00     0.043 C 
BRANCH  22  40
ATOM     40  O   UNL     1      32.593  58.123  43.242  1.00  0.00    -0.382 OA
ATOM     41  H   UNL     1      32.616  59.045  42.871  1.00  0.00     0.212 HD
ENDBRANCH  22  40
BRANCH  24  42
ATOM     42  O   UNL     1      31.310  60.239  43.201  1.00  0.00    -0.374 OA
ATOM     43  H   UNL     1      31.397  60.987  43.843  1.00  0.00     0.212 HD
ENDBRANCH  24  42
BRANCH  36  44
ATOM     44  O   UNL     1      25.240  58.256  39.646  1.00  0.00    -0.507 OA
ATOM     45  H   UNL     1      25.145  57.365  40.000  1.00  0.00     0.293 HD
ENDBRANCH  36  44
BRANCH  38  46
ATOM     46  C   UNL     1      23.648  60.776  39.324  1.00  0.00     0.155 C 
ATOM     47  C   UNL     1      24.139  61.605  38.109  1.00  0.00     0.072 C 
ATOM     48  O   UNL     1      22.599  61.419  40.028  1.00  0.00    -0.368 OA
ATOM     49  C   UNL     1      23.013  62.419  37.471  1.00  0.00     0.153 C 
ATOM     50  C   UNL     1      21.433  61.651  39.226  1.00  0.00     0.147 C 
ATOM     51  O   UNL     1      23.314  62.646  36.108  1.00  0.00    -0.366 OA
ATOM     52  C   UNL     1      21.676  61.680  37.683  1.00  0.00     0.179 C 
ATOM     53  C   UNL     1      22.191  63.098  35.363  1.00  0.00     0.182 C 
ATOM     54  O   UNL     1      20.556  62.282  37.036  1.00  0.00    -0.341 OA
ATOM     55  C   UNL     1      21.860  62.065  34.285  1.00  0.00     0.116 C 
ATOM     56  C   UNL     1      20.917  63.389  36.226  1.00  0.00     0.280 C 
ATOM     57  C   UNL     1      20.683  62.604  33.549  1.00  0.00     0.164 C 
ATOM     58  O   UNL     1      19.805  63.829  35.445  1.00  0.00    -0.339 OA
ATOM     59  O   UNL     1      20.746  62.850  32.354  1.00  0.00    -0.297 OA
ATOM     60  C   UNL     1      19.467  62.966  34.358  1.00  0.00     0.185 C 
ATOM     61  C   UNL     1      20.332  60.658  39.596  1.00  0.00     0.041 C 
ATOM     62  C   UNL     1      18.682  61.733  34.822  1.00  0.00     0.047 C 
ENDBRANCH  38  46
ENDBRANCH  17  18
ENDBRANCH   4  17
TORSDOF 8
ENDMDL
MODEL 9
REMARK VINA RESULT:   -13.234      2.137     15.536
REMARK INTER + INTRA:         -19.669
REMARK INTER:                 -18.318
REMARK INTRA:                  -1.351
REMARK UNBOUND:                -1.406
REMARK SMILES C[C@@H]1O[C@H](O[C@@]2(C)CC(=O)[C@]3(O)C4=C(C=C[C@]3(O)C2)C(=O)c2c(ccc([C@@H]3C[C@H]5O[C@H]6CC(=O)[C@@H](C)O[C@H]6O[C@@H]5[C@@H](C)O3)c2O)C4=O)CC[C@H]1O[C@@H]1CCC(=O)[C@@H](C)O1
REMARK SMILES IDX 50 1 49 2 48 3 4 4 3 5 2 6 1 7 51 8 52 9 57 10 59 11 55 12
REMARK SMILES IDX 54 13 56 14 53 15 58 16 5 17 6 18 8 19 19 20 9 21 17 22
REMARK SMILES IDX 10 23 11 24 16 25 13 26 15 27 14 28 46 29 20 30 23 31 47 32
REMARK SMILES IDX 21 33 22 34 24 35 44 36 25 37 26 38 7 39 18 40 12 42 45 44
REMARK SMILES IDX 27 46 28 47 43 48 29 49 41 50 30 51 40 52 31 53 39 54 32 55
REMARK SMILES IDX 38 56 33 57 37 58 34 59 35 60 42 61 36 62
REMARK H PARENT 18 41 12 43 45 45
ROOT
ATOM      1  C   UNL     1      21.756  61.775  38.140  1.00  0.00     0.150 C 
ATOM      2  C   UNL     1      21.070  61.124  39.340  1.00  0.00     0.040 C 
ATOM      3  C   UNL     1      21.965  59.995  39.845  1.00  0.00     0.065 C 
ATOM      4  C   UNL     1      23.376  60.535  40.153  1.00  0.00     0.251 C 
ATOM      5  O   UNL     1      23.936  61.171  39.013  1.00  0.00    -0.347 OA
ATOM      6  C   UNL     1      23.146  62.273  38.591  1.00  0.00     0.147 C 
ATOM      7  C   UNL     1      23.876  62.972  37.443  1.00  0.00     0.041 C 
ENDROOT
BRANCH   1   8
ATOM      8  O   UNL     1      20.969  62.857  37.654  1.00  0.00    -0.347 OA
BRANCH   8   9
ATOM      9  C   UNL     1      20.213  62.491  36.508  1.00  0.00     0.251 C 
ATOM     10  C   UNL     1      19.960  63.743  34.466  1.00  0.00     0.185 C 
ATOM     11  O   UNL     1      19.717  63.678  35.869  1.00  0.00    -0.342 OA
ATOM     12  C   UNL     1      19.634  62.416  33.801  1.00  0.00     0.161 C 
ATOM     13  C   UNL     1      20.244  61.178  34.388  1.00  0.00     0.084 C 
ATOM     14  O   UNL     1      18.856  62.333  32.862  1.00  0.00    -0.297 OA
ATOM     15  C   UNL     1      21.078  61.574  35.610  1.00  0.00     0.070 C 
ATOM     16  C   UNL     1      19.157  64.898  33.867  1.00  0.00     0.047 C 
ENDBRANCH   8   9
ENDBRANCH   1   8
BRANCH   4  17
ATOM     17  O   UNL     1      24.199  59.420  40.460  1.00  0.00    -0.346 OA
BRANCH  17  18
ATOM     18  C   UNL     1      25.339  59.679  41.275  1.00  0.00     0.079 C 
ATOM     19  C   UNL     1      25.779  58.413  42.089  1.00  0.00     0.114 C 
ATOM     20  C   UNL     1      26.508  60.248  40.387  1.00  0.00     0.079 C 
ATOM     21  C   UNL     1      27.155  57.993  41.661  1.00  0.00     0.175 C 
ATOM     22  C   UNL     1      27.898  60.374  41.092  1.00  0.00     0.126 C 
ATOM     23  O   UNL     1      27.329  56.902  41.139  1.00  0.00    -0.296 OA
ATOM     24  C   UNL     1      28.296  59.005  41.837  1.00  0.00     0.185 C 
ATOM     25  C   UNL     1      27.884  61.591  41.984  1.00  0.00     0.012 C 
ATOM     26  C   UNL     1      28.555  59.144  43.357  1.00  0.00     0.054 C 
ATOM     27  C   UNL     1      28.147  61.572  43.282  1.00  0.00     0.011 C 
ATOM     28  C   UNL     1      28.478  60.333  44.003  1.00  0.00     0.033 C 
ATOM     29  C   UNL     1      28.906  57.918  44.150  1.00  0.00     0.194 C 
ATOM     30  C   UNL     1      28.733  60.436  45.473  1.00  0.00     0.198 C 
ATOM     31  C   UNL     1      29.213  58.005  45.595  1.00  0.00     0.037 A 
ATOM     32  O   UNL     1      28.949  56.825  43.604  1.00  0.00    -0.289 OA
ATOM     33  O   UNL     1      28.639  61.526  46.019  1.00  0.00    -0.288 OA
ATOM     34  C   UNL     1      29.127  59.239  46.264  1.00  0.00     0.076 A 
ATOM     35  C   UNL     1      29.610  56.861  46.293  1.00  0.00     0.013 A 
ATOM     36  C   UNL     1      29.441  59.319  47.649  1.00  0.00     0.133 A 
ATOM     37  C   UNL     1      29.940  56.935  47.635  1.00  0.00     0.011 A 
ATOM     38  C   UNL     1      29.863  58.149  48.338  1.00  0.00     0.023 A 
ATOM     39  C   UNL     1      24.844  60.739  42.280  1.00  0.00     0.043 C 
BRANCH  22  40
ATOM     40  O   UNL     1      28.865  60.630  40.093  1.00  0.00    -0.382 OA
ATOM     41  H   UNL     1      28.477  61.245  39.415  1.00  0.00     0.212 HD
ENDBRANCH  22  40
BRANCH  24  42
ATOM     42  O   UNL     1      29.486  58.524  41.235  1.00  0.00    -0.374 OA
ATOM     43  H   UNL     1      29.553  58.830  40.296  1.00  0.00     0.212 HD
ENDBRANCH  24  42
BRANCH  36  44
ATOM     44  O   UNL     1      29.366  60.522  48.263  1.00  0.00    -0.507 OA
ATOM     45  H   UNL     1      29.575  60.702  49.186  1.00  0.00     0.293 HD
ENDBRANCH  36  44
BRANCH  38  46
ATOM     46  C   UNL     1      30.305  58.119  49.789  1.00  0.00     0.155 C 
ATOM     47  C   UNL     1      30.031  56.690  50.327  1.00  0.00     0.072 C 
ATOM     48  O   UNL     1      29.611  59.114  50.524  1.00  0.00    -0.368 OA
ATOM     49  C   UNL     1      29.799  56.675  51.837  1.00  0.00     0.153 C 
ATOM     50  C   UNL     1      29.969  59.151  51.912  1.00  0.00     0.147 C 
ATOM     51  O   UNL     1      30.153  55.407  52.352  1.00  0.00    -0.366 OA
ATOM     52  C   UNL     1      30.588  57.834  52.479  1.00  0.00     0.179 C 
ATOM     53  C   UNL     1      30.286  55.403  53.767  1.00  0.00     0.182 C 
ATOM     54  O   UNL     1      30.545  57.864  53.905  1.00  0.00    -0.341 OA
ATOM     55  C   UNL     1      31.731  55.061  54.132  1.00  0.00     0.116 C 
ATOM     56  C   UNL     1      29.870  56.746  54.459  1.00  0.00     0.280 C 
ATOM     57  C   UNL     1      31.792  55.074  55.620  1.00  0.00     0.164 C 
ATOM     58  O   UNL     1      30.027  56.712  55.878  1.00  0.00    -0.339 OA
ATOM     59  O   UNL     1      32.098  54.070  56.246  1.00  0.00    -0.297 OA
ATOM     60  C   UNL     1      31.329  56.321  56.321  1.00  0.00     0.185 C 
ATOM     61  C   UNL     1      30.870  60.354  52.192  1.00  0.00     0.041 C 
ATOM     62  C   UNL     1      32.342  57.467  56.213  1.00  0.00     0.047 C 
ENDBRANCH  38  46
ENDBRANCH  17  18
ENDBRANCH   4  17
TORSDOF 8
ENDMDL
