REMARK  Name = 
REMARK  23 active torsions:
REMARK  status: ('A' for Active; 'I' for Inactive)
REMARK    1  A    between atoms: C_1  and  C_2
REMARK    2  A    between atoms: C_4  and  O_5
REMARK    3  A    between atoms: O_5  and  C_6
REMARK    4  A    between atoms: C_9  and  C_10
REMARK    5  A    between atoms: C_18  and  C_19
REMARK    6  A    between atoms: C_20  and  C_21
REMARK    7  A    between atoms: C_29  and  O_30
REMARK    8  A    between atoms: C_33  and  O_34
REMARK    9  A    between atoms: C_35  and  O_36
REMARK   10  A    between atoms: O_36  and  C_37
REMARK   11  A    between atoms: C_39  and  O_40
REMARK   12  A    between atoms: C_41  and  O_42
REMARK   13  A    between atoms: O_42  and  C_43
REMARK   14  A    between atoms: C_45  and  O_46
REMARK   15  A    between atoms: C_47  and  O_48
REMARK   16  A    between atoms: O_48  and  C_49
REMARK   17  A    between atoms: C_51  and  C_52
REMARK   18  A    between atoms: C_52  and  O_53
REMARK   19  A    between atoms: C_54  and  O_55
REMARK   20  A    between atoms: C_56  and  O_57
REMARK   21  A    between atoms: C_58  and  O_59
REMARK   22  A    between atoms: C_60  and  C_61
REMARK   23  A    between atoms: C_63  and  C_64
REMARK                            x       y       z     vdW  Elec       q    Type
REMARK                         _______ _______ _______ _____ _____    ______ ____
ROOT
ATOM      1  C   UNL     1      19.323  61.088  33.610  0.00  0.00    +0.000 C 
ATOM      2  C   UNL     1      19.001  62.578  33.873  0.00  0.00    +0.000 C 
ATOM      3  O   UNL     1      19.021  62.882  35.255  0.00  0.00    +0.000 OA
ATOM      4  C   UNL     1      20.328  62.838  35.839  0.00  0.00    +0.000 C 
ATOM      5  C   UNL     1      21.510  63.126  34.870  0.00  0.00    +0.000 C 
ATOM      6  C   UNL     1      21.035  64.161  33.871  0.00  0.00    +0.000 C 
ATOM      7  C   UNL     1      19.841  63.603  33.055  0.00  0.00    +0.000 C 
ENDROOT
BRANCH   6   8
ATOM      8  O   UNL     1      22.062  64.616  33.028  0.00  0.00    +0.000 OA
ATOM      9  H   UNL     1      22.133  63.971  32.275  0.00  0.00    +0.000 HD
ENDBRANCH   6   8
BRANCH   4  10
ATOM     10  O   UNL     1      20.516  61.566  36.406  0.00  0.00    +0.000 OA
BRANCH  10  11
ATOM     11  C   UNL     1      21.008  61.560  37.728  0.00  0.00    +0.000 C 
ATOM     12  C   UNL     1      21.118  60.085  38.139  0.00  0.00    +0.000 C 
ATOM     13  C   UNL     1      21.952  59.897  39.413  0.00  0.00    +0.000 C 
ATOM     14  C   UNL     1      23.382  60.521  39.268  0.00  0.00    +0.000 C 
ATOM     15  C   UNL     1      24.138  59.823  38.083  0.00  0.00    +0.000 C 
ATOM     16  C   UNL     1      23.148  62.059  39.027  0.00  0.00    +0.000 C 
ATOM     17  C   UNL     1      24.457  62.875  39.038  0.00  0.00    +0.000 C 
ATOM     18  C   UNL     1      25.237  62.664  40.349  0.00  0.00    +0.000 C 
ATOM     19  C   UNL     1      25.555  61.168  40.510  0.00  0.00    +0.000 C 
ATOM     20  C   UNL     1      24.205  60.357  40.605  0.00  0.00    +0.000 C 
ATOM     21  C   UNL     1      24.441  58.878  41.048  0.00  0.00    +0.000 C 
ATOM     22  C   UNL     1      25.869  58.436  40.774  0.00  0.00    +0.000 C 
ATOM     23  C   UNL     1      26.965  59.275  41.531  0.00  0.00    +0.000 C 
ATOM     24  C   UNL     1      28.268  59.017  40.721  0.00  0.00    +0.000 C 
ATOM     25  C   UNL     1      27.204  58.916  43.029  0.00  0.00    +0.000 C 
ATOM     26  C   UNL     1      26.188  59.725  43.828  0.00  0.00    +0.000 C 
ATOM     27  C   UNL     1      26.036  61.046  43.076  0.00  0.00    +0.000 C 
ATOM     28  C   UNL     1      26.574  60.811  41.628  0.00  0.00    +0.000 C 
ATOM     29  C   UNL     1      22.365  62.292  37.718  0.00  0.00    +0.000 C 
BRANCH  25  30
ATOM     30  C   UNL     1      27.182  57.435  43.383  0.00  0.00    +0.000 C 
ATOM     31  C   UNL     1      28.253  56.655  43.410  0.00  0.00    +0.000 C 
ATOM     32  C   UNL     1      27.778  55.346  43.797  0.00  0.00    +0.000 C 
ATOM     33  O   UNL     1      28.475  54.352  43.913  0.00  0.00    +0.000 OA
ATOM     34  O   UNL     1      26.456  55.355  44.021  0.00  0.00    +0.000 OA
ATOM     35  C   UNL     1      25.962  56.624  43.794  0.00  0.00    +0.000 C 
ENDBRANCH  25  30
BRANCH  28  36
ATOM     36  O   UNL     1      27.722  61.619  41.439  0.00  0.00    +0.000 OA
ATOM     37  H   UNL     1      28.442  61.071  41.029  0.00  0.00    +0.000 HD
ENDBRANCH  28  36
ENDBRANCH  10  11
ENDBRANCH   4  10
BRANCH   7  38
ATOM     38  O   UNL     1      19.009  64.706  32.754  0.00  0.00    +0.000 OA
BRANCH  38  39
ATOM     39  C   UNL     1      17.717  64.364  32.290  0.00  0.00    +0.000 C 
ATOM     40  C   UNL     1      16.736  65.332  32.977  0.00  0.00    +0.000 C 
ATOM     41  C   UNL     1      15.337  65.194  32.366  0.00  0.00    +0.000 C 
ATOM     42  C   UNL     1      15.449  65.370  30.841  0.00  0.00    +0.000 C 
ATOM     43  C   UNL     1      16.443  64.310  30.321  0.00  0.00    +0.000 C 
ATOM     44  C   UNL     1      16.585  64.375  28.800  0.00  0.00    +0.000 C 
ATOM     45  O   UNL     1      17.725  64.547  30.884  0.00  0.00    +0.000 OA
BRANCH  41  46
ATOM     46  O   UNL     1      14.449  66.123  32.931  0.00  0.00    +0.000 OA
ATOM     47  H   UNL     1      14.610  67.001  32.495  0.00  0.00    +0.000 HD
ENDBRANCH  41  46
BRANCH  42  48
ATOM     48  O   UNL     1      14.167  65.201  30.238  0.00  0.00    +0.000 OA
BRANCH  48  49
ATOM     49  C   UNL     1      13.680  66.395  29.638  0.00  0.00    +0.000 C 
ATOM     50  C   UNL     1      12.897  66.023  28.356  0.00  0.00    +0.000 C 
ATOM     51  C   UNL     1      12.309  67.305  27.786  0.00  0.00    +0.000 C 
ATOM     52  C   UNL     1      11.452  68.067  28.829  0.00  0.00    +0.000 C 
ATOM     53  C   UNL     1      11.631  67.516  30.282  0.00  0.00    +0.000 C 
ATOM     54  C   UNL     1      10.643  66.406  30.683  0.00  0.00    +0.000 C 
ATOM     55  O   UNL     1      12.969  67.153  30.621  0.00  0.00    +0.000 OA
BRANCH  51  56
ATOM     56  O   UNL     1      11.608  67.095  26.588  0.00  0.00    +0.000 OA
ATOM     57  H   UNL     1      12.270  66.798  25.911  0.00  0.00    +0.000 HD
ENDBRANCH  51  56
BRANCH  52  58
ATOM     58  O   UNL     1      11.871  69.420  28.842  0.00  0.00    +0.000 OA
BRANCH  58  59
ATOM     59  C   UNL     1      11.262  70.235  29.833  0.00  0.00    +0.000 C 
ATOM     60  O   UNL     1      12.213  71.170  30.345  0.00  0.00    +0.000 OA
ATOM     61  C   UNL     1      12.673  72.127  29.384  0.00  0.00    +0.000 C 
ATOM     62  C   UNL     1      11.506  72.873  28.661  0.00  0.00    +0.000 C 
ATOM     63  C   UNL     1      10.458  71.880  28.106  0.00  0.00    +0.000 C 
ATOM     64  C   UNL     1      10.011  70.953  29.249  0.00  0.00    +0.000 C 
BRANCH  62  65
ATOM     65  O   UNL     1      10.862  73.795  29.515  0.00  0.00    +0.000 OA
ATOM     66  H   UNL     1       9.944  73.979  29.189  0.00  0.00    +0.000 HD
ENDBRANCH  62  65
BRANCH  63  67
ATOM     67  O   UNL     1      10.978  71.097  27.058  0.00  0.00    +0.000 OA
ATOM     68  H   UNL     1      10.809  71.571  26.204  0.00  0.00    +0.000 HD
ENDBRANCH  63  67
BRANCH  64  69
ATOM     69  O   UNL     1       9.302  71.692  30.223  0.00  0.00    +0.000 OA
ATOM     70  H   UNL     1       9.908  71.970  30.959  0.00  0.00    +0.000 HD
ENDBRANCH  64  69
BRANCH  61  71
ATOM     71  C   UNL     1      13.758  71.558  28.440  0.00  0.00    +0.000 C 
BRANCH  71  72
ATOM     72  O   UNL     1      14.691  70.810  29.172  0.00  0.00    +0.000 OA
ATOM     73  H   UNL     1      15.084  71.425  29.846  0.00  0.00    +0.000 HD
ENDBRANCH  71  72
ENDBRANCH  61  71
ENDBRANCH  58  59
ENDBRANCH  52  58
ENDBRANCH  48  49
ENDBRANCH  42  48
ENDBRANCH  38  39
ENDBRANCH   7  38
TORSDOF 18
