REMARK  Name = 
REMARK  14 active torsions:
REMARK  status: ('A' for Active; 'I' for Inactive)
REMARK    1  A    between atoms: C_1  and  C_2
REMARK    2  A    between atoms: C_4  and  O_5
REMARK    3  A    between atoms: O_5  and  C_6
REMARK    4  A    between atoms: C_9  and  O_10
REMARK    5  A    between atoms: O_10  and  C_11
REMARK    6  A    between atoms: C_11  and  C_12
REMARK    7  A    between atoms: C_16  and  O_17
REMARK    8  A    between atoms: C_22  and  O_23
REMARK    9  A    between atoms: C_31  and  C_32
REMARK   10  A    between atoms: C_40  and  C_41
REMARK   11  A    between atoms: C_46  and  C_47
REMARK   12  A    between atoms: C_49  and  O_50
REMARK   13  A    between atoms: C_54  and  C_55
REMARK   14  A    between atoms: C_56  and  N_57
REMARK                            x       y       z     vdW  Elec       q    Type
REMARK                         _______ _______ _______ _____ _____    ______ ____
ROOT
ATOM      1  C   UNL     1      20.165  61.633  34.585  0.00  0.00    +0.000 C 
ATOM      2  C   UNL     1      19.541  60.222  34.449  0.00  0.00    +0.000 C 
ATOM      3  C   UNL     1      21.686  61.510  34.289  0.00  0.00    +0.000 C 
ATOM      4  C   UNL     1      22.389  61.145  35.559  0.00  0.00    +0.000 C 
ATOM      5  O   UNL     1      22.823  60.013  35.710  0.00  0.00    +0.000 OA
ATOM      6  C   UNL     1      22.471  62.225  36.658  0.00  0.00    +0.000 C 
ATOM      7  C   UNL     1      23.105  61.664  37.960  0.00  0.00    +0.000 C 
ATOM      8  C   UNL     1      22.497  61.801  39.161  0.00  0.00    +0.000 C 
ATOM      9  C   UNL     1      21.209  62.506  39.291  0.00  0.00    +0.000 C 
ATOM     10  C   UNL     1      20.552  63.008  38.254  0.00  0.00    +0.000 C 
ATOM     11  C   UNL     1      21.012  62.900  36.816  0.00  0.00    +0.000 C 
ATOM     12  C   UNL     1      19.893  62.076  36.081  0.00  0.00    +0.000 C 
ATOM     13  C   UNL     1      23.128  61.291  40.415  0.00  0.00    +0.000 C 
ATOM     14  O   UNL     1      22.529  61.431  41.472  0.00  0.00    +0.000 OA
ATOM     15  C   UNL     1      24.471  60.639  40.396  0.00  0.00    +0.000 A 
ATOM     16  C   UNL     1      25.119  60.506  39.161  0.00  0.00    +0.000 A 
ATOM     17  C   UNL     1      26.391  59.920  39.112  0.00  0.00    +0.000 A 
ATOM     18  C   UNL     1      27.018  59.471  40.273  0.00  0.00    +0.000 A 
ATOM     19  C   UNL     1      26.402  59.586  41.533  0.00  0.00    +0.000 A 
ATOM     20  C   UNL     1      25.100  60.189  41.589  0.00  0.00    +0.000 A 
ATOM     21  C   UNL     1      24.467  61.008  37.920  0.00  0.00    +0.000 C 
ATOM     22  O   UNL     1      25.065  60.910  36.858  0.00  0.00    +0.000 OA
ENDROOT
BRANCH  19  23
ATOM     23  C   UNL     1      27.213  59.065  42.736  0.00  0.00    +0.000 C 
ATOM     24  C   UNL     1      26.821  57.582  42.977  0.00  0.00    +0.000 C 
ATOM     25  C   UNL     1      27.676  56.886  44.056  0.00  0.00    +0.000 C 
ATOM     26  O   UNL     1      26.923  56.418  45.164  0.00  0.00    +0.000 OA
ATOM     27  C   UNL     1      26.699  57.418  46.143  0.00  0.00    +0.000 C 
ATOM     28  C   UNL     1      26.146  56.755  47.414  0.00  0.00    +0.000 C 
ATOM     29  C   UNL     1      27.244  55.986  48.098  0.00  0.00    +0.000 C 
ATOM     30  O   UNL     1      27.027  55.415  49.157  0.00  0.00    +0.000 OA
ATOM     31  C   UNL     1      28.630  56.035  47.482  0.00  0.00    +0.000 C 
ATOM     32  C   UNL     1      29.688  55.364  48.360  0.00  0.00    +0.000 C 
ATOM     33  O   UNL     1      29.005  57.385  47.243  0.00  0.00    +0.000 OA
ATOM     34  C   UNL     1      28.019  58.155  46.529  0.00  0.00    +0.000 C 
ATOM     35  O   UNL     1      28.584  58.732  45.375  0.00  0.00    +0.000 OA
ATOM     36  C   UNL     1      28.917  57.713  44.453  0.00  0.00    +0.000 C 
ATOM     37  C   UNL     1      29.511  58.386  43.203  0.00  0.00    +0.000 C 
ATOM     38  C   UNL     1      30.088  57.378  42.198  0.00  0.00    +0.000 C 
ATOM     39  O   UNL     1      28.611  59.277  42.543  0.00  0.00    +0.000 OA
ENDBRANCH  19  23
BRANCH   6  40
ATOM     40  O   UNL     1      23.342  63.252  36.221  0.00  0.00    +0.000 OA
ATOM     41  H   UNL     1      22.816  64.024  35.882  0.00  0.00    +0.000 HD
ENDBRANCH   6  40
BRANCH  11  42
ATOM     42  O   UNL     1      21.064  64.211  36.305  0.00  0.00    +0.000 OA
ATOM     43  H   UNL     1      21.959  64.362  35.898  0.00  0.00    +0.000 HD
ENDBRANCH  11  42
BRANCH  20  44
ATOM     44  O   UNL     1      24.429  60.400  42.745  0.00  0.00    +0.000 OA
ATOM     45  H   UNL     1      23.529  60.159  42.967  0.00  0.00    +0.000 HD
ENDBRANCH  20  44
BRANCH   1  46
ATOM     46  O   UNL     1      19.499  62.391  33.569  0.00  0.00    +0.000 OA
BRANCH  46  50
ATOM     47  C   UNL     1      18.166  63.842  31.349  0.00  0.00    +0.000 C 
ATOM     48  C   UNL     1      19.286  64.866  31.426  0.00  0.00    +0.000 C 
ATOM     49  C   UNL     1      20.223  64.512  32.592  0.00  0.00    +0.000 C 
ATOM     50  C   UNL     1      19.482  63.796  33.749  0.00  0.00    +0.000 C 
ATOM     51  O   UNL     1      18.145  64.248  33.851  0.00  0.00    +0.000 OA
ATOM     52  C   UNL     1      17.350  63.927  32.695  0.00  0.00    +0.000 C 
ATOM     53  C   UNL     1      16.248  64.995  32.623  0.00  0.00    +0.000 C 
BRANCH  47  54
ATOM     54  O   UNL     1      17.345  64.143  30.229  0.00  0.00    +0.000 OA
BRANCH  54  58
ATOM     55  C   UNL     1      18.802  65.738  26.636  0.00  0.00    +0.000 C 
ATOM     56  C   UNL     1      17.979  65.271  27.836  0.00  0.00    +0.000 C 
ATOM     57  O   UNL     1      18.450  63.968  28.201  0.00  0.00    +0.000 OA
ATOM     58  C   UNL     1      17.564  63.316  29.094  0.00  0.00    +0.000 C 
ATOM     59  C   UNL     1      16.243  63.058  28.403  0.00  0.00    +0.000 C 
ATOM     60  C   UNL     1      15.714  64.041  27.664  0.00  0.00    +0.000 C 
ATOM     61  C   UNL     1      16.499  65.271  27.469  0.00  0.00    +0.000 C 
ATOM     62  O   UNL     1      15.970  66.266  26.999  0.00  0.00    +0.000 OA
BRANCH  59  63
ATOM     63  N   UNL     1      15.568  61.820  28.562  0.00  0.00    +0.000 N 
ATOM     64  H   UNL     1      15.403  61.208  27.749  0.00  0.00    +0.000 HD
ATOM     65  H   UNL     1      15.233  61.515  29.488  0.00  0.00    +0.000 HD
ENDBRANCH  59  63
ENDBRANCH  54  58
ENDBRANCH  47  54
ENDBRANCH  46  50
ENDBRANCH   1  46
TORSDOF 9
