REMARK  Name = 
REMARK  22 active torsions:
REMARK  status: ('A' for Active; 'I' for Inactive)
REMARK    1  A    between atoms: C_1  and  C_2
REMARK    2  A    between atoms: C_3  and  C_4
REMARK    3  A    between atoms: C_8  and  C_9
REMARK    4  A    between atoms: C_9  and  C_10
REMARK    5  A    between atoms: C_9  and  C_11
REMARK    6  A    between atoms: C_12  and  O_13
REMARK    7  A    between atoms: C_20  and  O_21
REMARK    8  A    between atoms: C_23  and  O_24
REMARK    9  A    between atoms: O_24  and  C_25
REMARK   10  A    between atoms: C_27  and  C_28
REMARK   11  A    between atoms: C_28  and  O_29
REMARK   12  A    between atoms: C_30  and  O_31
REMARK   13  A    between atoms: O_31  and  C_32
REMARK   14  A    between atoms: C_34  and  C_35
REMARK   15  A    between atoms: C_36  and  O_37
REMARK   16  A    between atoms: C_38  and  O_39
REMARK   17  A    between atoms: C_40  and  O_41
REMARK   18  A    between atoms: C_42  and  O_43
REMARK   19  A    between atoms: C_44  and  O_45
REMARK   20  A    between atoms: C_47  and  O_48
REMARK   21  A    between atoms: C_49  and  C_50
REMARK   22  A    between atoms: C_54  and  C_55
REMARK                            x       y       z     vdW  Elec       q    Type
REMARK                         _______ _______ _______ _____ _____    ______ ____
ROOT
ATOM      1  C   UNL     1      29.661  59.890  48.273  0.00  0.00    +0.000 C 
ATOM      2  C   UNL     1      28.324  59.490  49.009  0.00  0.00    +0.000 C 
ATOM      3  C   UNL     1      27.341  58.998  47.915  0.00  0.00    +0.000 C 
ATOM      4  C   UNL     1      27.888  59.653  46.663  0.00  0.00    +0.000 C 
ATOM      5  C   UNL     1      27.326  59.184  45.298  0.00  0.00    +0.000 C 
ATOM      6  C   UNL     1      25.806  59.487  45.180  0.00  0.00    +0.000 C 
ATOM      7  O   UNL     1      24.981  58.368  44.958  0.00  0.00    +0.000 OA
ATOM      8  C   UNL     1      25.225  59.183  43.827  0.00  0.00    +0.000 C 
ATOM      9  C   UNL     1      26.218  58.564  42.804  0.00  0.00    +0.000 C 
ATOM     10  C   UNL     1      25.582  58.309  41.400  0.00  0.00    +0.000 C 
ATOM     11  C   UNL     1      25.362  59.533  40.490  0.00  0.00    +0.000 C 
ATOM     12  C   UNL     1      26.604  60.449  40.441  0.00  0.00    +0.000 C 
ATOM     13  C   UNL     1      27.177  60.791  41.843  0.00  0.00    +0.000 C 
ATOM     14  C   UNL     1      27.508  59.497  42.688  0.00  0.00    +0.000 C 
ATOM     15  C   UNL     1      28.621  58.685  41.935  0.00  0.00    +0.000 C 
ATOM     16  C   UNL     1      28.037  59.954  44.142  0.00  0.00    +0.000 C 
ATOM     17  C   UNL     1      29.590  59.968  44.292  0.00  0.00    +0.000 C 
ATOM     18  C   UNL     1      30.054  60.366  45.701  0.00  0.00    +0.000 C 
ATOM     19  C   UNL     1      29.427  59.441  46.789  0.00  0.00    +0.000 C 
ATOM     20  C   UNL     1      29.882  57.960  46.605  0.00  0.00    +0.000 C 
ENDROOT
BRANCH   1  21
ATOM     21  C   UNL     1      31.035  59.751  49.068  0.00  0.00    +0.000 C 
ATOM     22  C   UNL     1      32.258  59.276  48.244  0.00  0.00    +0.000 C 
BRANCH  21  30
ATOM     23  C   UNL     1      29.443  60.265  53.154  0.00  0.00    +0.000 C 
ATOM     24  C   UNL     1      30.658  60.588  52.316  0.00  0.00    +0.000 C 
ATOM     25  C   UNL     1      31.949  60.284  52.637  0.00  0.00    +0.000 C 
ATOM     26  C   UNL     1      32.392  59.590  53.910  0.00  0.00    +0.000 C 
ATOM     27  C   UNL     1      33.007  60.631  51.647  0.00  0.00    +0.000 C 
ATOM     28  O   UNL     1      34.187  60.502  51.931  0.00  0.00    +0.000 OA
ATOM     29  O   UNL     1      32.669  61.010  50.383  0.00  0.00    +0.000 OA
ATOM     30  C   UNL     1      31.371  61.039  49.896  0.00  0.00    +0.000 C 
ATOM     31  C   UNL     1      30.405  61.379  51.050  0.00  0.00    +0.000 C 
ENDBRANCH  21  30
ENDBRANCH   1  21
BRANCH   2  32
ATOM     32  O   UNL     1      28.440  58.563  50.057  0.00  0.00    +0.000 OA
ATOM     33  H   UNL     1      28.735  59.046  50.872  0.00  0.00    +0.000 HD
ENDBRANCH   2  32
BRANCH   9  34
ATOM     34  O   UNL     1      26.622  57.293  43.282  0.00  0.00    +0.000 OA
ATOM     35  H   UNL     1      26.165  56.592  42.745  0.00  0.00    +0.000 HD
ENDBRANCH   9  34
BRANCH  13  36
ATOM     36  O   UNL     1      26.351  61.699  42.541  0.00  0.00    +0.000 OA
ATOM     37  H   UNL     1      26.726  61.886  43.431  0.00  0.00    +0.000 HD
ENDBRANCH  13  36
BRANCH  11  38
ATOM     38  O   UNL     1      24.182  60.265  40.829  0.00  0.00    +0.000 OA
BRANCH  38  39
ATOM     39  C   UNL     1      23.762  61.069  39.727  0.00  0.00    +0.000 C 
ATOM     40  O   UNL     1      23.892  60.318  38.532  0.00  0.00    +0.000 OA
ATOM     41  C   UNL     1      23.778  61.164  37.398  0.00  0.00    +0.000 C 
ATOM     42  C   UNL     1      22.366  61.818  37.319  0.00  0.00    +0.000 C 
ATOM     43  C   UNL     1      22.016  62.483  38.674  0.00  0.00    +0.000 C 
ATOM     44  C   UNL     1      22.304  61.530  39.863  0.00  0.00    +0.000 C 
BRANCH  43  45
ATOM     45  O   UNL     1      20.688  62.938  38.698  0.00  0.00    +0.000 OA
ATOM     46  H   UNL     1      20.688  63.871  38.359  0.00  0.00    +0.000 HD
ENDBRANCH  43  45
BRANCH  44  47
ATOM     47  O   UNL     1      22.085  62.182  41.091  0.00  0.00    +0.000 OA
ATOM     48  H   UNL     1      22.645  63.002  41.106  0.00  0.00    +0.000 HD
ENDBRANCH  44  47
BRANCH  41  49
ATOM     49  C   UNL     1      24.060  60.303  36.155  0.00  0.00    +0.000 C 
BRANCH  49  50
ATOM     50  O   UNL     1      25.252  59.577  36.306  0.00  0.00    +0.000 OA
ATOM     51  H   UNL     1      25.185  58.776  35.722  0.00  0.00    +0.000 HD
ENDBRANCH  49  50
ENDBRANCH  41  49
BRANCH  42  52
ATOM     52  O   UNL     1      22.420  62.819  36.310  0.00  0.00    +0.000 OA
BRANCH  52  53
ATOM     53  C   UNL     1      21.373  62.782  35.355  0.00  0.00    +0.000 C 
ATOM     54  O   UNL     1      20.300  63.569  35.854  0.00  0.00    +0.000 OA
ATOM     55  C   UNL     1      19.235  63.641  34.916  0.00  0.00    +0.000 C 
ATOM     56  C   UNL     1      18.182  64.629  35.426  0.00  0.00    +0.000 C 
ATOM     57  C   UNL     1      18.612  62.237  34.677  0.00  0.00    +0.000 C 
ATOM     58  C   UNL     1      19.731  61.290  34.192  0.00  0.00    +0.000 C 
ATOM     59  C   UNL     1      20.915  61.300  35.179  0.00  0.00    +0.000 C 
BRANCH  57  60
ATOM     60  O   UNL     1      17.967  61.726  35.824  0.00  0.00    +0.000 OA
ATOM     61  H   UNL     1      17.005  61.963  35.795  0.00  0.00    +0.000 HD
ENDBRANCH  57  60
BRANCH  58  62
ATOM     62  O   UNL     1      19.255  59.990  33.948  0.00  0.00    +0.000 OA
ATOM     63  H   UNL     1      20.036  59.381  33.888  0.00  0.00    +0.000 HD
ENDBRANCH  58  62
BRANCH  59  64
ATOM     64  O   UNL     1      20.525  60.694  36.394  0.00  0.00    +0.000 OA
ATOM     65  H   UNL     1      19.542  60.742  36.505  0.00  0.00    +0.000 HD
ENDBRANCH  59  64
ENDBRANCH  52  53
ENDBRANCH  42  52
ENDBRANCH  38  39
ENDBRANCH  11  38
TORSDOF 16
