REMARK  Name = 
REMARK  29 active torsions:
REMARK  status: ('A' for Active; 'I' for Inactive)
REMARK    1  A    between atoms: C_1  and  C_2
REMARK    2  A    between atoms: C_3  and  C_4
REMARK    3  A    between atoms: C_7  and  C_8
REMARK    4  A    between atoms: C_8  and  O_10
REMARK    5  A    between atoms: O_10  and  C_11
REMARK    6  A    between atoms: C_13  and  C_14
REMARK    7  A    between atoms: C_14  and  O_15
REMARK    8  A    between atoms: O_15  and  C_16
REMARK    9  A    between atoms: C_18  and  C_19
REMARK   10  A    between atoms: C_19  and  O_20
REMARK   11  A    between atoms: C_21  and  O_22
REMARK   12  A    between atoms: O_22  and  C_23
REMARK   13  A    between atoms: C_25  and  C_26
REMARK   14  A    between atoms: C_27  and  O_28
REMARK   15  A    between atoms: C_29  and  O_30
REMARK   16  A    between atoms: C_31  and  O_32
REMARK   17  A    between atoms: C_33  and  O_34
REMARK   18  A    between atoms: C_35  and  O_36
REMARK   19  A    between atoms: C_37  and  O_38
REMARK   20  A    between atoms: C_39  and  O_40
REMARK   21  A    between atoms: C_41  and  O_42
REMARK   22  A    between atoms: C_45  and  C_46
REMARK   23  A    between atoms: C_51  and  C_52
REMARK   24  A    between atoms: C_55  and  O_56
REMARK   25  A    between atoms: C_57  and  C_58
REMARK   26  A    between atoms: C_57  and  C_59
REMARK   27  A    between atoms: C_59  and  O_60
REMARK   28  A    between atoms: C_62  and  O_63
REMARK   29  A    between atoms: C_65  and  C_66
REMARK                            x       y       z     vdW  Elec       q    Type
REMARK                         _______ _______ _______ _____ _____    ______ ____
ROOT
ATOM      1  C   UNL     1      26.497  60.048  42.362  0.00  0.00    +0.000 C 
ATOM      2  O   UNL     1      26.725  60.902  41.236  0.00  0.00    +0.000 OA
ATOM      3  C   UNL     1      25.915  60.622  40.078  0.00  0.00    +0.000 C 
ATOM      4  C   UNL     1      25.143  59.269  40.137  0.00  0.00    +0.000 C 
ATOM      5  C   UNL     1      24.321  59.126  41.446  0.00  0.00    +0.000 C 
ATOM      6  C   UNL     1      24.987  59.884  42.618  0.00  0.00    +0.000 C 
ENDROOT
BRANCH   4   7
ATOM      7  O   UNL     1      26.113  58.250  40.093  0.00  0.00    +0.000 OA
ATOM      8  H   UNL     1      26.880  58.592  39.561  0.00  0.00    +0.000 HD
ENDBRANCH   4   7
BRANCH   5   9
ATOM      9  O   UNL     1      22.970  59.488  41.300  0.00  0.00    +0.000 OA
ATOM     10  H   UNL     1      22.908  60.224  40.642  0.00  0.00    +0.000 HD
ENDBRANCH   5   9
BRANCH   6  11
ATOM     11  O   UNL     1      24.704  59.254  43.843  0.00  0.00    +0.000 OA
ATOM     12  H   UNL     1      24.036  59.815  44.317  0.00  0.00    +0.000 HD
ENDBRANCH   6  11
BRANCH   1  13
ATOM     13  O   UNL     1      27.077  60.584  43.496  0.00  0.00    +0.000 OA
BRANCH  13  14
ATOM     14  C   UNL     1      28.405  60.839  43.663  0.00  0.00    +0.000 C 
ATOM     15  O   UNL     1      28.944  61.733  43.023  0.00  0.00    +0.000 OA
BRANCH  14  22
ATOM     16  C   UNL     1      29.262  58.898  41.434  0.00  0.00    +0.000 C 
ATOM     17  C   UNL     1      30.026  58.271  42.622  0.00  0.00    +0.000 C 
ATOM     18  C   UNL     1      31.477  58.845  42.700  0.00  0.00    +0.000 C 
ATOM     19  C   UNL     1      32.445  57.986  43.532  0.00  0.00    +0.000 C 
ATOM     20  C   UNL     1      31.457  60.300  43.214  0.00  0.00    +0.000 C 
ATOM     21  C   UNL     1      30.740  60.423  44.577  0.00  0.00    +0.000 C 
ATOM     22  C   UNL     1      29.260  59.911  44.539  0.00  0.00    +0.000 C 
ATOM     23  C   UNL     1      28.638  60.030  45.982  0.00  0.00    +0.000 C 
ATOM     24  C   UNL     1      27.985  58.735  46.491  0.00  0.00    +0.000 C 
ATOM     25  C   UNL     1      28.974  57.522  46.500  0.00  0.00    +0.000 C 
ATOM     26  C   UNL     1      30.176  57.908  47.445  0.00  0.00    +0.000 C 
ATOM     27  C   UNL     1      29.565  57.350  45.096  0.00  0.00    +0.000 C 
ATOM     28  C   UNL     1      30.171  56.163  44.805  0.00  0.00    +0.000 C 
ATOM     29  C   UNL     1      30.180  54.933  45.699  0.00  0.00    +0.000 C 
ATOM     30  C   UNL     1      29.392  55.032  47.038  0.00  0.00    +0.000 C 
ATOM     31  C   UNL     1      29.036  53.629  47.732  0.00  0.00    +0.000 C 
ATOM     32  C   UNL     1      28.201  52.701  46.788  0.00  0.00    +0.000 C 
ATOM     33  C   UNL     1      30.373  52.871  48.011  0.00  0.00    +0.000 C 
ATOM     34  C   UNL     1      30.187  51.611  48.871  0.00  0.00    +0.000 C 
ATOM     35  C   UNL     1      29.620  51.995  50.248  0.00  0.00    +0.000 C 
ATOM     36  C   UNL     1      28.236  52.746  50.202  0.00  0.00    +0.000 C 
ATOM     37  C   UNL     1      27.074  51.748  49.938  0.00  0.00    +0.000 C 
ATOM     38  C   UNL     1      28.368  53.958  49.149  0.00  0.00    +0.000 C 
ATOM     39  C   UNL     1      27.139  54.938  48.999  0.00  0.00    +0.000 C 
ATOM     40  C   UNL     1      27.600  56.267  48.355  0.00  0.00    +0.000 C 
ATOM     41  C   UNL     1      28.257  56.136  46.943  0.00  0.00    +0.000 C 
ATOM     42  C   UNL     1      27.146  55.797  45.892  0.00  0.00    +0.000 C 
ATOM     43  C   UNL     1      29.253  58.418  43.995  0.00  0.00    +0.000 C 
BRANCH  35  44
ATOM     44  O   UNL     1      29.589  50.877  51.105  0.00  0.00    +0.000 OA
ATOM     45  H   UNL     1      28.711  50.864  51.569  0.00  0.00    +0.000 HD
ENDBRANCH  35  44
BRANCH  39  46
ATOM     46  O   UNL     1      26.029  54.433  48.303  0.00  0.00    +0.000 OA
ATOM     47  H   UNL     1      25.853  54.977  47.505  0.00  0.00    +0.000 HD
ENDBRANCH  39  46
BRANCH  36  48
ATOM     48  C   UNL     1      28.021  53.290  51.659  0.00  0.00    +0.000 C 
BRANCH  48  49
ATOM     49  O   UNL     1      27.442  52.339  52.513  0.00  0.00    +0.000 OA
ATOM     50  H   UNL     1      27.449  52.726  53.428  0.00  0.00    +0.000 HD
ENDBRANCH  48  49
ENDBRANCH  36  48
ENDBRANCH  14  22
ENDBRANCH  13  14
ENDBRANCH   1  13
BRANCH   3  51
ATOM     51  C   UNL     1      25.009  61.820  39.737  0.00  0.00    +0.000 C 
BRANCH  51  52
ATOM     52  O   UNL     1      23.727  61.314  39.422  0.00  0.00    +0.000 OA
BRANCH  52  53
ATOM     53  C   UNL     1      23.328  61.621  38.101  0.00  0.00    +0.000 C 
ATOM     54  O   UNL     1      21.933  61.955  38.066  0.00  0.00    +0.000 OA
ATOM     55  C   UNL     1      21.075  60.881  37.710  0.00  0.00    +0.000 C 
ATOM     56  C   UNL     1      21.414  60.274  36.305  0.00  0.00    +0.000 C 
ATOM     57  C   UNL     1      22.895  60.494  35.919  0.00  0.00    +0.000 C 
ATOM     58  C   UNL     1      23.754  60.440  37.177  0.00  0.00    +0.000 C 
BRANCH  57  59
ATOM     59  O   UNL     1      23.302  59.572  34.940  0.00  0.00    +0.000 OA
ATOM     60  H   UNL     1      23.246  60.028  34.059  0.00  0.00    +0.000 HD
ENDBRANCH  57  59
BRANCH  58  61
ATOM     61  O   UNL     1      25.131  60.497  36.899  0.00  0.00    +0.000 OA
ATOM     62  H   UNL     1      25.420  59.592  36.608  0.00  0.00    +0.000 HD
ENDBRANCH  58  61
BRANCH  55  63
ATOM     63  C   UNL     1      20.979  59.855  38.869  0.00  0.00    +0.000 C 
BRANCH  63  64
ATOM     64  O   UNL     1      20.692  60.496  40.083  0.00  0.00    +0.000 OA
ATOM     65  H   UNL     1      21.200  61.349  40.085  0.00  0.00    +0.000 HD
ENDBRANCH  63  64
ENDBRANCH  55  63
BRANCH  56  66
ATOM     66  O   UNL     1      20.613  60.899  35.312  0.00  0.00    +0.000 OA
BRANCH  66  67
ATOM     67  C   UNL     1      21.088  62.171  34.900  0.00  0.00    +0.000 C 
ATOM     68  O   UNL     1      20.351  63.199  35.573  0.00  0.00    +0.000 OA
ATOM     69  C   UNL     1      19.258  63.660  34.804  0.00  0.00    +0.000 C 
ATOM     70  C   UNL     1      18.366  64.558  35.658  0.00  0.00    +0.000 C 
ATOM     71  C   UNL     1      19.751  64.410  33.526  0.00  0.00    +0.000 C 
ATOM     72  C   UNL     1      21.015  63.726  32.912  0.00  0.00    +0.000 C 
ATOM     73  C   UNL     1      21.027  62.250  33.339  0.00  0.00    +0.000 C 
BRANCH  71  74
ATOM     74  O   UNL     1      18.698  64.475  32.593  0.00  0.00    +0.000 OA
ATOM     75  H   UNL     1      17.846  64.522  33.100  0.00  0.00    +0.000 HD
ENDBRANCH  71  74
BRANCH  72  76
ATOM     76  O   UNL     1      22.207  64.363  33.326  0.00  0.00    +0.000 OA
ATOM     77  H   UNL     1      22.107  65.343  33.220  0.00  0.00    +0.000 HD
ENDBRANCH  72  76
BRANCH  73  78
ATOM     78  O   UNL     1      22.069  61.519  32.742  0.00  0.00    +0.000 OA
ATOM     79  H   UNL     1      22.599  61.097  33.468  0.00  0.00    +0.000 HD
ENDBRANCH  73  78
ENDBRANCH  66  67
ENDBRANCH  56  66
ENDBRANCH  52  53
ENDBRANCH  51  52
ENDBRANCH   3  51
TORSDOF 22
