REMARK  Name = 
REMARK  16 active torsions:
REMARK  status: ('A' for Active; 'I' for Inactive)
REMARK    1  A    between atoms: C_1  and  O_2
REMARK    2  A    between atoms: O_2  and  C_3
REMARK    3  A    between atoms: C_5  and  O_6
REMARK    4  A    between atoms: O_6  and  C_7
REMARK    5  A    between atoms: C_10  and  C_11
REMARK    6  A    between atoms: C_21  and  C_22
REMARK    7  A    between atoms: C_26  and  O_27
REMARK    8  A    between atoms: C_28  and  C_29
REMARK    9  A    between atoms: C_32  and  C_33
REMARK   10  A    between atoms: C_34  and  O_35
REMARK   11  A    between atoms: O_35  and  C_36
REMARK   12  A    between atoms: C_38  and  C_39
REMARK   13  A    between atoms: C_39  and  O_40
REMARK   14  A    between atoms: C_41  and  O_42
REMARK   15  A    between atoms: C_43  and  O_44
REMARK   16  A    between atoms: C_45  and  O_46
REMARK                            x       y       z     vdW  Elec       q    Type
REMARK                         _______ _______ _______ _____ _____    ______ ____
ROOT
ATOM      1  O   UNL     1      23.393  60.090  40.854  0.00  0.00    +0.000 OA
ENDROOT
BRANCH   1   2
ATOM      2  C   UNL     1      24.450  59.587  41.655  0.00  0.00    +0.000 C 
ATOM      3  C   UNL     1      25.055  58.345  40.979  0.00  0.00    +0.000 C 
ATOM      4  C   UNL     1      26.190  57.774  41.842  0.00  0.00    +0.000 C 
ATOM      5  C   UNL     1      27.333  58.798  42.142  0.00  0.00    +0.000 C 
ATOM      6  C   UNL     1      28.138  59.108  40.851  0.00  0.00    +0.000 C 
ATOM      7  C   UNL     1      26.680  60.101  42.628  0.00  0.00    +0.000 C 
ATOM      8  C   UNL     1      27.065  60.737  43.756  0.00  0.00    +0.000 C 
ATOM      9  C   UNL     1      28.214  60.291  44.620  0.00  0.00    +0.000 C 
ATOM     10  C   UNL     1      29.133  59.250  43.934  0.00  0.00    +0.000 C 
ATOM     11  C   UNL     1      28.255  58.176  43.264  0.00  0.00    +0.000 C 
ATOM     12  C   UNL     1      29.090  57.007  42.790  0.00  0.00    +0.000 C 
ATOM     13  O   UNL     1      28.543  55.971  42.443  0.00  0.00    +0.000 OA
ATOM     14  C   UNL     1      30.598  57.065  42.865  0.00  0.00    +0.000 C 
ATOM     15  O   UNL     1      31.119  55.749  42.738  0.00  0.00    +0.000 OA
ATOM     16  C   UNL     1      31.639  55.372  44.007  0.00  0.00    +0.000 C 
ATOM     17  C   UNL     1      31.215  53.955  44.392  0.00  0.00    +0.000 C 
ATOM     18  C   UNL     1      31.242  56.438  45.038  0.00  0.00    +0.000 C 
ATOM     19  C   UNL     1      29.840  56.341  45.675  0.00  0.00    +0.000 C 
ATOM     20  C   UNL     1      29.604  57.786  46.093  0.00  0.00    +0.000 C 
ATOM     21  C   UNL     1      30.192  58.664  44.934  0.00  0.00    +0.000 C 
ATOM     22  C   UNL     1      31.167  57.675  44.181  0.00  0.00    +0.000 C 
ATOM     23  C   UNL     1      32.570  58.270  43.881  0.00  0.00    +0.000 C 
ATOM     24  C   UNL     1      25.529  60.664  41.812  0.00  0.00    +0.000 C 
BRANCH  21  25
ATOM     25  O   UNL     1      30.880  59.767  45.492  0.00  0.00    +0.000 OA
ATOM     26  H   UNL     1      30.799  60.547  44.884  0.00  0.00    +0.000 HD
ENDBRANCH  21  25
ENDBRANCH   1   2
BRANCH   1  29
ATOM     27  C   UNL     1      24.086  61.740  37.610  0.00  0.00    +0.000 C 
ATOM     28  C   UNL     1      24.041  60.557  38.554  0.00  0.00    +0.000 C 
ATOM     29  C   UNL     1      23.837  61.123  39.987  0.00  0.00    +0.000 C 
ATOM     30  O   UNL     1      22.967  62.256  40.089  0.00  0.00    +0.000 OA
ATOM     31  C   UNL     1      22.023  62.370  39.040  0.00  0.00    +0.000 C 
ATOM     32  C   UNL     1      20.910  61.316  39.221  0.00  0.00    +0.000 C 
ATOM     33  C   UNL     1      22.699  62.426  37.625  0.00  0.00    +0.000 C 
BRANCH  27  35
ATOM     34  C   UNL     1      24.438  59.902  36.219  0.00  0.00    +0.000 C 
ATOM     35  O   UNL     1      24.405  61.309  36.295  0.00  0.00    +0.000 OA
ENDBRANCH  27  35
BRANCH  33  36
ATOM     36  O   UNL     1      21.857  61.795  36.670  0.00  0.00    +0.000 OA
BRANCH  36  37
ATOM     37  C   UNL     1      21.470  62.657  35.617  0.00  0.00    +0.000 C 
ATOM     38  O   UNL     1      20.279  63.339  35.957  0.00  0.00    +0.000 OA
ATOM     39  C   UNL     1      19.949  64.360  35.005  0.00  0.00    +0.000 C 
ATOM     40  C   UNL     1      20.381  64.025  33.525  0.00  0.00    +0.000 C 
ATOM     41  C   UNL     1      20.327  62.502  33.312  0.00  0.00    +0.000 C 
ATOM     42  C   UNL     1      21.254  61.789  34.350  0.00  0.00    +0.000 C 
BRANCH  40  43
ATOM     43  O   UNL     1      21.697  64.461  33.294  0.00  0.00    +0.000 OA
ATOM     44  H   UNL     1      22.005  64.906  34.128  0.00  0.00    +0.000 HD
ENDBRANCH  40  43
BRANCH  41  45
ATOM     45  O   UNL     1      18.990  62.058  33.404  0.00  0.00    +0.000 OA
ATOM     46  H   UNL     1      18.377  62.838  33.371  0.00  0.00    +0.000 HD
ENDBRANCH  41  45
BRANCH  42  47
ATOM     47  O   UNL     1      22.500  61.441  33.795  0.00  0.00    +0.000 OA
ATOM     48  H   UNL     1      23.198  61.995  34.230  0.00  0.00    +0.000 HD
ENDBRANCH  42  47
BRANCH  39  49
ATOM     49  C   UNL     1      18.432  64.617  35.112  0.00  0.00    +0.000 C 
BRANCH  49  50
ATOM     50  O   UNL     1      18.017  64.648  36.451  0.00  0.00    +0.000 OA
ATOM     51  H   UNL     1      17.031  64.764  36.443  0.00  0.00    +0.000 HD
ENDBRANCH  49  50
ENDBRANCH  39  49
ENDBRANCH  36  37
ENDBRANCH  33  36
ENDBRANCH   1  29
TORSDOF 11
