REMARK  Name = 
REMARK  15 active torsions:
REMARK  status: ('A' for Active; 'I' for Inactive)
REMARK    1  A    between atoms: C_1  and  C_2
REMARK    2  A    between atoms: C_17  and  O_18
REMARK    3  A    between atoms: O_18  and  C_19
REMARK    4  A    between atoms: C_22  and  O_23
REMARK    5  A    between atoms: O_23  and  C_24
REMARK    6  A    between atoms: C_26  and  C_27
REMARK    7  A    between atoms: C_27  and  O_28
REMARK    8  A    between atoms: C_29  and  O_30
REMARK    9  A    between atoms: C_31  and  O_32
REMARK   10  A    between atoms: C_33  and  O_34
REMARK   11  A    between atoms: C_35  and  O_36
REMARK   12  A    between atoms: C_37  and  O_38
REMARK   13  A    between atoms: C_41  and  C_42
REMARK   14  A    between atoms: C_46  and  C_47
REMARK   15  A    between atoms: C_49  and  C_50
REMARK                            x       y       z     vdW  Elec       q    Type
REMARK                         _______ _______ _______ _____ _____    ______ ____
ROOT
ATOM      1  C   UNL     1      33.272  49.334  46.230  0.00  0.00    +0.000 C 
ATOM      2  C   UNL     1      32.311  50.461  45.841  0.00  0.00    +0.000 C 
ATOM      3  C   UNL     1      30.874  49.930  45.647  0.00  0.00    +0.000 C 
ATOM      4  C   UNL     1      29.833  50.952  46.118  0.00  0.00    +0.000 C 
ATOM      5  C   UNL     1      30.285  52.400  45.802  0.00  0.00    +0.000 C 
ATOM      6  O   UNL     1      31.567  52.730  46.370  0.00  0.00    +0.000 OA
ATOM      7  C   UNL     1      32.328  51.623  46.848  0.00  0.00    +0.000 C 
ATOM      8  O   UNL     1      30.329  52.600  44.396  0.00  0.00    +0.000 OA
ATOM      9  C   UNL     1      30.125  53.992  44.203  0.00  0.00    +0.000 C 
ATOM     10  C   UNL     1      29.092  54.383  43.131  0.00  0.00    +0.000 C 
ATOM     11  C   UNL     1      28.817  55.829  43.569  0.00  0.00    +0.000 C 
ATOM     12  C   UNL     1      27.756  56.712  42.865  0.00  0.00    +0.000 C 
ATOM     13  C   UNL     1      28.085  56.909  41.368  0.00  0.00    +0.000 C 
ATOM     14  C   UNL     1      27.093  57.855  40.646  0.00  0.00    +0.000 C 
ATOM     15  C   UNL     1      26.040  58.477  41.597  0.00  0.00    +0.000 C 
ATOM     16  C   UNL     1      25.093  59.456  40.855  0.00  0.00    +0.000 C 
ATOM     17  C   UNL     1      25.759  60.802  40.500  0.00  0.00    +0.000 C 
ATOM     18  C   UNL     1      26.441  61.430  41.733  0.00  0.00    +0.000 C 
ATOM     19  C   UNL     1      27.394  60.448  42.445  0.00  0.00    +0.000 C 
ATOM     20  C   UNL     1      26.681  59.127  42.878  0.00  0.00    +0.000 C 
ATOM     21  C   UNL     1      25.532  59.452  43.889  0.00  0.00    +0.000 C 
ATOM     22  C   UNL     1      27.755  58.134  43.542  0.00  0.00    +0.000 C 
ATOM     23  C   UNL     1      27.707  58.072  45.113  0.00  0.00    +0.000 C 
ATOM     24  C   UNL     1      28.697  57.058  45.723  0.00  0.00    +0.000 C 
ATOM     25  C   UNL     1      28.521  55.665  45.078  0.00  0.00    +0.000 C 
ATOM     26  C   UNL     1      27.069  55.117  45.352  0.00  0.00    +0.000 C 
ATOM     27  C   UNL     1      29.624  54.633  45.504  0.00  0.00    +0.000 C 
ATOM     28  C   UNL     1      29.238  53.398  46.305  0.00  0.00    +0.000 C 
ATOM     29  C   UNL     1      29.192  53.632  47.822  0.00  0.00    +0.000 C 
ENDROOT
BRANCH  17  30
ATOM     30  O   UNL     1      24.726  61.686  40.095  0.00  0.00    +0.000 OA
BRANCH  30  31
ATOM     31  C   UNL     1      23.592  61.086  39.503  0.00  0.00    +0.000 C 
ATOM     32  O   UNL     1      23.964  60.696  38.173  0.00  0.00    +0.000 OA
ATOM     33  C   UNL     1      23.094  61.143  37.134  0.00  0.00    +0.000 C 
ATOM     34  C   UNL     1      21.625  60.880  37.487  0.00  0.00    +0.000 C 
ATOM     35  C   UNL     1      21.217  61.683  38.750  0.00  0.00    +0.000 C 
ATOM     36  C   UNL     1      22.460  62.139  39.546  0.00  0.00    +0.000 C 
BRANCH  35  37
ATOM     37  O   UNL     1      20.428  62.807  38.443  0.00  0.00    +0.000 OA
ATOM     38  H   UNL     1      20.989  63.434  37.913  0.00  0.00    +0.000 HD
ENDBRANCH  35  37
BRANCH  36  39
ATOM     39  O   UNL     1      22.120  62.514  40.856  0.00  0.00    +0.000 OA
ATOM     40  H   UNL     1      22.939  62.886  41.277  0.00  0.00    +0.000 HD
ENDBRANCH  36  39
BRANCH  34  41
ATOM     41  O   UNL     1      20.789  61.209  36.383  0.00  0.00    +0.000 OA
BRANCH  41  42
ATOM     42  C   UNL     1      21.427  62.014  35.399  0.00  0.00    +0.000 C 
ATOM     43  O   UNL     1      20.974  63.367  35.531  0.00  0.00    +0.000 OA
ATOM     44  C   UNL     1      19.874  63.745  34.689  0.00  0.00    +0.000 C 
ATOM     45  C   UNL     1      18.929  62.556  34.381  0.00  0.00    +0.000 C 
ATOM     46  C   UNL     1      19.685  61.436  33.630  0.00  0.00    +0.000 C 
ATOM     47  C   UNL     1      21.191  61.431  33.988  0.00  0.00    +0.000 C 
BRANCH  45  48
ATOM     48  O   UNL     1      17.774  62.933  33.675  0.00  0.00    +0.000 OA
ATOM     49  H   UNL     1      17.479  62.145  33.149  0.00  0.00    +0.000 HD
ENDBRANCH  45  48
BRANCH  46  50
ATOM     50  O   UNL     1      19.070  60.194  33.865  0.00  0.00    +0.000 OA
ATOM     51  H   UNL     1      19.117  59.666  33.028  0.00  0.00    +0.000 HD
ENDBRANCH  46  50
BRANCH  47  52
ATOM     52  O   UNL     1      21.874  62.247  33.066  0.00  0.00    +0.000 OA
ATOM     53  H   UNL     1      22.261  63.006  33.578  0.00  0.00    +0.000 HD
ENDBRANCH  47  52
BRANCH  44  54
ATOM     54  C   UNL     1      19.114  64.888  35.382  0.00  0.00    +0.000 C 
BRANCH  54  55
ATOM     55  O   UNL     1      18.346  64.409  36.454  0.00  0.00    +0.000 OA
ATOM     56  H   UNL     1      17.596  63.889  36.063  0.00  0.00    +0.000 HD
ENDBRANCH  54  55
ENDBRANCH  44  54
ENDBRANCH  41  42
ENDBRANCH  34  41
ENDBRANCH  30  31
ENDBRANCH  17  30
TORSDOF 11
