REMARK  Name = 
REMARK  17 active torsions:
REMARK  status: ('A' for Active; 'I' for Inactive)
REMARK    1  A    between atoms: C_1  and  C_2
REMARK    2  A    between atoms: C_17  and  O_18
REMARK    3  A    between atoms: O_18  and  C_19
REMARK    4  A    between atoms: C_21  and  C_22
REMARK    5  A    between atoms: C_22  and  O_23
REMARK    6  A    between atoms: C_24  and  O_25
REMARK    7  A    between atoms: C_26  and  O_27
REMARK    8  A    between atoms: O_27  and  C_28
REMARK    9  A    between atoms: C_30  and  C_31
REMARK   10  A    between atoms: C_31  and  O_32
REMARK   11  A    between atoms: C_33  and  O_34
REMARK   12  A    between atoms: C_35  and  O_36
REMARK   13  A    between atoms: C_37  and  O_38
REMARK   14  A    between atoms: C_39  and  O_40
REMARK   15  A    between atoms: C_43  and  C_44
REMARK   16  A    between atoms: C_48  and  C_49
REMARK   17  A    between atoms: C_51  and  C_52
REMARK                            x       y       z     vdW  Elec       q    Type
REMARK                         _______ _______ _______ _____ _____    ______ ____
ROOT
ATOM      1  C   UNL     1      30.270  53.438  51.408  0.00  0.00    +0.000 C 
ATOM      2  C   UNL     1      29.309  53.133  50.253  0.00  0.00    +0.000 C 
ATOM      3  C   UNL     1      28.190  54.203  50.207  0.00  0.00    +0.000 C 
ATOM      4  C   UNL     1      27.661  54.322  48.784  0.00  0.00    +0.000 C 
ATOM      5  C   UNL     1      28.804  54.911  47.877  0.00  0.00    +0.000 C 
ATOM      6  N   UNL     1      30.141  54.314  48.215  0.00  0.00    +0.000 NA
ATOM      7  C   UNL     1      30.032  53.011  48.882  0.00  0.00    +0.000 C 
ATOM      8  O   UNL     1      28.866  56.306  48.110  0.00  0.00    +0.000 OA
ATOM      9  C   UNL     1      29.523  56.872  46.989  0.00  0.00    +0.000 C 
ATOM     10  C   UNL     1      28.811  58.125  46.415  0.00  0.00    +0.000 C 
ATOM     11  C   UNL     1      28.405  57.738  44.986  0.00  0.00    +0.000 C 
ATOM     12  C   UNL     1      28.164  58.861  43.962  0.00  0.00    +0.000 C 
ATOM     13  C   UNL     1      27.045  59.783  44.480  0.00  0.00    +0.000 C 
ATOM     14  C   UNL     1      26.460  60.671  43.429  0.00  0.00    +0.000 C 
ATOM     15  C   UNL     1      26.710  60.539  42.113  0.00  0.00    +0.000 C 
ATOM     16  C   UNL     1      25.976  61.416  41.145  0.00  0.00    +0.000 C 
ATOM     17  C   UNL     1      25.054  60.575  40.226  0.00  0.00    +0.000 C 
ATOM     18  C   UNL     1      25.506  59.083  40.127  0.00  0.00    +0.000 C 
ATOM     19  C   UNL     1      27.034  58.983  40.133  0.00  0.00    +0.000 C 
ATOM     20  C   UNL     1      27.633  59.452  41.518  0.00  0.00    +0.000 C 
ATOM     21  C   UNL     1      29.005  60.109  41.195  0.00  0.00    +0.000 C 
ATOM     22  C   UNL     1      27.775  58.262  42.569  0.00  0.00    +0.000 C 
ATOM     23  C   UNL     1      28.780  57.133  42.130  0.00  0.00    +0.000 C 
ATOM     24  C   UNL     1      29.010  56.060  43.232  0.00  0.00    +0.000 C 
ATOM     25  C   UNL     1      29.466  56.723  44.558  0.00  0.00    +0.000 C 
ATOM     26  C   UNL     1      30.879  57.375  44.337  0.00  0.00    +0.000 C 
ATOM     27  C   UNL     1      29.565  55.840  45.847  0.00  0.00    +0.000 C 
ATOM     28  C   UNL     1      28.524  54.799  46.351  0.00  0.00    +0.000 C 
ATOM     29  C   UNL     1      27.022  55.053  46.070  0.00  0.00    +0.000 C 
ATOM     30  H   UNL     1      30.681  54.948  48.846  0.00  0.00    +0.000 HD
ENDROOT
BRANCH  17  31
ATOM     31  O   UNL     1      25.070  61.169  38.930  0.00  0.00    +0.000 OA
BRANCH  31  32
ATOM     32  C   UNL     1      23.933  61.980  38.647  0.00  0.00    +0.000 C 
ATOM     33  O   UNL     1      22.918  61.605  39.587  0.00  0.00    +0.000 OA
ATOM     34  C   UNL     1      21.557  61.893  39.231  0.00  0.00    +0.000 C 
ATOM     35  C   UNL     1      21.426  62.929  38.086  0.00  0.00    +0.000 C 
ATOM     36  C   UNL     1      22.259  62.611  36.824  0.00  0.00    +0.000 C 
ATOM     37  C   UNL     1      23.473  61.725  37.188  0.00  0.00    +0.000 C 
BRANCH  35  38
ATOM     38  O   UNL     1      20.101  63.297  37.798  0.00  0.00    +0.000 OA
ATOM     39  H   UNL     1      20.129  64.164  37.318  0.00  0.00    +0.000 HD
ENDBRANCH  35  38
BRANCH  37  40
ATOM     40  O   UNL     1      24.500  61.886  36.244  0.00  0.00    +0.000 OA
ATOM     41  H   UNL     1      24.083  61.867  35.345  0.00  0.00    +0.000 HD
ENDBRANCH  37  40
BRANCH  34  42
ATOM     42  C   UNL     1      20.748  60.586  39.068  0.00  0.00    +0.000 C 
BRANCH  42  43
ATOM     43  O   UNL     1      20.698  59.824  40.241  0.00  0.00    +0.000 OA
ATOM     44  H   UNL     1      20.721  58.870  39.970  0.00  0.00    +0.000 HD
ENDBRANCH  42  43
ENDBRANCH  34  42
BRANCH  36  45
ATOM     45  O   UNL     1      21.504  61.962  35.803  0.00  0.00    +0.000 OA
BRANCH  45  46
ATOM     46  C   UNL     1      21.850  62.388  34.485  0.00  0.00    +0.000 C 
ATOM     47  O   UNL     1      21.432  63.738  34.285  0.00  0.00    +0.000 OA
ATOM     48  C   UNL     1      20.081  63.927  33.843  0.00  0.00    +0.000 C 
ATOM     49  C   UNL     1      19.167  62.702  34.104  0.00  0.00    +0.000 C 
ATOM     50  C   UNL     1      19.725  61.444  33.403  0.00  0.00    +0.000 C 
ATOM     51  C   UNL     1      21.276  61.413  33.431  0.00  0.00    +0.000 C 
BRANCH  49  52
ATOM     52  O   UNL     1      17.832  62.927  33.723  0.00  0.00    +0.000 OA
ATOM     53  H   UNL     1      17.455  63.600  34.348  0.00  0.00    +0.000 HD
ENDBRANCH  49  52
BRANCH  50  54
ATOM     54  O   UNL     1      19.166  60.288  33.974  0.00  0.00    +0.000 OA
ATOM     55  H   UNL     1      18.912  59.679  33.232  0.00  0.00    +0.000 HD
ENDBRANCH  50  54
BRANCH  51  56
ATOM     56  O   UNL     1      21.802  61.719  32.158  0.00  0.00    +0.000 OA
ATOM     57  H   UNL     1      22.790  61.740  32.214  0.00  0.00    +0.000 HD
ENDBRANCH  51  56
BRANCH  48  58
ATOM     58  C   UNL     1      19.518  65.167  34.553  0.00  0.00    +0.000 C 
BRANCH  58  59
ATOM     59  O   UNL     1      20.308  65.495  35.666  0.00  0.00    +0.000 OA
ATOM     60  H   UNL     1      20.928  66.214  35.376  0.00  0.00    +0.000 HD
ENDBRANCH  58  59
ENDBRANCH  48  58
ENDBRANCH  45  46
ENDBRANCH  36  45
ENDBRANCH  31  32
ENDBRANCH  17  31
TORSDOF 13
