REMARK  Name = 
REMARK  20 active torsions:
REMARK  status: ('A' for Active; 'I' for Inactive)
REMARK    1  A    between atoms: C_1  and  C_2
REMARK    2  A    between atoms: C_17  and  O_18
REMARK    3  A    between atoms: O_18  and  C_19
REMARK    4  A    between atoms: C_21  and  C_22
REMARK    5  A    between atoms: C_22  and  O_23
REMARK    6  A    between atoms: C_24  and  O_25
REMARK    7  A    between atoms: O_25  and  C_26
REMARK    8  A    between atoms: C_29  and  O_30
REMARK    9  A    between atoms: C_31  and  O_32
REMARK   10  A    between atoms: C_33  and  O_34
REMARK   11  A    between atoms: O_34  and  C_35
REMARK   12  A    between atoms: C_37  and  C_38
REMARK   13  A    between atoms: C_39  and  O_40
REMARK   14  A    between atoms: C_41  and  O_42
REMARK   15  A    between atoms: C_43  and  O_44
REMARK   16  A    between atoms: C_45  and  O_46
REMARK   17  A    between atoms: C_47  and  O_48
REMARK   18  A    between atoms: C_51  and  C_52
REMARK   19  A    between atoms: C_56  and  C_57
REMARK   20  A    between atoms: C_59  and  C_60
REMARK                            x       y       z     vdW  Elec       q    Type
REMARK                         _______ _______ _______ _____ _____    ______ ____
ROOT
ATOM      1  C   UNL     1      28.691  57.435  43.657  0.00  0.00    +0.000 C 
ATOM      2  O   UNL     1      27.979  56.881  44.772  0.00  0.00    +0.000 OA
ATOM      3  C   UNL     1      28.746  55.956  45.519  0.00  0.00    +0.000 C 
ATOM      4  C   UNL     1      29.093  54.700  44.668  0.00  0.00    +0.000 C 
ATOM      5  C   UNL     1      29.529  55.100  43.220  0.00  0.00    +0.000 C 
ATOM      6  C   UNL     1      29.912  56.590  43.164  0.00  0.00    +0.000 C 
ENDROOT
BRANCH   5   7
ATOM      7  O   UNL     1      28.516  54.831  42.275  0.00  0.00    +0.000 OA
ATOM      8  H   UNL     1      28.798  54.077  41.696  0.00  0.00    +0.000 HD
ENDBRANCH   5   7
BRANCH   6   9
ATOM      9  O   UNL     1      31.030  56.826  43.984  0.00  0.00    +0.000 OA
ATOM     10  H   UNL     1      31.275  55.957  44.397  0.00  0.00    +0.000 HD
ENDBRANCH   6   9
BRANCH   1  11
ATOM     11  O   UNL     1      27.762  57.534  42.580  0.00  0.00    +0.000 OA
BRANCH  11  28
ATOM     12  C   UNL     1      18.258  64.414  33.155  0.00  0.00    +0.000 C 
ATOM     13  C   UNL     1      19.529  65.070  33.721  0.00  0.00    +0.000 C 
ATOM     14  C   UNL     1      20.816  64.513  33.088  0.00  0.00    +0.000 C 
ATOM     15  C   UNL     1      21.042  63.062  33.525  0.00  0.00    +0.000 C 
ATOM     16  C   UNL     1      21.002  62.970  35.073  0.00  0.00    +0.000 C 
ATOM     17  O   UNL     1      19.767  63.492  35.570  0.00  0.00    +0.000 OA
ATOM     18  C   UNL     1      19.620  64.868  35.244  0.00  0.00    +0.000 C 
ATOM     19  O   UNL     1      22.103  63.658  35.655  0.00  0.00    +0.000 OA
ATOM     20  C   UNL     1      22.219  63.112  36.956  0.00  0.00    +0.000 C 
ATOM     21  C   UNL     1      23.647  62.885  37.466  0.00  0.00    +0.000 C 
ATOM     22  C   UNL     1      23.358  61.818  38.531  0.00  0.00    +0.000 C 
ATOM     23  C   UNL     1      24.506  61.178  39.341  0.00  0.00    +0.000 C 
ATOM     24  C   UNL     1      25.235  62.280  40.139  0.00  0.00    +0.000 C 
ATOM     25  C   UNL     1      26.220  61.722  41.118  0.00  0.00    +0.000 C 
ATOM     26  C   UNL     1      26.164  60.457  41.581  0.00  0.00    +0.000 C 
ATOM     27  C   UNL     1      27.309  59.928  42.430  0.00  0.00    +0.000 C 
ATOM     28  C   UNL     1      27.949  58.679  41.757  0.00  0.00    +0.000 C 
ATOM     29  C   UNL     1      27.339  58.400  40.366  0.00  0.00    +0.000 C 
ATOM     30  C   UNL     1      25.795  58.278  40.407  0.00  0.00    +0.000 C 
ATOM     31  C   UNL     1      25.067  59.453  41.180  0.00  0.00    +0.000 C 
ATOM     32  C   UNL     1      24.422  58.890  42.476  0.00  0.00    +0.000 C 
ATOM     33  C   UNL     1      23.910  60.151  40.347  0.00  0.00    +0.000 C 
ATOM     34  C   UNL     1      22.900  59.148  39.677  0.00  0.00    +0.000 C 
ATOM     35  C   UNL     1      21.840  59.866  38.804  0.00  0.00    +0.000 C 
ATOM     36  C   UNL     1      22.516  60.787  37.757  0.00  0.00    +0.000 C 
ATOM     37  C   UNL     1      23.370  59.926  36.759  0.00  0.00    +0.000 C 
ATOM     38  C   UNL     1      21.525  61.742  37.006  0.00  0.00    +0.000 C 
ATOM     39  C   UNL     1      21.185  61.519  35.540  0.00  0.00    +0.000 C 
ATOM     40  C   UNL     1      20.003  60.569  35.325  0.00  0.00    +0.000 C 
ENDBRANCH  11  28
ENDBRANCH   1  11
BRANCH   3  41
ATOM     41  C   UNL     1      28.008  55.578  46.811  0.00  0.00    +0.000 C 
BRANCH  41  42
ATOM     42  O   UNL     1      27.395  54.322  46.700  0.00  0.00    +0.000 OA
ATOM     43  H   UNL     1      26.723  54.397  45.973  0.00  0.00    +0.000 HD
ENDBRANCH  41  42
ENDBRANCH   3  41
BRANCH   4  44
ATOM     44  O   UNL     1      30.143  54.012  45.336  0.00  0.00    +0.000 OA
BRANCH  44  45
ATOM     45  C   UNL     1      30.273  52.679  44.873  0.00  0.00    +0.000 C 
ATOM     46  O   UNL     1      31.508  52.546  44.182  0.00  0.00    +0.000 OA
ATOM     47  C   UNL     1      31.623  51.252  43.622  0.00  0.00    +0.000 C 
ATOM     48  C   UNL     1      31.691  50.189  44.731  0.00  0.00    +0.000 C 
ATOM     49  C   UNL     1      30.420  50.284  45.599  0.00  0.00    +0.000 C 
ATOM     50  C   UNL     1      30.232  51.732  46.091  0.00  0.00    +0.000 C 
BRANCH  48  51
ATOM     51  O   UNL     1      31.841  48.901  44.191  0.00  0.00    +0.000 OA
ATOM     52  H   UNL     1      31.011  48.393  44.391  0.00  0.00    +0.000 HD
ENDBRANCH  48  51
BRANCH  49  53
ATOM     53  O   UNL     1      30.464  49.375  46.670  0.00  0.00    +0.000 OA
ATOM     54  H   UNL     1      30.875  49.844  47.442  0.00  0.00    +0.000 HD
ENDBRANCH  49  53
BRANCH  50  55
ATOM     55  O   UNL     1      28.961  51.846  46.710  0.00  0.00    +0.000 OA
BRANCH  55  56
ATOM     56  C   UNL     1      29.029  51.750  48.117  0.00  0.00    +0.000 C 
ATOM     57  O   UNL     1      28.943  53.040  48.691  0.00  0.00    +0.000 OA
ATOM     58  C   UNL     1      29.200  53.012  50.101  0.00  0.00    +0.000 C 
ATOM     59  C   UNL     1      28.566  54.268  50.717  0.00  0.00    +0.000 C 
ATOM     60  C   UNL     1      28.684  51.706  50.827  0.00  0.00    +0.000 C 
ATOM     61  C   UNL     1      27.449  51.180  50.072  0.00  0.00    +0.000 C 
ATOM     62  C   UNL     1      27.848  50.860  48.593  0.00  0.00    +0.000 C 
BRANCH  60  63
ATOM     63  O   UNL     1      29.659  50.688  50.816  0.00  0.00    +0.000 OA
ATOM     64  H   UNL     1      29.448  50.059  50.080  0.00  0.00    +0.000 HD
ENDBRANCH  60  63
BRANCH  61  65
ATOM     65  O   UNL     1      26.407  52.130  50.145  0.00  0.00    +0.000 OA
ATOM     66  H   UNL     1      26.578  52.762  50.891  0.00  0.00    +0.000 HD
ENDBRANCH  61  65
BRANCH  62  67
ATOM     67  O   UNL     1      28.161  49.505  48.405  0.00  0.00    +0.000 OA
ATOM     68  H   UNL     1      27.331  49.019  48.164  0.00  0.00    +0.000 HD
ENDBRANCH  62  67
ENDBRANCH  55  56
ENDBRANCH  50  55
ENDBRANCH  44  45
ENDBRANCH   4  44
TORSDOF 15
