MODEL 1
REMARK VINA RESULT:   -12.040      0.000      0.000
REMARK INTER + INTRA:         -23.420
REMARK INTER:                 -21.894
REMARK INTRA:                  -1.526
REMARK UNBOUND:                -1.526
REMARK SMILES C[C@@H]1CC[C@]2(C(=O)O[C@@H]3O[C@H](COC(=O)c4cc(O)c(O)c(O)c4)[C@@H](O)[C@H](O)[C@H]3O)CC[C@]3(C)C(=CC[C@@H]4[C@@]5(C)CC[C@H](O[C@@H]6OC[C@H](O)[C@H](O)[C@H]6O)C(C)(C)[C@@H]5CC[C@]43C)[C@@H]2[C@]1(C)O
REMARK SMILES IDX 9 1 10 2 11 3 25 4 27 5 29 6 8 7 6 8 7 9 5 10 2 11 3 12
REMARK SMILES IDX 63 13 4 14 62 15 35 16 31 17 33 18 36 19 32 20 60 21 37 22
REMARK SMILES IDX 59 23 38 24 58 25 39 26 57 27 41 28 54 29 42 30 43 31 1 32
REMARK SMILES IDX 64 33 34 34 61 35 40 36 55 37 56 38 65 39 44 41 45 42 46 43
REMARK SMILES IDX 52 44 47 45 50 46 48 47 53 48 51 50 49 52 30 54 12 56 13 57
REMARK SMILES IDX 14 58 15 59 16 60 17 61 24 62 18 63 22 64 20 65 19 66 23 68
REMARK SMILES IDX 21 70 28 72 26 74
REMARK H PARENT 65 40 53 49 51 51 49 53 30 55 19 67 23 69 21 71 28 73 26 75
ROOT
ATOM      1  C   UNL     1      24.982  60.339  40.976  1.00  0.00     0.342 C 
ATOM      2  O   UNL     1      24.351  59.704  39.886  1.00  0.00    -0.331 OA
ATOM      3  C   UNL     1      23.206  60.404  39.398  1.00  0.00     0.191 C 
ATOM      4  C   UNL     1      23.109  61.911  39.838  1.00  0.00     0.178 C 
ATOM      5  C   UNL     1      24.503  62.582  39.773  1.00  0.00     0.181 C 
ATOM      6  C   UNL     1      25.579  61.697  40.502  1.00  0.00     0.214 C 
ENDROOT
BRANCH   1   7
ATOM      7  O   UNL     1      25.975  59.500  41.436  1.00  0.00    -0.432 OA
BRANCH   7   8
ATOM      8  C   UNL     1      25.846  58.644  42.482  1.00  0.00     0.315 C 
ATOM      9  O   UNL     1      25.131  57.653  42.385  1.00  0.00    -0.252 OA
BRANCH   8  10
ATOM     10  C   UNL     1      26.490  58.965  43.823  1.00  0.00     0.077 C 
ATOM     11  C   UNL     1      28.866  59.572  42.294  1.00  0.00     0.018 C 
ATOM     12  C   UNL     1      28.498  60.623  43.348  1.00  0.00     0.007 C 
ATOM     13  C   UNL     1      28.841  58.134  42.939  1.00  0.00     0.072 C 
ATOM     14  C   UNL     1      27.036  60.444  43.876  1.00  0.00     0.020 C 
ATOM     15  C   UNL     1      27.716  58.035  44.087  1.00  0.00     0.064 C 
ATOM     16  C   UNL     1      28.077  58.155  45.607  1.00  0.00    -0.061 C 
ATOM     17  C   UNL     1      25.330  58.749  44.875  1.00  0.00     0.020 C 
ATOM     18  C   UNL     1      26.950  57.797  46.613  1.00  0.00    -0.006 C 
ATOM     19  C   UNL     1      29.328  58.344  46.109  1.00  0.00    -0.026 C 
ATOM     20  C   UNL     1      25.608  57.566  45.830  1.00  0.00     0.013 C 
ATOM     21  C   UNL     1      27.525  56.503  47.356  1.00  0.00    -0.020 C 
ATOM     22  C   UNL     1      29.629  58.140  47.571  1.00  0.00     0.032 C 
ATOM     23  C   UNL     1      26.543  55.819  48.335  1.00  0.00     0.008 C 
ATOM     24  C   UNL     1      28.773  56.988  48.244  1.00  0.00     0.006 C 
ATOM     25  C   UNL     1      27.202  54.597  49.027  1.00  0.00     0.005 C 
ATOM     26  C   UNL     1      29.580  55.839  48.963  1.00  0.00    -0.025 C 
ATOM     27  C   UNL     1      28.525  54.953  49.785  1.00  0.00     0.003 C 
ATOM     28  C   UNL     1      30.516  56.428  50.074  1.00  0.00     0.010 C 
ATOM     29  C   UNL     1      29.175  53.729  50.549  1.00  0.00    -0.006 C 
ATOM     30  C   UNL     1      31.296  55.315  50.802  1.00  0.00     0.033 C 
ATOM     31  C   UNL     1      30.404  54.215  51.422  1.00  0.00     0.127 C 
ATOM     32  C   UNL     1      30.211  59.887  41.610  1.00  0.00     0.011 C 
ATOM     33  C   UNL     1      28.594  57.105  41.796  1.00  0.00     0.043 C 
ATOM     34  C   UNL     1      26.615  58.970  47.609  1.00  0.00     0.017 C 
ATOM     35  C   UNL     1      27.869  55.435  46.235  1.00  0.00     0.012 C 
ATOM     36  C   UNL     1      30.516  55.158  47.896  1.00  0.00     0.012 C 
ATOM     37  C   UNL     1      28.145  53.115  51.539  1.00  0.00     0.014 C 
ATOM     38  C   UNL     1      29.555  52.556  49.587  1.00  0.00     0.014 C 
BRANCH  13  39
ATOM     39  O   UNL     1      30.109  57.811  43.449  1.00  0.00    -0.389 OA
ATOM     40  H   UNL     1      30.022  57.654  44.428  1.00  0.00     0.211 HD
ENDBRANCH  13  39
BRANCH  31  41
ATOM     41  O   UNL     1      31.248  53.097  51.610  1.00  0.00    -0.346 OA
BRANCH  41  42
ATOM     42  C   UNL     1      31.348  52.553  52.898  1.00  0.00     0.281 C 
ATOM     43  O   UNL     1      30.970  53.550  53.828  1.00  0.00    -0.347 OA
ATOM     44  C   UNL     1      32.855  52.160  53.034  1.00  0.00     0.202 C 
ATOM     45  C   UNL     1      31.153  53.164  55.193  1.00  0.00     0.198 C 
ATOM     46  C   UNL     1      33.396  52.322  54.476  1.00  0.00     0.179 C 
ATOM     47  C   UNL     1      32.235  52.076  55.439  1.00  0.00     0.171 C 
BRANCH  44  48
ATOM     48  O   UNL     1      33.049  50.855  52.548  1.00  0.00    -0.385 OA
ATOM     49  H   UNL     1      33.470  50.321  53.270  1.00  0.00     0.211 HD
ENDBRANCH  44  48
BRANCH  46  50
ATOM     50  O   UNL     1      33.944  53.609  54.690  1.00  0.00    -0.387 OA
ATOM     51  H   UNL     1      34.640  53.794  54.006  1.00  0.00     0.211 HD
ENDBRANCH  46  50
BRANCH  47  52
ATOM     52  O   UNL     1      32.648  52.058  56.783  1.00  0.00    -0.388 OA
ATOM     53  H   UNL     1      33.333  51.345  56.882  1.00  0.00     0.211 HD
ENDBRANCH  47  52
ENDBRANCH  41  42
ENDBRANCH  31  41
ENDBRANCH   8  10
ENDBRANCH   7   8
ENDBRANCH   1   7
BRANCH   6  54
ATOM     54  O   UNL     1      26.178  62.398  41.562  1.00  0.00    -0.384 OA
ATOM     55  H   UNL     1      25.960  63.358  41.440  1.00  0.00     0.211 HD
ENDBRANCH   6  54
BRANCH   3  56
ATOM     56  C   UNL     1      23.170  60.228  37.878  1.00  0.00     0.268 C 
BRANCH  56  57
ATOM     57  O   UNL     1      21.882  59.909  37.503  1.00  0.00    -0.459 OA
BRANCH  57  58
ATOM     58  C   UNL     1      20.867  60.795  37.371  1.00  0.00     0.338 C 
ATOM     59  O   UNL     1      19.939  60.809  38.165  1.00  0.00    -0.246 OA
BRANCH  58  60
ATOM     60  C   UNL     1      20.926  61.771  36.255  1.00  0.00     0.067 A 
ATOM     61  C   UNL     1      20.571  63.113  36.446  1.00  0.00     0.066 A 
ATOM     62  C   UNL     1      21.359  61.349  34.987  1.00  0.00     0.066 A 
ATOM     63  C   UNL     1      20.643  64.026  35.380  1.00  0.00     0.162 A 
ATOM     64  C   UNL     1      21.435  62.246  33.922  1.00  0.00     0.162 A 
ATOM     65  C   UNL     1      21.077  63.593  34.113  1.00  0.00     0.200 A 
BRANCH  63  66
ATOM     66  O   UNL     1      20.299  65.317  35.569  1.00  0.00    -0.504 OA
ATOM     67  H   UNL     1      20.004  65.883  34.843  1.00  0.00     0.293 HD
ENDBRANCH  63  66
BRANCH  64  68
ATOM     68  O   UNL     1      21.857  61.796  32.722  1.00  0.00    -0.504 OA
ATOM     69  H   UNL     1      22.388  62.331  32.117  1.00  0.00     0.293 HD
ENDBRANCH  64  68
BRANCH  65  70
ATOM     70  O   UNL     1      21.156  64.455  33.077  1.00  0.00    -0.502 OA
ATOM     71  H   UNL     1      20.417  65.014  32.802  1.00  0.00     0.293 HD
ENDBRANCH  65  70
ENDBRANCH  58  60
ENDBRANCH  57  58
ENDBRANCH  56  57
ENDBRANCH   3  56
BRANCH   5  72
ATOM     72  O   UNL     1      24.845  62.902  38.441  1.00  0.00    -0.387 OA
ATOM     73  H   UNL     1      24.050  62.845  37.854  1.00  0.00     0.211 HD
ENDBRANCH   5  72
BRANCH   4  74
ATOM     74  O   UNL     1      22.629  61.962  41.160  1.00  0.00    -0.387 OA
ATOM     75  H   UNL     1      23.170  62.635  41.650  1.00  0.00     0.211 HD
ENDBRANCH   4  74
TORSDOF 19
ENDMDL
MODEL 2
REMARK VINA RESULT:   -12.037      1.049      1.736
REMARK INTER + INTRA:         -23.414
REMARK INTER:                 -21.857
REMARK INTRA:                  -1.557
REMARK UNBOUND:                -1.526
REMARK SMILES C[C@@H]1CC[C@]2(C(=O)O[C@@H]3O[C@H](COC(=O)c4cc(O)c(O)c(O)c4)[C@@H](O)[C@H](O)[C@H]3O)CC[C@]3(C)C(=CC[C@@H]4[C@@]5(C)CC[C@H](O[C@@H]6OC[C@H](O)[C@H](O)[C@H]6O)C(C)(C)[C@@H]5CC[C@]43C)[C@@H]2[C@]1(C)O
REMARK SMILES IDX 9 1 10 2 11 3 25 4 27 5 29 6 8 7 6 8 7 9 5 10 2 11 3 12
REMARK SMILES IDX 63 13 4 14 62 15 35 16 31 17 33 18 36 19 32 20 60 21 37 22
REMARK SMILES IDX 59 23 38 24 58 25 39 26 57 27 41 28 54 29 42 30 43 31 1 32
REMARK SMILES IDX 64 33 34 34 61 35 40 36 55 37 56 38 65 39 44 41 45 42 46 43
REMARK SMILES IDX 52 44 47 45 50 46 48 47 53 48 51 50 49 52 30 54 12 56 13 57
REMARK SMILES IDX 14 58 15 59 16 60 17 61 24 62 18 63 22 64 20 65 19 66 23 68
REMARK SMILES IDX 21 70 28 72 26 74
REMARK H PARENT 65 40 53 49 51 51 49 53 30 55 19 67 23 69 21 71 28 73 26 75
ROOT
ATOM      1  C   UNL     1      25.211  60.073  41.279  1.00  0.00     0.342 C 
ATOM      2  O   UNL     1      24.673  59.414  40.154  1.00  0.00    -0.331 OA
ATOM      3  C   UNL     1      23.548  60.081  39.581  1.00  0.00     0.191 C 
ATOM      4  C   UNL     1      23.385  61.588  39.997  1.00  0.00     0.178 C 
ATOM      5  C   UNL     1      24.763  62.293  40.023  1.00  0.00     0.181 C 
ATOM      6  C   UNL     1      25.807  61.442  40.834  1.00  0.00     0.214 C 
ENDROOT
BRANCH   1   7
ATOM      7  O   UNL     1      26.189  59.264  41.816  1.00  0.00    -0.432 OA
BRANCH   7   8
ATOM      8  C   UNL     1      26.013  58.425  42.869  1.00  0.00     0.315 C 
ATOM      9  O   UNL     1      25.223  57.490  42.789  1.00  0.00    -0.252 OA
BRANCH   8  10
ATOM     10  C   UNL     1      26.701  58.703  44.197  1.00  0.00     0.077 C 
ATOM     11  C   UNL     1      29.085  59.144  42.627  1.00  0.00     0.018 C 
ATOM     12  C   UNL     1      28.808  60.219  43.684  1.00  0.00     0.007 C 
ATOM     13  C   UNL     1      28.973  57.712  43.275  1.00  0.00     0.072 C 
ATOM     14  C   UNL     1      27.347  60.141  44.238  1.00  0.00     0.020 C 
ATOM     15  C   UNL     1      27.864  57.692  44.443  1.00  0.00     0.064 C 
ATOM     16  C   UNL     1      28.259  57.788  45.957  1.00  0.00    -0.061 C 
ATOM     17  C   UNL     1      25.546  58.569  45.270  1.00  0.00     0.020 C 
ATOM     18  C   UNL     1      27.128  57.509  46.983  1.00  0.00    -0.006 C 
ATOM     19  C   UNL     1      29.529  57.893  46.436  1.00  0.00    -0.026 C 
ATOM     20  C   UNL     1      25.760  57.370  46.223  1.00  0.00     0.013 C 
ATOM     21  C   UNL     1      27.626  56.180  47.719  1.00  0.00    -0.020 C 
ATOM     22  C   UNL     1      29.840  57.670  47.893  1.00  0.00     0.032 C 
ATOM     23  C   UNL     1      26.617  55.567  48.716  1.00  0.00     0.008 C 
ATOM     24  C   UNL     1      28.919  56.580  48.583  1.00  0.00     0.006 C 
ATOM     25  C   UNL     1      27.203  54.303  49.400  1.00  0.00     0.005 C 
ATOM     26  C   UNL     1      29.658  55.380  49.291  1.00  0.00    -0.025 C 
ATOM     27  C   UNL     1      28.560  54.569  50.134  1.00  0.00     0.003 C 
ATOM     28  C   UNL     1      30.652  55.905  50.385  1.00  0.00     0.010 C 
ATOM     29  C   UNL     1      29.138  53.304  50.890  1.00  0.00    -0.006 C 
ATOM     30  C   UNL     1      31.367  54.742  51.102  1.00  0.00     0.033 C 
ATOM     31  C   UNL     1      30.413  53.706  51.739  1.00  0.00     0.127 C 
ATOM     32  C   UNL     1      30.436  59.366  41.919  1.00  0.00     0.011 C 
ATOM     33  C   UNL     1      28.637  56.701  42.139  1.00  0.00     0.043 C 
ATOM     34  C   UNL     1      26.891  58.704  47.981  1.00  0.00     0.017 C 
ATOM     35  C   UNL     1      27.877  55.090  46.595  1.00  0.00     0.012 C 
ATOM     36  C   UNL     1      30.527  54.635  48.210  1.00  0.00     0.012 C 
ATOM     37  C   UNL     1      28.086  52.764  51.898  1.00  0.00     0.014 C 
ATOM     38  C   UNL     1      29.420  52.107  49.924  1.00  0.00     0.014 C 
BRANCH  13  39
ATOM     39  O   UNL     1      30.225  57.304  43.765  1.00  0.00    -0.389 OA
ATOM     40  H   UNL     1      30.115  57.026  44.714  1.00  0.00     0.211 HD
ENDBRANCH  13  39
BRANCH  31  41
ATOM     41  O   UNL     1      31.181  52.533  51.916  1.00  0.00    -0.346 OA
BRANCH  41  42
ATOM     42  C   UNL     1      32.331  52.608  52.712  1.00  0.00     0.281 C 
ATOM     43  O   UNL     1      33.030  51.384  52.593  1.00  0.00    -0.347 OA
ATOM     44  C   UNL     1      31.786  52.837  54.159  1.00  0.00     0.202 C 
ATOM     45  C   UNL     1      34.162  51.279  53.461  1.00  0.00     0.198 C 
ATOM     46  C   UNL     1      32.658  52.169  55.250  1.00  0.00     0.179 C 
ATOM     47  C   UNL     1      34.100  52.152  54.746  1.00  0.00     0.171 C 
BRANCH  44  48
ATOM     48  O   UNL     1      31.625  54.215  54.391  1.00  0.00    -0.385 OA
ATOM     49  H   UNL     1      30.659  54.389  54.534  1.00  0.00     0.211 HD
ENDBRANCH  44  48
BRANCH  46  50
ATOM     50  O   UNL     1      32.225  50.853  55.537  1.00  0.00    -0.387 OA
ATOM     51  H   UNL     1      31.524  50.583  54.887  1.00  0.00     0.211 HD
ENDBRANCH  46  50
BRANCH  47  52
ATOM     52  O   UNL     1      35.004  51.693  55.721  1.00  0.00    -0.388 OA
ATOM     53  H   UNL     1      34.731  50.774  55.981  1.00  0.00     0.211 HD
ENDBRANCH  47  52
ENDBRANCH  41  42
ENDBRANCH  31  41
ENDBRANCH   8  10
ENDBRANCH   7   8
ENDBRANCH   1   7
BRANCH   6  54
ATOM     54  O   UNL     1      26.313  62.167  41.926  1.00  0.00    -0.384 OA
ATOM     55  H   UNL     1      26.427  63.106  41.628  1.00  0.00     0.211 HD
ENDBRANCH   6  54
BRANCH   3  56
ATOM     56  C   UNL     1      23.623  59.891  38.064  1.00  0.00     0.268 C 
BRANCH  56  57
ATOM     57  O   UNL     1      22.822  60.839  37.463  1.00  0.00    -0.459 OA
BRANCH  57  58
ATOM     58  C   UNL     1      23.094  61.458  36.290  1.00  0.00     0.338 C 
ATOM     59  O   UNL     1      24.238  61.759  35.989  1.00  0.00    -0.246 OA
BRANCH  58  60
ATOM     60  C   UNL     1      21.968  61.732  35.363  1.00  0.00     0.067 A 
ATOM     61  C   UNL     1      21.073  60.721  34.989  1.00  0.00     0.066 A 
ATOM     62  C   UNL     1      21.786  63.031  34.860  1.00  0.00     0.066 A 
ATOM     63  C   UNL     1      20.006  61.002  34.119  1.00  0.00     0.162 A 
ATOM     64  C   UNL     1      20.731  63.321  33.994  1.00  0.00     0.162 A 
ATOM     65  C   UNL     1      19.832  62.306  33.619  1.00  0.00     0.200 A 
BRANCH  63  66
ATOM     66  O   UNL     1      19.148  60.024  33.762  1.00  0.00    -0.504 OA
ATOM     67  H   UNL     1      18.467  60.156  33.088  1.00  0.00     0.293 HD
ENDBRANCH  63  66
BRANCH  64  68
ATOM     68  O   UNL     1      20.594  64.583  33.536  1.00  0.00    -0.504 OA
ATOM     69  H   UNL     1      20.057  65.250  33.985  1.00  0.00     0.293 HD
ENDBRANCH  64  68
BRANCH  65  70
ATOM     70  O   UNL     1      18.812  62.596  32.783  1.00  0.00    -0.502 OA
ATOM     71  H   UNL     1      17.981  62.985  33.085  1.00  0.00     0.293 HD
ENDBRANCH  65  70
ENDBRANCH  58  60
ENDBRANCH  57  58
ENDBRANCH  56  57
ENDBRANCH   3  56
BRANCH   5  72
ATOM     72  O   UNL     1      25.189  62.610  38.715  1.00  0.00    -0.387 OA
ATOM     73  H   UNL     1      26.092  62.245  38.545  1.00  0.00     0.211 HD
ENDBRANCH   5  72
BRANCH   4  74
ATOM     74  O   UNL     1      22.812  61.639  41.283  1.00  0.00    -0.387 OA
ATOM     75  H   UNL     1      21.860  61.902  41.176  1.00  0.00     0.211 HD
ENDBRANCH   4  74
TORSDOF 19
ENDMDL
MODEL 3
REMARK VINA RESULT:   -11.933      1.837      2.734
REMARK INTER + INTRA:         -23.225
REMARK INTER:                 -21.317
REMARK INTRA:                  -1.908
REMARK UNBOUND:                -1.526
REMARK SMILES C[C@@H]1CC[C@]2(C(=O)O[C@@H]3O[C@H](COC(=O)c4cc(O)c(O)c(O)c4)[C@@H](O)[C@H](O)[C@H]3O)CC[C@]3(C)C(=CC[C@@H]4[C@@]5(C)CC[C@H](O[C@@H]6OC[C@H](O)[C@H](O)[C@H]6O)C(C)(C)[C@@H]5CC[C@]43C)[C@@H]2[C@]1(C)O
REMARK SMILES IDX 9 1 10 2 11 3 25 4 27 5 29 6 8 7 6 8 7 9 5 10 2 11 3 12
REMARK SMILES IDX 63 13 4 14 62 15 35 16 31 17 33 18 36 19 32 20 60 21 37 22
REMARK SMILES IDX 59 23 38 24 58 25 39 26 57 27 41 28 54 29 42 30 43 31 1 32
REMARK SMILES IDX 64 33 34 34 61 35 40 36 55 37 56 38 65 39 44 41 45 42 46 43
REMARK SMILES IDX 52 44 47 45 50 46 48 47 53 48 51 50 49 52 30 54 12 56 13 57
REMARK SMILES IDX 14 58 15 59 16 60 17 61 24 62 18 63 22 64 20 65 19 66 23 68
REMARK SMILES IDX 21 70 28 72 26 74
REMARK H PARENT 65 40 53 49 51 51 49 53 30 55 19 67 23 69 21 71 28 73 26 75
ROOT
ATOM      1  C   UNL     1      25.037  60.183  41.393  1.00  0.00     0.342 C 
ATOM      2  O   UNL     1      24.468  59.507  40.294  1.00  0.00    -0.331 OA
ATOM      3  C   UNL     1      23.409  60.227  39.662  1.00  0.00     0.191 C 
ATOM      4  C   UNL     1      23.359  61.763  39.994  1.00  0.00     0.178 C 
ATOM      5  C   UNL     1      24.787  62.359  40.011  1.00  0.00     0.181 C 
ATOM      6  C   UNL     1      25.747  61.475  40.888  1.00  0.00     0.214 C 
ENDROOT
BRANCH   1   7
ATOM      7  O   UNL     1      25.939  59.330  41.992  1.00  0.00    -0.432 OA
BRANCH   7   8
ATOM      8  C   UNL     1      25.685  58.580  43.096  1.00  0.00     0.315 C 
ATOM      9  O   UNL     1      24.632  57.959  43.192  1.00  0.00    -0.252 OA
BRANCH   8  10
ATOM     10  C   UNL     1      26.647  58.597  44.275  1.00  0.00     0.077 C 
ATOM     11  C   UNL     1      28.745  58.532  42.290  1.00  0.00     0.018 C 
ATOM     12  C   UNL     1      28.944  59.574  43.396  1.00  0.00     0.007 C 
ATOM     13  C   UNL     1      28.390  57.135  42.926  1.00  0.00     0.072 C 
ATOM     14  C   UNL     1      27.634  59.825  44.214  1.00  0.00     0.020 C 
ATOM     15  C   UNL     1      27.540  57.316  44.281  1.00  0.00     0.064 C 
ATOM     16  C   UNL     1      28.210  57.217  45.694  1.00  0.00    -0.061 C 
ATOM     17  C   UNL     1      25.707  58.685  45.544  1.00  0.00     0.020 C 
ATOM     18  C   UNL     1      27.247  57.163  46.911  1.00  0.00    -0.006 C 
ATOM     19  C   UNL     1      29.529  56.975  45.927  1.00  0.00    -0.026 C 
ATOM     20  C   UNL     1      25.776  57.413  46.421  1.00  0.00     0.013 C 
ATOM     21  C   UNL     1      27.514  55.709  47.520  1.00  0.00    -0.020 C 
ATOM     22  C   UNL     1      30.028  56.592  47.296  1.00  0.00     0.032 C 
ATOM     23  C   UNL     1      26.577  55.303  48.680  1.00  0.00     0.008 C 
ATOM     24  C   UNL     1      29.000  55.722  48.131  1.00  0.00     0.006 C 
ATOM     25  C   UNL     1      26.935  53.894  49.222  1.00  0.00     0.005 C 
ATOM     26  C   UNL     1      29.523  54.335  48.669  1.00  0.00    -0.025 C 
ATOM     27  C   UNL     1      28.424  53.770  49.690  1.00  0.00     0.003 C 
ATOM     28  C   UNL     1      30.797  54.529  49.563  1.00  0.00     0.010 C 
ATOM     29  C   UNL     1      28.787  52.357  50.305  1.00  0.00    -0.006 C 
ATOM     30  C   UNL     1      31.309  53.184  50.115  1.00  0.00     0.033 C 
ATOM     31  C   UNL     1      30.252  52.378  50.905  1.00  0.00     0.127 C 
ATOM     32  C   UNL     1      29.959  58.457  41.343  1.00  0.00     0.011 C 
ATOM     33  C   UNL     1      27.610  56.310  41.858  1.00  0.00     0.043 C 
ATOM     34  C   UNL     1      27.504  58.315  47.954  1.00  0.00     0.017 C 
ATOM     35  C   UNL     1      27.274  54.663  46.352  1.00  0.00     0.012 C 
ATOM     36  C   UNL     1      29.967  53.467  47.432  1.00  0.00     0.012 C 
ATOM     37  C   UNL     1      27.830  52.031  51.485  1.00  0.00     0.014 C 
ATOM     38  C   UNL     1      28.578  51.190  49.285  1.00  0.00     0.014 C 
BRANCH  13  39
ATOM     39  O   UNL     1      29.564  56.400  43.164  1.00  0.00    -0.389 OA
ATOM     40  H   UNL     1      30.065  56.840  43.903  1.00  0.00     0.211 HD
ENDBRANCH  13  39
BRANCH  31  41
ATOM     41  O   UNL     1      30.716  51.043  50.916  1.00  0.00    -0.346 OA
BRANCH  41  42
ATOM     42  C   UNL     1      31.919  50.754  50.259  1.00  0.00     0.281 C 
ATOM     43  O   UNL     1      31.649  49.816  49.235  1.00  0.00    -0.347 OA
ATOM     44  C   UNL     1      32.836  50.159  51.377  1.00  0.00     0.202 C 
ATOM     45  C   UNL     1      32.820  49.335  48.569  1.00  0.00     0.198 C 
ATOM     46  C   UNL     1      33.802  49.068  50.853  1.00  0.00     0.179 C 
ATOM     47  C   UNL     1      34.132  49.400  49.399  1.00  0.00     0.171 C 
BRANCH  44  48
ATOM     48  O   UNL     1      33.525  51.199  52.026  1.00  0.00    -0.385 OA
ATOM     49  H   UNL     1      34.424  50.860  52.273  1.00  0.00     0.211 HD
ENDBRANCH  44  48
BRANCH  46  50
ATOM     50  O   UNL     1      33.235  47.776  50.944  1.00  0.00    -0.387 OA
ATOM     51  H   UNL     1      33.394  47.281  50.098  1.00  0.00     0.211 HD
ENDBRANCH  46  50
BRANCH  47  52
ATOM     52  O   UNL     1      35.118  48.550  48.866  1.00  0.00    -0.388 OA
ATOM     53  H   UNL     1      35.752  49.108  48.343  1.00  0.00     0.211 HD
ENDBRANCH  47  52
ENDBRANCH  41  42
ENDBRANCH  31  41
ENDBRANCH   8  10
ENDBRANCH   7   8
ENDBRANCH   1   7
BRANCH   6  54
ATOM     54  O   UNL     1      26.290  62.216  41.951  1.00  0.00    -0.384 OA
ATOM     55  H   UNL     1      26.260  63.172  41.688  1.00  0.00     0.211 HD
ENDBRANCH   6  54
BRANCH   3  56
ATOM     56  C   UNL     1      23.495  59.949  38.159  1.00  0.00     0.268 C 
BRANCH  56  57
ATOM     57  O   UNL     1      22.797  60.933  37.490  1.00  0.00    -0.459 OA
BRANCH  57  58
ATOM     58  C   UNL     1      23.128  61.436  36.278  1.00  0.00     0.338 C 
ATOM     59  O   UNL     1      24.296  61.631  35.976  1.00  0.00    -0.246 OA
BRANCH  58  60
ATOM     60  C   UNL     1      22.038  61.715  35.311  1.00  0.00     0.067 A 
ATOM     61  C   UNL     1      21.096  60.732  34.976  1.00  0.00     0.066 A 
ATOM     62  C   UNL     1      21.937  62.989  34.729  1.00  0.00     0.066 A 
ATOM     63  C   UNL     1      20.064  61.017  34.067  1.00  0.00     0.162 A 
ATOM     64  C   UNL     1      20.917  63.283  33.824  1.00  0.00     0.162 A 
ATOM     65  C   UNL     1      19.972  62.297  33.488  1.00  0.00     0.200 A 
BRANCH  63  66
ATOM     66  O   UNL     1      19.160  60.067  33.748  1.00  0.00    -0.504 OA
ATOM     67  H   UNL     1      18.274  60.285  33.428  1.00  0.00     0.293 HD
ENDBRANCH  63  66
BRANCH  64  68
ATOM     68  O   UNL     1      20.858  64.522  33.290  1.00  0.00    -0.504 OA
ATOM     69  H   UNL     1      20.538  64.693  32.395  1.00  0.00     0.293 HD
ENDBRANCH  64  68
BRANCH  65  70
ATOM     70  O   UNL     1      18.986  62.591  32.613  1.00  0.00    -0.502 OA
ATOM     71  H   UNL     1      18.402  63.355  32.718  1.00  0.00     0.293 HD
ENDBRANCH  65  70
ENDBRANCH  58  60
ENDBRANCH  57  58
ENDBRANCH  56  57
ENDBRANCH   3  56
BRANCH   5  72
ATOM     72  O   UNL     1      25.259  62.570  38.698  1.00  0.00    -0.387 OA
ATOM     73  H   UNL     1      26.037  61.988  38.510  1.00  0.00     0.211 HD
ENDBRANCH   5  72
BRANCH   4  74
ATOM     74  O   UNL     1      22.770  61.928  41.262  1.00  0.00    -0.387 OA
ATOM     75  H   UNL     1      21.822  62.189  41.121  1.00  0.00     0.211 HD
ENDBRANCH   4  74
TORSDOF 19
ENDMDL
MODEL 4
REMARK VINA RESULT:   -11.785      3.763     15.113
REMARK INTER + INTRA:         -22.955
REMARK INTER:                 -20.579
REMARK INTRA:                  -2.376
REMARK UNBOUND:                -1.526
REMARK SMILES C[C@@H]1CC[C@]2(C(=O)O[C@@H]3O[C@H](COC(=O)c4cc(O)c(O)c(O)c4)[C@@H](O)[C@H](O)[C@H]3O)CC[C@]3(C)C(=CC[C@@H]4[C@@]5(C)CC[C@H](O[C@@H]6OC[C@H](O)[C@H](O)[C@H]6O)C(C)(C)[C@@H]5CC[C@]43C)[C@@H]2[C@]1(C)O
REMARK SMILES IDX 9 1 10 2 11 3 25 4 27 5 29 6 8 7 6 8 7 9 5 10 2 11 3 12
REMARK SMILES IDX 63 13 4 14 62 15 35 16 31 17 33 18 36 19 32 20 60 21 37 22
REMARK SMILES IDX 59 23 38 24 58 25 39 26 57 27 41 28 54 29 42 30 43 31 1 32
REMARK SMILES IDX 64 33 34 34 61 35 40 36 55 37 56 38 65 39 44 41 45 42 46 43
REMARK SMILES IDX 52 44 47 45 50 46 48 47 53 48 51 50 49 52 30 54 12 56 13 57
REMARK SMILES IDX 14 58 15 59 16 60 17 61 24 62 18 63 22 64 20 65 19 66 23 68
REMARK SMILES IDX 21 70 28 72 26 74
REMARK H PARENT 65 40 53 49 51 51 49 53 30 55 19 67 23 69 21 71 28 73 26 75
ROOT
ATOM      1  C   UNL     1      29.380  58.837  47.506  1.00  0.00     0.342 C 
ATOM      2  O   UNL     1      30.649  59.295  47.094  1.00  0.00    -0.331 OA
ATOM      3  C   UNL     1      31.331  60.063  48.086  1.00  0.00     0.191 C 
ATOM      4  C   UNL     1      30.783  59.898  49.550  1.00  0.00     0.178 C 
ATOM      5  C   UNL     1      30.437  58.416  49.833  1.00  0.00     0.181 C 
ATOM      6  C   UNL     1      29.556  57.821  48.674  1.00  0.00     0.214 C 
ENDROOT
BRANCH   1   7
ATOM      7  O   UNL     1      28.775  58.238  46.422  1.00  0.00    -0.432 OA
BRANCH   7   8
ATOM      8  C   UNL     1      27.761  58.781  45.699  1.00  0.00     0.315 C 
ATOM      9  O   UNL     1      26.996  59.587  46.217  1.00  0.00    -0.252 OA
BRANCH   8  10
ATOM     10  C   UNL     1      27.490  58.308  44.279  1.00  0.00     0.077 C 
ATOM     11  C   UNL     1      30.092  59.395  43.648  1.00  0.00     0.018 C 
ATOM     12  C   UNL     1      29.838  57.985  43.101  1.00  0.00     0.007 C 
ATOM     13  C   UNL     1      28.877  60.334  43.296  1.00  0.00     0.072 C 
ATOM     14  C   UNL     1      28.596  57.307  43.769  1.00  0.00     0.020 C 
ATOM     15  C   UNL     1      27.494  59.510  43.283  1.00  0.00     0.064 C 
ATOM     16  C   UNL     1      26.841  59.016  41.947  1.00  0.00    -0.061 C 
ATOM     17  C   UNL     1      26.079  57.600  44.366  1.00  0.00     0.020 C 
ATOM     18  C   UNL     1      25.397  58.456  42.051  1.00  0.00    -0.006 C 
ATOM     19  C   UNL     1      27.346  59.220  40.699  1.00  0.00    -0.026 C 
ATOM     20  C   UNL     1      24.989  58.349  43.565  1.00  0.00     0.013 C 
ATOM     21  C   UNL     1      24.540  59.502  41.197  1.00  0.00    -0.020 C 
ATOM     22  C   UNL     1      26.511  58.987  39.466  1.00  0.00     0.032 C 
ATOM     23  C   UNL     1      23.010  59.283  41.239  1.00  0.00     0.008 C 
ATOM     24  C   UNL     1      24.975  59.320  39.662  1.00  0.00     0.006 C 
ATOM     25  C   UNL     1      22.272  60.324  40.357  1.00  0.00     0.005 C 
ATOM     26  C   UNL     1      24.344  60.356  38.652  1.00  0.00    -0.025 C 
ATOM     27  C   UNL     1      22.755  60.329  38.868  1.00  0.00     0.003 C 
ATOM     28  C   UNL     1      24.527  59.872  37.172  1.00  0.00     0.010 C 
ATOM     29  C   UNL     1      21.967  61.342  37.942  1.00  0.00    -0.006 C 
ATOM     30  C   UNL     1      23.897  60.863  36.174  1.00  0.00     0.033 C 
ATOM     31  C   UNL     1      22.401  61.158  36.430  1.00  0.00     0.127 C 
ATOM     32  C   UNL     1      31.439  59.967  43.166  1.00  0.00     0.011 C 
ATOM     33  C   UNL     1      28.853  61.492  44.339  1.00  0.00     0.043 C 
ATOM     34  C   UNL     1      25.265  56.981  41.515  1.00  0.00     0.017 C 
ATOM     35  C   UNL     1      24.812  60.939  41.810  1.00  0.00     0.012 C 
ATOM     36  C   UNL     1      25.134  61.711  38.787  1.00  0.00     0.012 C 
ATOM     37  C   UNL     1      20.443  61.042  38.004  1.00  0.00     0.014 C 
ATOM     38  C   UNL     1      22.103  62.824  38.423  1.00  0.00     0.014 C 
BRANCH  13  39
ATOM     39  O   UNL     1      29.097  60.965  42.060  1.00  0.00    -0.389 OA
ATOM     40  H   UNL     1      28.316  61.550  41.863  1.00  0.00     0.211 HD
ENDBRANCH  13  39
BRANCH  31  41
ATOM     41  O   UNL     1      22.130  62.377  35.768  1.00  0.00    -0.346 OA
BRANCH  41  42
ATOM     42  C   UNL     1      21.086  62.406  34.834  1.00  0.00     0.281 C 
ATOM     43  O   UNL     1      21.633  62.145  33.554  1.00  0.00    -0.347 OA
ATOM     44  C   UNL     1      20.508  63.853  34.945  1.00  0.00     0.202 C 
ATOM     45  C   UNL     1      20.689  62.275  32.487  1.00  0.00     0.198 C 
ATOM     46  C   UNL     1      19.986  64.404  33.594  1.00  0.00     0.179 C 
ATOM     47  C   UNL     1      19.487  63.218  32.771  1.00  0.00     0.171 C 
BRANCH  44  48
ATOM     48  O   UNL     1      19.518  63.892  35.942  1.00  0.00    -0.385 OA
ATOM     49  H   UNL     1      18.722  64.348  35.563  1.00  0.00     0.211 HD
ENDBRANCH  44  48
BRANCH  46  50
ATOM     50  O   UNL     1      20.993  65.102  32.887  1.00  0.00    -0.387 OA
ATOM     51  H   UNL     1      20.590  65.868  32.400  1.00  0.00     0.211 HD
ENDBRANCH  46  50
BRANCH  47  52
ATOM     52  O   UNL     1      18.858  63.620  31.579  1.00  0.00    -0.388 OA
ATOM     53  H   UNL     1      18.801  62.827  30.982  1.00  0.00     0.211 HD
ENDBRANCH  47  52
ENDBRANCH  41  42
ENDBRANCH  31  41
ENDBRANCH   8  10
ENDBRANCH   7   8
ENDBRANCH   1   7
BRANCH   6  54
ATOM     54  O   UNL     1      28.318  57.369  49.158  1.00  0.00    -0.384 OA
ATOM     55  H   UNL     1      27.835  56.958  48.395  1.00  0.00     0.211 HD
ENDBRANCH   6  54
BRANCH   3  56
ATOM     56  C   UNL     1      32.823  59.740  47.973  1.00  0.00     0.268 C 
BRANCH  56  57
ATOM     57  O   UNL     1      33.352  60.467  46.927  1.00  0.00    -0.459 OA
BRANCH  57  58
ATOM     58  C   UNL     1      34.600  60.314  46.425  1.00  0.00     0.338 C 
ATOM     59  O   UNL     1      35.492  61.098  46.709  1.00  0.00    -0.246 OA
BRANCH  58  60
ATOM     60  C   UNL     1      34.866  59.150  45.545  1.00  0.00     0.067 A 
ATOM     61  C   UNL     1      36.175  58.726  45.277  1.00  0.00     0.066 A 
ATOM     62  C   UNL     1      33.788  58.448  44.979  1.00  0.00     0.066 A 
ATOM     63  C   UNL     1      36.407  57.615  44.449  1.00  0.00     0.162 A 
ATOM     64  C   UNL     1      34.007  57.344  44.156  1.00  0.00     0.162 A 
ATOM     65  C   UNL     1      35.321  56.919  43.886  1.00  0.00     0.200 A 
BRANCH  63  66
ATOM     66  O   UNL     1      37.669  57.212  44.195  1.00  0.00    -0.504 OA
ATOM     67  H   UNL     1      38.066  56.449  44.637  1.00  0.00     0.293 HD
ENDBRANCH  63  66
BRANCH  64  68
ATOM     68  O   UNL     1      32.941  56.700  43.635  1.00  0.00    -0.504 OA
ATOM     69  H   UNL     1      32.429  56.046  44.129  1.00  0.00     0.293 HD
ENDBRANCH  64  68
BRANCH  65  70
ATOM     70  O   UNL     1      35.523  55.847  43.090  1.00  0.00    -0.502 OA
ATOM     71  H   UNL     1      36.093  55.108  43.340  1.00  0.00     0.293 HD
ENDBRANCH  65  70
ENDBRANCH  58  60
ENDBRANCH  57  58
ENDBRANCH  56  57
ENDBRANCH   3  56
BRANCH   5  72
ATOM     72  O   UNL     1      31.605  57.668  50.093  1.00  0.00    -0.387 OA
ATOM     73  H   UNL     1      31.393  56.705  50.167  1.00  0.00     0.211 HD
ENDBRANCH   5  72
BRANCH   4  74
ATOM     74  O   UNL     1      29.620  60.682  49.684  1.00  0.00    -0.387 OA
ATOM     75  H   UNL     1      29.649  61.109  50.581  1.00  0.00     0.211 HD
ENDBRANCH   4  74
TORSDOF 19
ENDMDL
MODEL 5
REMARK VINA RESULT:   -11.620      3.087     13.596
REMARK INTER + INTRA:         -22.657
REMARK INTER:                 -20.234
REMARK INTRA:                  -2.422
REMARK UNBOUND:                -1.526
REMARK SMILES C[C@@H]1CC[C@]2(C(=O)O[C@@H]3O[C@H](COC(=O)c4cc(O)c(O)c(O)c4)[C@@H](O)[C@H](O)[C@H]3O)CC[C@]3(C)C(=CC[C@@H]4[C@@]5(C)CC[C@H](O[C@@H]6OC[C@H](O)[C@H](O)[C@H]6O)C(C)(C)[C@@H]5CC[C@]43C)[C@@H]2[C@]1(C)O
REMARK SMILES IDX 9 1 10 2 11 3 25 4 27 5 29 6 8 7 6 8 7 9 5 10 2 11 3 12
REMARK SMILES IDX 63 13 4 14 62 15 35 16 31 17 33 18 36 19 32 20 60 21 37 22
REMARK SMILES IDX 59 23 38 24 58 25 39 26 57 27 41 28 54 29 42 30 43 31 1 32
REMARK SMILES IDX 64 33 34 34 61 35 40 36 55 37 56 38 65 39 44 41 45 42 46 43
REMARK SMILES IDX 52 44 47 45 50 46 48 47 53 48 51 50 49 52 30 54 12 56 13 57
REMARK SMILES IDX 14 58 15 59 16 60 17 61 24 62 18 63 22 64 20 65 19 66 23 68
REMARK SMILES IDX 21 70 28 72 26 74
REMARK H PARENT 65 40 53 49 51 51 49 53 30 55 19 67 23 69 21 71 28 73 26 75
ROOT
ATOM      1  C   UNL     1      30.026  54.832  50.312  1.00  0.00     0.342 C 
ATOM      2  O   UNL     1      29.195  54.352  49.278  1.00  0.00    -0.331 OA
ATOM      3  C   UNL     1      29.059  52.930  49.265  1.00  0.00     0.191 C 
ATOM      4  C   UNL     1      29.467  52.209  50.601  1.00  0.00     0.178 C 
ATOM      5  C   UNL     1      28.966  53.016  51.824  1.00  0.00     0.181 C 
ATOM      6  C   UNL     1      29.358  54.532  51.687  1.00  0.00     0.214 C 
ENDROOT
BRANCH   1   7
ATOM      7  O   UNL     1      30.186  56.189  50.129  1.00  0.00    -0.432 OA
BRANCH   7   8
ATOM      8  C   UNL     1      31.341  56.791  49.744  1.00  0.00     0.315 C 
ATOM      9  O   UNL     1      32.291  56.857  50.518  1.00  0.00    -0.252 OA
BRANCH   8  10
ATOM     10  C   UNL     1      31.431  57.492  48.397  1.00  0.00     0.077 C 
ATOM     11  C   UNL     1      31.328  59.951  49.910  1.00  0.00     0.018 C 
ATOM     12  C   UNL     1      32.422  59.906  48.837  1.00  0.00     0.007 C 
ATOM     13  C   UNL     1      29.952  59.493  49.293  1.00  0.00     0.072 C 
ATOM     14  C   UNL     1      32.678  58.453  48.314  1.00  0.00     0.020 C 
ATOM     15  C   UNL     1      30.173  58.381  48.149  1.00  0.00     0.064 C 
ATOM     16  C   UNL     1      30.152  58.751  46.626  1.00  0.00    -0.061 C 
ATOM     17  C   UNL     1      31.553  56.312  47.351  1.00  0.00     0.020 C 
ATOM     18  C   UNL     1      30.129  57.561  45.629  1.00  0.00    -0.006 C 
ATOM     19  C   UNL     1      29.950  59.998  46.119  1.00  0.00    -0.026 C 
ATOM     20  C   UNL     1      30.323  56.217  46.419  1.00  0.00     0.013 C 
ATOM     21  C   UNL     1      28.709  57.718  44.910  1.00  0.00    -0.020 C 
ATOM     22  C   UNL     1      29.639  60.213  44.660  1.00  0.00     0.032 C 
ATOM     23  C   UNL     1      28.333  56.569  43.947  1.00  0.00     0.008 C 
ATOM     24  C   UNL     1      28.784  59.048  44.012  1.00  0.00     0.006 C 
ATOM     25  C   UNL     1      26.957  56.829  43.277  1.00  0.00     0.005 C 
ATOM     26  C   UNL     1      27.433  59.469  43.313  1.00  0.00    -0.025 C 
ATOM     27  C   UNL     1      26.889  58.192  42.510  1.00  0.00     0.003 C 
ATOM     28  C   UNL     1      27.695  60.531  42.189  1.00  0.00     0.010 C 
ATOM     29  C   UNL     1      25.512  58.441  41.769  1.00  0.00    -0.006 C 
ATOM     30  C   UNL     1      26.388  60.938  41.482  1.00  0.00     0.033 C 
ATOM     31  C   UNL     1      25.593  59.753  40.885  1.00  0.00     0.127 C 
ATOM     32  C   UNL     1      31.240  61.333  50.586  1.00  0.00     0.011 C 
ATOM     33  C   UNL     1      29.064  58.958  50.457  1.00  0.00     0.043 C 
ATOM     34  C   UNL     1      31.331  57.584  44.612  1.00  0.00     0.017 C 
ATOM     35  C   UNL     1      27.608  57.735  46.051  1.00  0.00     0.012 C 
ATOM     36  C   UNL     1      26.523  60.167  44.392  1.00  0.00     0.012 C 
ATOM     37  C   UNL     1      25.217  57.268  40.793  1.00  0.00     0.014 C 
ATOM     38  C   UNL     1      24.297  58.461  42.752  1.00  0.00     0.014 C 
BRANCH  13  39
ATOM     39  O   UNL     1      29.256  60.603  48.787  1.00  0.00    -0.389 OA
ATOM     40  H   UNL     1      28.350  60.618  49.197  1.00  0.00     0.211 HD
ENDBRANCH  13  39
BRANCH  31  41
ATOM     41  O   UNL     1      24.271  60.223  40.717  1.00  0.00    -0.346 OA
BRANCH  41  42
ATOM     42  C   UNL     1      23.849  60.565  39.426  1.00  0.00     0.281 C 
ATOM     43  O   UNL     1      24.631  59.835  38.499  1.00  0.00    -0.347 OA
ATOM     44  C   UNL     1      24.104  62.103  39.330  1.00  0.00     0.202 C 
ATOM     45  C   UNL     1      24.389  60.190  37.134  1.00  0.00     0.198 C 
ATOM     46  C   UNL     1      24.510  62.565  37.908  1.00  0.00     0.179 C 
ATOM     47  C   UNL     1      23.840  61.626  36.907  1.00  0.00     0.171 C 
BRANCH  44  48
ATOM     48  O   UNL     1      22.978  62.800  39.803  1.00  0.00    -0.385 OA
ATOM     49  H   UNL     1      22.523  62.225  40.471  1.00  0.00     0.211 HD
ENDBRANCH  44  48
BRANCH  46  50
ATOM     50  O   UNL     1      25.914  62.548  37.731  1.00  0.00    -0.387 OA
ATOM     51  H   UNL     1      26.362  62.777  38.587  1.00  0.00     0.211 HD
ENDBRANCH  46  50
BRANCH  47  52
ATOM     52  O   UNL     1      24.027  62.040  35.576  1.00  0.00    -0.388 OA
ATOM     53  H   UNL     1      24.718  61.455  35.168  1.00  0.00     0.211 HD
ENDBRANCH  47  52
ENDBRANCH  41  42
ENDBRANCH  31  41
ENDBRANCH   8  10
ENDBRANCH   7   8
ENDBRANCH   1   7
BRANCH   6  54
ATOM     54  O   UNL     1      30.169  54.945  52.757  1.00  0.00    -0.384 OA
ATOM     55  H   UNL     1      30.833  54.225  52.918  1.00  0.00     0.211 HD
ENDBRANCH   6  54
BRANCH   3  56
ATOM     56  C   UNL     1      27.625  52.609  48.833  1.00  0.00     0.268 C 
BRANCH  56  57
ATOM     57  O   UNL     1      27.667  51.968  47.613  1.00  0.00    -0.459 OA
BRANCH  57  58
ATOM     58  C   UNL     1      28.314  50.804  47.366  1.00  0.00     0.338 C 
ATOM     59  O   UNL     1      28.070  49.800  48.017  1.00  0.00    -0.246 OA
BRANCH  58  60
ATOM     60  C   UNL     1      29.305  50.772  46.263  1.00  0.00     0.067 A 
ATOM     61  C   UNL     1      29.958  49.583  45.909  1.00  0.00     0.066 A 
ATOM     62  C   UNL     1      29.587  51.948  45.549  1.00  0.00     0.066 A 
ATOM     63  C   UNL     1      30.886  49.568  44.855  1.00  0.00     0.162 A 
ATOM     64  C   UNL     1      30.507  51.945  44.500  1.00  0.00     0.162 A 
ATOM     65  C   UNL     1      31.163  50.752  44.146  1.00  0.00     0.200 A 
BRANCH  63  66
ATOM     66  O   UNL     1      31.512  48.421  44.519  1.00  0.00    -0.504 OA
ATOM     67  H   UNL     1      31.760  48.216  43.607  1.00  0.00     0.293 HD
ENDBRANCH  63  66
BRANCH  64  68
ATOM     68  O   UNL     1      30.745  53.099  43.842  1.00  0.00    -0.504 OA
ATOM     69  H   UNL     1      30.556  53.968  44.219  1.00  0.00     0.293 HD
ENDBRANCH  64  68
BRANCH  65  70
ATOM     70  O   UNL     1      32.050  50.758  43.128  1.00  0.00    -0.502 OA
ATOM     71  H   UNL     1      31.934  50.229  42.327  1.00  0.00     0.293 HD
ENDBRANCH  65  70
ENDBRANCH  58  60
ENDBRANCH  57  58
ENDBRANCH  56  57
ENDBRANCH   3  56
BRANCH   5  72
ATOM     72  O   UNL     1      27.585  52.807  52.031  1.00  0.00    -0.387 OA
ATOM     73  H   UNL     1      27.056  53.247  51.321  1.00  0.00     0.211 HD
ENDBRANCH   5  72
BRANCH   4  74
ATOM     74  O   UNL     1      30.871  52.115  50.648  1.00  0.00    -0.387 OA
ATOM     75  H   UNL     1      31.104  51.466  51.363  1.00  0.00     0.211 HD
ENDBRANCH   4  74
TORSDOF 19
ENDMDL
MODEL 6
REMARK VINA RESULT:   -11.535      4.145     14.952
REMARK INTER + INTRA:         -22.501
REMARK INTER:                 -21.021
REMARK INTRA:                  -1.480
REMARK UNBOUND:                -1.526
REMARK SMILES C[C@@H]1CC[C@]2(C(=O)O[C@@H]3O[C@H](COC(=O)c4cc(O)c(O)c(O)c4)[C@@H](O)[C@H](O)[C@H]3O)CC[C@]3(C)C(=CC[C@@H]4[C@@]5(C)CC[C@H](O[C@@H]6OC[C@H](O)[C@H](O)[C@H]6O)C(C)(C)[C@@H]5CC[C@]43C)[C@@H]2[C@]1(C)O
REMARK SMILES IDX 9 1 10 2 11 3 25 4 27 5 29 6 8 7 6 8 7 9 5 10 2 11 3 12
REMARK SMILES IDX 63 13 4 14 62 15 35 16 31 17 33 18 36 19 32 20 60 21 37 22
REMARK SMILES IDX 59 23 38 24 58 25 39 26 57 27 41 28 54 29 42 30 43 31 1 32
REMARK SMILES IDX 64 33 34 34 61 35 40 36 55 37 56 38 65 39 44 41 45 42 46 43
REMARK SMILES IDX 52 44 47 45 50 46 48 47 53 48 51 50 49 52 30 54 12 56 13 57
REMARK SMILES IDX 14 58 15 59 16 60 17 61 24 62 18 63 22 64 20 65 19 66 23 68
REMARK SMILES IDX 21 70 28 72 26 74
REMARK H PARENT 65 40 53 49 51 51 49 53 30 55 19 67 23 69 21 71 28 73 26 75
ROOT
ATOM      1  C   UNL     1      32.443  57.767  45.797  1.00  0.00     0.342 C 
ATOM      2  O   UNL     1      32.326  58.818  46.730  1.00  0.00    -0.331 OA
ATOM      3  C   UNL     1      33.504  59.029  47.509  1.00  0.00     0.191 C 
ATOM      4  C   UNL     1      34.815  58.391  46.920  1.00  0.00     0.178 C 
ATOM      5  C   UNL     1      34.866  58.584  45.385  1.00  0.00     0.181 C 
ATOM      6  C   UNL     1      33.507  58.150  44.725  1.00  0.00     0.214 C 
ENDROOT
BRANCH   1   7
ATOM      7  O   UNL     1      31.208  57.577  45.217  1.00  0.00    -0.432 OA
BRANCH   7   8
ATOM      8  C   UNL     1      30.636  58.415  44.314  1.00  0.00     0.315 C 
ATOM      9  O   UNL     1      31.333  59.029  43.513  1.00  0.00    -0.252 OA
BRANCH   8  10
ATOM     10  C   UNL     1      29.141  58.692  44.361  1.00  0.00     0.077 C 
ATOM     11  C   UNL     1      28.826  55.821  44.418  1.00  0.00     0.018 C 
ATOM     12  C   UNL     1      27.987  56.576  45.456  1.00  0.00     0.007 C 
ATOM     13  C   UNL     1      28.645  56.480  42.999  1.00  0.00     0.072 C 
ATOM     14  C   UNL     1      28.462  58.057  45.635  1.00  0.00     0.020 C 
ATOM     15  C   UNL     1      28.421  58.069  43.124  1.00  0.00     0.064 C 
ATOM     16  C   UNL     1      26.992  58.709  43.040  1.00  0.00    -0.061 C 
ATOM     17  C   UNL     1      29.037  60.270  44.390  1.00  0.00     0.020 C 
ATOM     18  C   UNL     1      26.936  60.257  42.926  1.00  0.00    -0.006 C 
ATOM     19  C   UNL     1      25.830  58.024  42.857  1.00  0.00    -0.026 C 
ATOM     20  C   UNL     1      28.381  60.844  43.113  1.00  0.00     0.013 C 
ATOM     21  C   UNL     1      26.298  60.490  41.479  1.00  0.00    -0.020 C 
ATOM     22  C   UNL     1      24.553  58.730  42.481  1.00  0.00     0.032 C 
ATOM     23  C   UNL     1      26.250  61.965  41.015  1.00  0.00     0.008 C 
ATOM     24  C   UNL     1      24.771  59.997  41.555  1.00  0.00     0.006 C 
ATOM     25  C   UNL     1      25.586  62.091  39.619  1.00  0.00     0.005 C 
ATOM     26  C   UNL     1      23.985  60.014  40.187  1.00  0.00    -0.025 C 
ATOM     27  C   UNL     1      24.146  61.481  39.559  1.00  0.00     0.003 C 
ATOM     28  C   UNL     1      22.442  59.880  40.430  1.00  0.00     0.010 C 
ATOM     29  C   UNL     1      23.432  61.659  38.158  1.00  0.00    -0.006 C 
ATOM     30  C   UNL     1      21.657  59.916  39.104  1.00  0.00     0.033 C 
ATOM     31  C   UNL     1      21.928  61.170  38.240  1.00  0.00     0.127 C 
ATOM     32  C   UNL     1      28.512  54.312  44.412  1.00  0.00     0.011 C 
ATOM     33  C   UNL     1      29.907  56.138  42.151  1.00  0.00     0.043 C 
ATOM     34  C   UNL     1      26.098  60.931  44.076  1.00  0.00     0.017 C 
ATOM     35  C   UNL     1      27.207  59.715  40.437  1.00  0.00     0.012 C 
ATOM     36  C   UNL     1      24.424  58.750  39.356  1.00  0.00     0.012 C 
ATOM     37  C   UNL     1      23.387  63.164  37.773  1.00  0.00     0.014 C 
ATOM     38  C   UNL     1      24.218  60.971  36.994  1.00  0.00     0.014 C 
BRANCH  13  39
ATOM     39  O   UNL     1      27.576  55.874  42.317  1.00  0.00    -0.389 OA
ATOM     40  H   UNL     1      26.996  55.419  42.986  1.00  0.00     0.211 HD
ENDBRANCH  13  39
BRANCH  31  41
ATOM     41  O   UNL     1      21.530  60.826  36.928  1.00  0.00    -0.346 OA
BRANCH  41  42
ATOM     42  C   UNL     1      20.784  61.759  36.196  1.00  0.00     0.281 C 
ATOM     43  O   UNL     1      19.421  61.601  36.541  1.00  0.00    -0.347 OA
ATOM     44  C   UNL     1      21.062  61.390  34.703  1.00  0.00     0.202 C 
ATOM     45  C   UNL     1      18.532  62.410  35.764  1.00  0.00     0.198 C 
ATOM     46  C   UNL     1      19.846  61.646  33.778  1.00  0.00     0.179 C 
ATOM     47  C   UNL     1      19.059  62.818  34.360  1.00  0.00     0.171 C 
BRANCH  44  48
ATOM     48  O   UNL     1      22.210  62.067  34.255  1.00  0.00    -0.385 OA
ATOM     49  H   UNL     1      21.948  62.630  33.481  1.00  0.00     0.211 HD
ENDBRANCH  44  48
BRANCH  46  50
ATOM     50  O   UNL     1      19.017  60.504  33.672  1.00  0.00    -0.387 OA
ATOM     51  H   UNL     1      19.385  59.771  34.231  1.00  0.00     0.211 HD
ENDBRANCH  46  50
BRANCH  47  52
ATOM     52  O   UNL     1      18.008  63.228  33.519  1.00  0.00    -0.388 OA
ATOM     53  H   UNL     1      17.154  62.945  33.938  1.00  0.00     0.211 HD
ENDBRANCH  47  52
ENDBRANCH  41  42
ENDBRANCH  31  41
ENDBRANCH   8  10
ENDBRANCH   7   8
ENDBRANCH   1   7
BRANCH   6  54
ATOM     54  O   UNL     1      33.702  57.114  43.796  1.00  0.00    -0.384 OA
ATOM     55  H   UNL     1      34.411  57.411  43.169  1.00  0.00     0.211 HD
ENDBRANCH   6  54
BRANCH   3  56
ATOM     56  C   UNL     1      33.635  60.535  47.748  1.00  0.00     0.268 C 
BRANCH  56  57
ATOM     57  O   UNL     1      32.391  61.040  48.061  1.00  0.00    -0.459 OA
BRANCH  57  58
ATOM     58  C   UNL     1      32.072  61.664  49.220  1.00  0.00     0.338 C 
ATOM     59  O   UNL     1      32.554  62.750  49.501  1.00  0.00    -0.246 OA
BRANCH  58  60
ATOM     60  C   UNL     1      31.097  61.009  50.126  1.00  0.00     0.067 A 
ATOM     61  C   UNL     1      30.285  59.957  49.680  1.00  0.00     0.066 A 
ATOM     62  C   UNL     1      30.993  61.438  51.460  1.00  0.00     0.066 A 
ATOM     63  C   UNL     1      29.374  59.342  50.555  1.00  0.00     0.162 A 
ATOM     64  C   UNL     1      30.093  60.834  52.337  1.00  0.00     0.162 A 
ATOM     65  C   UNL     1      29.277  59.779  51.889  1.00  0.00     0.200 A 
BRANCH  63  66
ATOM     66  O   UNL     1      28.594  58.330  50.119  1.00  0.00    -0.504 OA
ATOM     67  H   UNL     1      28.413  57.550  50.660  1.00  0.00     0.293 HD
ENDBRANCH  63  66
BRANCH  64  68
ATOM     68  O   UNL     1      30.028  61.279  53.610  1.00  0.00    -0.504 OA
ATOM     69  H   UNL     1      29.569  60.798  54.312  1.00  0.00     0.293 HD
ENDBRANCH  64  68
BRANCH  65  70
ATOM     70  O   UNL     1      28.409  59.199  52.746  1.00  0.00    -0.502 OA
ATOM     71  H   UNL     1      27.468  59.097  52.552  1.00  0.00     0.293 HD
ENDBRANCH  65  70
ENDBRANCH  58  60
ENDBRANCH  57  58
ENDBRANCH  56  57
ENDBRANCH   3  56
BRANCH   5  72
ATOM     72  O   UNL     1      35.256  59.901  45.057  1.00  0.00    -0.387 OA
ATOM     73  H   UNL     1      35.367  60.445  45.875  1.00  0.00     0.211 HD
ENDBRANCH   5  72
BRANCH   4  74
ATOM     74  O   UNL     1      34.815  57.014  47.216  1.00  0.00    -0.387 OA
ATOM     75  H   UNL     1      34.515  56.533  46.401  1.00  0.00     0.211 HD
ENDBRANCH   4  74
TORSDOF 19
ENDMDL
MODEL 7
REMARK VINA RESULT:   -11.440      4.254     13.704
REMARK INTER + INTRA:         -22.329
REMARK INTER:                 -19.107
REMARK INTRA:                  -3.222
REMARK UNBOUND:                -1.526
REMARK SMILES C[C@@H]1CC[C@]2(C(=O)O[C@@H]3O[C@H](COC(=O)c4cc(O)c(O)c(O)c4)[C@@H](O)[C@H](O)[C@H]3O)CC[C@]3(C)C(=CC[C@@H]4[C@@]5(C)CC[C@H](O[C@@H]6OC[C@H](O)[C@H](O)[C@H]6O)C(C)(C)[C@@H]5CC[C@]43C)[C@@H]2[C@]1(C)O
REMARK SMILES IDX 9 1 10 2 11 3 25 4 27 5 29 6 8 7 6 8 7 9 5 10 2 11 3 12
REMARK SMILES IDX 63 13 4 14 62 15 35 16 31 17 33 18 36 19 32 20 60 21 37 22
REMARK SMILES IDX 59 23 38 24 58 25 39 26 57 27 41 28 54 29 42 30 43 31 1 32
REMARK SMILES IDX 64 33 34 34 61 35 40 36 55 37 56 38 65 39 44 41 45 42 46 43
REMARK SMILES IDX 52 44 47 45 50 46 48 47 53 48 51 50 49 52 30 54 12 56 13 57
REMARK SMILES IDX 14 58 15 59 16 60 17 61 24 62 18 63 22 64 20 65 19 66 23 68
REMARK SMILES IDX 21 70 28 72 26 74
REMARK H PARENT 65 40 53 49 51 51 49 53 30 55 19 67 23 69 21 71 28 73 26 75
ROOT
ATOM      1  C   UNL     1      35.225  55.107  45.493  1.00  0.00     0.342 C 
ATOM      2  O   UNL     1      35.308  56.015  46.570  1.00  0.00    -0.331 OA
ATOM      3  C   UNL     1      36.633  56.478  46.829  1.00  0.00     0.191 C 
ATOM      4  C   UNL     1      37.655  56.266  45.653  1.00  0.00     0.178 C 
ATOM      5  C   UNL     1      36.985  56.580  44.294  1.00  0.00     0.181 C 
ATOM      6  C   UNL     1      35.601  55.843  44.173  1.00  0.00     0.214 C 
ENDROOT
BRANCH   1   7
ATOM      7  O   UNL     1      33.932  54.633  45.439  1.00  0.00    -0.432 OA
BRANCH   7   8
ATOM      8  C   UNL     1      33.202  54.239  46.515  1.00  0.00     0.315 C 
ATOM      9  O   UNL     1      33.650  53.402  47.292  1.00  0.00    -0.252 OA
BRANCH   8  10
ATOM     10  C   UNL     1      31.779  54.741  46.705  1.00  0.00     0.077 C 
ATOM     11  C   UNL     1      30.964  52.084  45.912  1.00  0.00     0.018 C 
ATOM     12  C   UNL     1      30.258  52.623  47.162  1.00  0.00     0.007 C 
ATOM     13  C   UNL     1      30.920  53.162  44.764  1.00  0.00     0.072 C 
ATOM     14  C   UNL     1      30.983  53.876  47.757  1.00  0.00     0.020 C 
ATOM     15  C   UNL     1      30.977  54.653  45.369  1.00  0.00     0.064 C 
ATOM     16  C   UNL     1      29.684  55.524  45.539  1.00  0.00    -0.061 C 
ATOM     17  C   UNL     1      31.954  56.229  47.209  1.00  0.00     0.020 C 
ATOM     18  C   UNL     1      29.902  57.019  45.896  1.00  0.00    -0.006 C 
ATOM     19  C   UNL     1      28.422  55.135  45.207  1.00  0.00    -0.026 C 
ATOM     20  C   UNL     1      31.425  57.266  46.191  1.00  0.00     0.013 C 
ATOM     21  C   UNL     1      29.333  57.784  44.613  1.00  0.00    -0.020 C 
ATOM     22  C   UNL     1      27.293  56.129  45.113  1.00  0.00     0.032 C 
ATOM     23  C   UNL     1      29.550  59.315  44.615  1.00  0.00     0.008 C 
ATOM     24  C   UNL     1      27.743  57.560  44.600  1.00  0.00     0.006 C 
ATOM     25  C   UNL     1      28.937  59.968  43.348  1.00  0.00     0.005 C 
ATOM     26  C   UNL     1      26.989  58.123  43.334  1.00  0.00    -0.025 C 
ATOM     27  C   UNL     1      27.413  59.661  43.168  1.00  0.00     0.003 C 
ATOM     28  C   UNL     1      25.443  58.188  43.589  1.00  0.00     0.010 C 
ATOM     29  C   UNL     1      26.759  60.373  41.914  1.00  0.00    -0.006 C 
ATOM     30  C   UNL     1      24.694  58.757  42.367  1.00  0.00     0.033 C 
ATOM     31  C   UNL     1      25.191  60.147  41.908  1.00  0.00     0.127 C 
ATOM     32  C   UNL     1      30.391  50.725  45.467  1.00  0.00     0.011 C 
ATOM     33  C   UNL     1      32.113  52.881  43.802  1.00  0.00     0.043 C 
ATOM     34  C   UNL     1      29.181  57.447  47.229  1.00  0.00     0.017 C 
ATOM     35  C   UNL     1      30.105  57.216  43.350  1.00  0.00     0.012 C 
ATOM     36  C   UNL     1      27.210  57.114  42.145  1.00  0.00     0.012 C 
ATOM     37  C   UNL     1      26.984  61.909  42.001  1.00  0.00     0.014 C 
ATOM     38  C   UNL     1      27.427  59.945  40.567  1.00  0.00     0.014 C 
BRANCH  13  39
ATOM     39  O   UNL     1      29.770  52.983  43.977  1.00  0.00    -0.389 OA
ATOM     40  H   UNL     1      29.980  53.266  43.047  1.00  0.00     0.211 HD
ENDBRANCH  13  39
BRANCH  31  41
ATOM     41  O   UNL     1      24.757  60.289  40.571  1.00  0.00    -0.346 OA
BRANCH  41  42
ATOM     42  C   UNL     1      23.741  61.216  40.300  1.00  0.00     0.281 C 
ATOM     43  O   UNL     1      22.514  60.516  40.228  1.00  0.00    -0.347 OA
ATOM     44  C   UNL     1      24.146  61.840  38.925  1.00  0.00     0.202 C 
ATOM     45  C   UNL     1      21.408  61.330  39.825  1.00  0.00     0.198 C 
ATOM     46  C   UNL     1      22.927  62.214  38.046  1.00  0.00     0.179 C 
ATOM     47  C   UNL     1      21.776  62.582  38.980  1.00  0.00     0.171 C 
BRANCH  44  48
ATOM     48  O   UNL     1      24.993  62.942  39.138  1.00  0.00    -0.385 OA
ATOM     49  H   UNL     1      24.502  63.760  38.867  1.00  0.00     0.211 HD
ENDBRANCH  44  48
BRANCH  46  50
ATOM     50  O   UNL     1      22.546  61.149  37.196  1.00  0.00    -0.387 OA
ATOM     51  H   UNL     1      21.568  60.998  37.267  1.00  0.00     0.211 HD
ENDBRANCH  46  50
BRANCH  47  52
ATOM     52  O   UNL     1      20.658  63.076  38.284  1.00  0.00    -0.388 OA
ATOM     53  H   UNL     1      20.069  63.535  38.939  1.00  0.00     0.211 HD
ENDBRANCH  47  52
ENDBRANCH  41  42
ENDBRANCH  31  41
ENDBRANCH   8  10
ENDBRANCH   7   8
ENDBRANCH   1   7
BRANCH   6  54
ATOM     54  O   UNL     1      35.585  54.972  43.072  1.00  0.00    -0.384 OA
ATOM     55  H   UNL     1      35.618  55.532  42.253  1.00  0.00     0.211 HD
ENDBRANCH   6  54
BRANCH   3  56
ATOM     56  C   UNL     1      36.532  57.942  47.268  1.00  0.00     0.268 C 
BRANCH  56  57
ATOM     57  O   UNL     1      35.454  58.518  46.629  1.00  0.00    -0.459 OA
BRANCH  57  58
ATOM     58  C   UNL     1      35.261  59.849  46.473  1.00  0.00     0.338 C 
ATOM     59  O   UNL     1      35.860  60.473  45.611  1.00  0.00    -0.246 OA
BRANCH  58  60
ATOM     60  C   UNL     1      34.278  60.524  47.355  1.00  0.00     0.067 A 
ATOM     61  C   UNL     1      32.903  60.280  47.230  1.00  0.00     0.066 A 
ATOM     62  C   UNL     1      34.730  61.414  48.344  1.00  0.00     0.066 A 
ATOM     63  C   UNL     1      31.987  60.921  48.081  1.00  0.00     0.162 A 
ATOM     64  C   UNL     1      33.830  62.056  49.194  1.00  0.00     0.162 A 
ATOM     65  C   UNL     1      32.450  61.812  49.068  1.00  0.00     0.200 A 
BRANCH  63  66
ATOM     66  O   UNL     1      30.665  60.683  47.956  1.00  0.00    -0.504 OA
ATOM     67  H   UNL     1      30.006  61.138  48.497  1.00  0.00     0.293 HD
ENDBRANCH  63  66
BRANCH  64  68
ATOM     68  O   UNL     1      34.310  62.902  50.129  1.00  0.00    -0.504 OA
ATOM     69  H   UNL     1      33.803  63.164  50.910  1.00  0.00     0.293 HD
ENDBRANCH  64  68
BRANCH  65  70
ATOM     70  O   UNL     1      31.586  62.436  49.897  1.00  0.00    -0.502 OA
ATOM     71  H   UNL     1      30.701  62.096  50.086  1.00  0.00     0.293 HD
ENDBRANCH  65  70
ENDBRANCH  58  60
ENDBRANCH  57  58
ENDBRANCH  56  57
ENDBRANCH   3  56
BRANCH   5  72
ATOM     72  O   UNL     1      36.902  57.973  44.084  1.00  0.00    -0.387 OA
ATOM     73  H   UNL     1      37.801  58.356  43.929  1.00  0.00     0.211 HD
ENDBRANCH   5  72
BRANCH   4  74
ATOM     74  O   UNL     1      38.078  54.923  45.665  1.00  0.00    -0.387 OA
ATOM     75  H   UNL     1      38.537  54.761  46.531  1.00  0.00     0.211 HD
ENDBRANCH   4  74
TORSDOF 19
ENDMDL
MODEL 8
REMARK VINA RESULT:   -11.438      4.996      6.480
REMARK INTER + INTRA:         -22.326
REMARK INTER:                 -20.245
REMARK INTRA:                  -2.080
REMARK UNBOUND:                -1.526
REMARK SMILES C[C@@H]1CC[C@]2(C(=O)O[C@@H]3O[C@H](COC(=O)c4cc(O)c(O)c(O)c4)[C@@H](O)[C@H](O)[C@H]3O)CC[C@]3(C)C(=CC[C@@H]4[C@@]5(C)CC[C@H](O[C@@H]6OC[C@H](O)[C@H](O)[C@H]6O)C(C)(C)[C@@H]5CC[C@]43C)[C@@H]2[C@]1(C)O
REMARK SMILES IDX 9 1 10 2 11 3 25 4 27 5 29 6 8 7 6 8 7 9 5 10 2 11 3 12
REMARK SMILES IDX 63 13 4 14 62 15 35 16 31 17 33 18 36 19 32 20 60 21 37 22
REMARK SMILES IDX 59 23 38 24 58 25 39 26 57 27 41 28 54 29 42 30 43 31 1 32
REMARK SMILES IDX 64 33 34 34 61 35 40 36 55 37 56 38 65 39 44 41 45 42 46 43
REMARK SMILES IDX 52 44 47 45 50 46 48 47 53 48 51 50 49 52 30 54 12 56 13 57
REMARK SMILES IDX 14 58 15 59 16 60 17 61 24 62 18 63 22 64 20 65 19 66 23 68
REMARK SMILES IDX 21 70 28 72 26 74
REMARK H PARENT 65 40 53 49 51 51 49 53 30 55 19 67 23 69 21 71 28 73 26 75
ROOT
ATOM      1  C   UNL     1      25.746  59.366  42.122  1.00  0.00     0.342 C 
ATOM      2  O   UNL     1      26.219  60.507  41.441  1.00  0.00    -0.331 OA
ATOM      3  C   UNL     1      25.667  60.666  40.134  1.00  0.00     0.191 C 
ATOM      4  C   UNL     1      24.356  59.842  39.860  1.00  0.00     0.178 C 
ATOM      5  C   UNL     1      23.425  59.884  41.096  1.00  0.00     0.181 C 
ATOM      6  C   UNL     1      24.223  59.534  42.404  1.00  0.00     0.214 C 
ENDROOT
BRANCH   1   7
ATOM      7  O   UNL     1      26.454  59.253  43.299  1.00  0.00    -0.432 OA
BRANCH   7   8
ATOM      8  C   UNL     1      27.014  58.106  43.762  1.00  0.00     0.315 C 
ATOM      9  O   UNL     1      26.375  57.060  43.756  1.00  0.00    -0.252 OA
BRANCH   8  10
ATOM     10  C   UNL     1      28.394  58.128  44.402  1.00  0.00     0.077 C 
ATOM     11  C   UNL     1      29.217  59.622  42.069  1.00  0.00     0.018 C 
ATOM     12  C   UNL     1      29.685  60.212  43.404  1.00  0.00     0.007 C 
ATOM     13  C   UNL     1      29.544  58.081  42.020  1.00  0.00     0.072 C 
ATOM     14  C   UNL     1      28.919  59.598  44.623  1.00  0.00     0.020 C 
ATOM     15  C   UNL     1      29.442  57.422  43.485  1.00  0.00     0.064 C 
ATOM     16  C   UNL     1      30.717  57.146  44.355  1.00  0.00    -0.061 C 
ATOM     17  C   UNL     1      28.197  57.381  45.782  1.00  0.00     0.020 C 
ATOM     18  C   UNL     1      30.507  56.287  45.632  1.00  0.00    -0.006 C 
ATOM     19  C   UNL     1      31.998  57.417  43.986  1.00  0.00    -0.026 C 
ATOM     20  C   UNL     1      28.970  56.044  45.847  1.00  0.00     0.013 C 
ATOM     21  C   UNL     1      31.358  54.969  45.325  1.00  0.00    -0.020 C 
ATOM     22  C   UNL     1      33.171  56.844  44.739  1.00  0.00     0.032 C 
ATOM     23  C   UNL     1      31.222  53.843  46.376  1.00  0.00     0.008 C 
ATOM     24  C   UNL     1      32.906  55.399  45.331  1.00  0.00     0.006 C 
ATOM     25  C   UNL     1      32.108  52.623  46.008  1.00  0.00     0.005 C 
ATOM     26  C   UNL     1      33.925  54.269  44.915  1.00  0.00    -0.025 C 
ATOM     27  C   UNL     1      33.621  52.987  45.830  1.00  0.00     0.003 C 
ATOM     28  C   UNL     1      35.389  54.667  45.308  1.00  0.00     0.010 C 
ATOM     29  C   UNL     1      34.547  51.742  45.517  1.00  0.00    -0.006 C 
ATOM     30  C   UNL     1      36.395  53.563  44.927  1.00  0.00     0.033 C 
ATOM     31  C   UNL     1      36.070  52.174  45.524  1.00  0.00     0.127 C 
ATOM     32  C   UNL     1      29.799  60.386  40.865  1.00  0.00     0.011 C 
ATOM     33  C   UNL     1      28.555  57.417  41.016  1.00  0.00     0.043 C 
ATOM     34  C   UNL     1      30.967  57.015  46.949  1.00  0.00     0.017 C 
ATOM     35  C   UNL     1      30.827  54.378  43.953  1.00  0.00     0.012 C 
ATOM     36  C   UNL     1      33.896  54.139  43.346  1.00  0.00     0.012 C 
ATOM     37  C   UNL     1      34.386  50.669  46.630  1.00  0.00     0.014 C 
ATOM     38  C   UNL     1      34.141  51.013  44.194  1.00  0.00     0.014 C 
BRANCH  13  39
ATOM     39  O   UNL     1      30.818  57.875  41.464  1.00  0.00    -0.389 OA
ATOM     40  H   UNL     1      31.414  57.509  42.172  1.00  0.00     0.211 HD
ENDBRANCH  13  39
BRANCH  31  41
ATOM     41  O   UNL     1      36.771  51.240  44.728  1.00  0.00    -0.346 OA
BRANCH  41  42
ATOM     42  C   UNL     1      37.926  51.670  44.063  1.00  0.00     0.281 C 
ATOM     43  O   UNL     1      37.863  51.209  42.726  1.00  0.00    -0.347 OA
ATOM     44  C   UNL     1      39.098  51.011  44.859  1.00  0.00     0.202 C 
ATOM     45  C   UNL     1      39.049  51.471  41.969  1.00  0.00     0.198 C 
ATOM     46  C   UNL     1      40.302  50.629  43.963  1.00  0.00     0.179 C 
ATOM     47  C   UNL     1      40.352  51.622  42.803  1.00  0.00     0.171 C 
BRANCH  44  48
ATOM     48  O   UNL     1      39.483  51.854  45.918  1.00  0.00    -0.385 OA
ATOM     49  H   UNL     1      39.435  52.790  45.594  1.00  0.00     0.211 HD
ENDBRANCH  44  48
BRANCH  46  50
ATOM     50  O   UNL     1      40.192  49.307  43.471  1.00  0.00    -0.387 OA
ATOM     51  H   UNL     1      40.099  48.674  44.230  1.00  0.00     0.211 HD
ENDBRANCH  46  50
BRANCH  47  52
ATOM     52  O   UNL     1      41.495  51.453  42.001  1.00  0.00    -0.388 OA
ATOM     53  H   UNL     1      41.965  52.327  41.953  1.00  0.00     0.211 HD
ENDBRANCH  47  52
ENDBRANCH  41  42
ENDBRANCH  31  41
ENDBRANCH   8  10
ENDBRANCH   7   8
ENDBRANCH   1   7
BRANCH   6  54
ATOM     54  O   UNL     1      23.686  58.401  43.038  1.00  0.00    -0.384 OA
ATOM     55  H   UNL     1      22.701  58.516  43.061  1.00  0.00     0.211 HD
ENDBRANCH   6  54
BRANCH   3  56
ATOM     56  C   UNL     1      25.484  62.166  39.890  1.00  0.00     0.268 C 
BRANCH  56  57
ATOM     57  O   UNL     1      24.412  62.345  39.041  1.00  0.00    -0.459 OA
BRANCH  57  58
ATOM     58  C   UNL     1      24.476  62.327  37.689  1.00  0.00     0.338 C 
ATOM     59  O   UNL     1      25.526  62.553  37.107  1.00  0.00    -0.246 OA
BRANCH  58  60
ATOM     60  C   UNL     1      23.246  61.992  36.931  1.00  0.00     0.067 A 
ATOM     61  C   UNL     1      23.257  61.906  35.532  1.00  0.00     0.066 A 
ATOM     62  C   UNL     1      22.051  61.743  37.625  1.00  0.00     0.066 A 
ATOM     63  C   UNL     1      22.084  61.577  34.831  1.00  0.00     0.162 A 
ATOM     64  C   UNL     1      20.880  61.416  36.940  1.00  0.00     0.162 A 
ATOM     65  C   UNL     1      20.890  61.330  35.535  1.00  0.00     0.200 A 
BRANCH  63  66
ATOM     66  O   UNL     1      22.100  61.496  33.484  1.00  0.00    -0.504 OA
ATOM     67  H   UNL     1      21.364  61.121  32.981  1.00  0.00     0.293 HD
ENDBRANCH  63  66
BRANCH  64  68
ATOM     68  O   UNL     1      19.755  61.184  37.648  1.00  0.00    -0.504 OA
ATOM     69  H   UNL     1      19.054  60.593  37.342  1.00  0.00     0.293 HD
ENDBRANCH  64  68
BRANCH  65  70
ATOM     70  O   UNL     1      19.754  61.010  34.880  1.00  0.00    -0.502 OA
ATOM     71  H   UNL     1      18.881  61.054  35.292  1.00  0.00     0.293 HD
ENDBRANCH  65  70
ENDBRANCH  58  60
ENDBRANCH  57  58
ENDBRANCH  56  57
ENDBRANCH   3  56
BRANCH   5  72
ATOM     72  O   UNL     1      22.739  61.116  41.167  1.00  0.00    -0.387 OA
ATOM     73  H   UNL     1      21.805  60.978  41.463  1.00  0.00     0.211 HD
ENDBRANCH   5  72
BRANCH   4  74
ATOM     74  O   UNL     1      24.714  58.507  39.592  1.00  0.00    -0.387 OA
ATOM     75  H   UNL     1      24.197  57.928  40.212  1.00  0.00     0.211 HD
ENDBRANCH   4  74
TORSDOF 19
ENDMDL
MODEL 9
REMARK VINA RESULT:   -11.408      3.503     13.659
REMARK INTER + INTRA:         -22.271
REMARK INTER:                 -19.206
REMARK INTRA:                  -3.065
REMARK UNBOUND:                -1.526
REMARK SMILES C[C@@H]1CC[C@]2(C(=O)O[C@@H]3O[C@H](COC(=O)c4cc(O)c(O)c(O)c4)[C@@H](O)[C@H](O)[C@H]3O)CC[C@]3(C)C(=CC[C@@H]4[C@@]5(C)CC[C@H](O[C@@H]6OC[C@H](O)[C@H](O)[C@H]6O)C(C)(C)[C@@H]5CC[C@]43C)[C@@H]2[C@]1(C)O
REMARK SMILES IDX 9 1 10 2 11 3 25 4 27 5 29 6 8 7 6 8 7 9 5 10 2 11 3 12
REMARK SMILES IDX 63 13 4 14 62 15 35 16 31 17 33 18 36 19 32 20 60 21 37 22
REMARK SMILES IDX 59 23 38 24 58 25 39 26 57 27 41 28 54 29 42 30 43 31 1 32
REMARK SMILES IDX 64 33 34 34 61 35 40 36 55 37 56 38 65 39 44 41 45 42 46 43
REMARK SMILES IDX 52 44 47 45 50 46 48 47 53 48 51 50 49 52 30 54 12 56 13 57
REMARK SMILES IDX 14 58 15 59 16 60 17 61 24 62 18 63 22 64 20 65 19 66 23 68
REMARK SMILES IDX 21 70 28 72 26 74
REMARK H PARENT 65 40 53 49 51 51 49 53 30 55 19 67 23 69 21 71 28 73 26 75
ROOT
ATOM      1  C   UNL     1      34.268  56.336  46.016  1.00  0.00     0.342 C 
ATOM      2  O   UNL     1      34.172  56.857  47.323  1.00  0.00    -0.331 OA
ATOM      3  C   UNL     1      35.066  57.941  47.576  1.00  0.00     0.191 C 
ATOM      4  C   UNL     1      35.655  58.633  46.292  1.00  0.00     0.178 C 
ATOM      5  C   UNL     1      34.559  58.780  45.209  1.00  0.00     0.181 C 
ATOM      6  C   UNL     1      33.801  57.418  44.998  1.00  0.00     0.214 C 
ENDROOT
BRANCH   1   7
ATOM      7  O   UNL     1      33.465  55.218  45.947  1.00  0.00    -0.432 OA
BRANCH   7   8
ATOM      8  C   UNL     1      32.601  54.821  46.916  1.00  0.00     0.315 C 
ATOM      9  O   UNL     1      33.010  54.200  47.892  1.00  0.00    -0.252 OA
BRANCH   8  10
ATOM     10  C   UNL     1      31.104  55.035  46.747  1.00  0.00     0.077 C 
ATOM     11  C   UNL     1      31.081  52.414  45.532  1.00  0.00     0.018 C 
ATOM     12  C   UNL     1      29.985  52.642  46.579  1.00  0.00     0.007 C 
ATOM     13  C   UNL     1      31.111  53.617  44.515  1.00  0.00     0.072 C 
ATOM     14  C   UNL     1      30.262  53.907  47.458  1.00  0.00     0.020 C 
ATOM     15  C   UNL     1      30.704  54.996  45.239  1.00  0.00     0.064 C 
ATOM     16  C   UNL     1      29.261  55.595  45.120  1.00  0.00    -0.061 C 
ATOM     17  C   UNL     1      30.835  56.446  47.408  1.00  0.00     0.020 C 
ATOM     18  C   UNL     1      29.069  57.041  45.652  1.00  0.00    -0.006 C 
ATOM     19  C   UNL     1      28.232  55.043  44.419  1.00  0.00    -0.026 C 
ATOM     20  C   UNL     1      30.382  57.507  46.377  1.00  0.00     0.013 C 
ATOM     21  C   UNL     1      28.701  57.867  44.334  1.00  0.00    -0.020 C 
ATOM     22  C   UNL     1      26.986  55.829  44.103  1.00  0.00     0.032 C 
ATOM     23  C   UNL     1      28.591  59.397  44.529  1.00  0.00     0.008 C 
ATOM     24  C   UNL     1      27.247  57.373  43.862  1.00  0.00     0.006 C 
ATOM     25  C   UNL     1      28.200  60.103  43.204  1.00  0.00     0.005 C 
ATOM     26  C   UNL     1      26.742  57.967  42.490  1.00  0.00    -0.025 C 
ATOM     27  C   UNL     1      26.869  59.563  42.583  1.00  0.00     0.003 C 
ATOM     28  C   UNL     1      25.203  57.726  42.312  1.00  0.00     0.010 C 
ATOM     29  C   UNL     1      26.424  60.318  41.265  1.00  0.00    -0.006 C 
ATOM     30  C   UNL     1      24.689  58.320  40.986  1.00  0.00     0.033 C 
ATOM     31  C   UNL     1      24.991  59.825  40.805  1.00  0.00     0.127 C 
ATOM     32  C   UNL     1      30.932  51.051  44.828  1.00  0.00     0.011 C 
ATOM     33  C   UNL     1      32.541  53.685  43.900  1.00  0.00     0.043 C 
ATOM     34  C   UNL     1      27.960  57.148  46.765  1.00  0.00     0.017 C 
ATOM     35  C   UNL     1      29.869  57.624  43.289  1.00  0.00     0.012 C 
ATOM     36  C   UNL     1      27.461  57.187  41.326  1.00  0.00     0.012 C 
ATOM     37  C   UNL     1      26.300  61.842  41.543  1.00  0.00     0.014 C 
ATOM     38  C   UNL     1      27.486  60.205  40.123  1.00  0.00     0.014 C 
BRANCH  13  39
ATOM     39  O   UNL     1      30.262  53.351  43.428  1.00  0.00    -0.389 OA
ATOM     40  H   UNL     1      30.744  52.758  42.791  1.00  0.00     0.211 HD
ENDBRANCH  13  39
BRANCH  31  41
ATOM     41  O   UNL     1      24.891  60.074  39.418  1.00  0.00    -0.346 OA
BRANCH  41  42
ATOM     42  C   UNL     1      24.221  61.231  38.998  1.00  0.00     0.281 C 
ATOM     43  O   UNL     1      22.830  60.971  39.031  1.00  0.00    -0.347 OA
ATOM     44  C   UNL     1      24.742  61.474  37.545  1.00  0.00     0.202 C 
ATOM     45  C   UNL     1      22.032  62.033  38.500  1.00  0.00     0.198 C 
ATOM     46  C   UNL     1      23.671  62.091  36.612  1.00  0.00     0.179 C 
ATOM     47  C   UNL     1      22.747  62.953  37.471  1.00  0.00     0.171 C 
BRANCH  44  48
ATOM     48  O   UNL     1      25.911  62.255  37.587  1.00  0.00    -0.385 OA
ATOM     49  H   UNL     1      25.938  62.806  36.762  1.00  0.00     0.211 HD
ENDBRANCH  44  48
BRANCH  46  50
ATOM     50  O   UNL     1      22.926  61.096  35.937  1.00  0.00    -0.387 OA
ATOM     51  H   UNL     1      22.654  61.431  35.043  1.00  0.00     0.211 HD
ENDBRANCH  46  50
BRANCH  47  52
ATOM     52  O   UNL     1      21.819  63.676  36.700  1.00  0.00    -0.388 OA
ATOM     53  H   UNL     1      21.109  63.046  36.408  1.00  0.00     0.211 HD
ENDBRANCH  47  52
ENDBRANCH  41  42
ENDBRANCH  31  41
ENDBRANCH   8  10
ENDBRANCH   7   8
ENDBRANCH   1   7
BRANCH   6  54
ATOM     54  O   UNL     1      33.924  56.970  43.672  1.00  0.00    -0.384 OA
ATOM     55  H   UNL     1      34.702  56.354  43.641  1.00  0.00     0.211 HD
ENDBRANCH   6  54
BRANCH   3  56
ATOM     56  C   UNL     1      34.346  58.926  48.501  1.00  0.00     0.268 C 
BRANCH  56  57
ATOM     57  O   UNL     1      33.002  58.915  48.193  1.00  0.00    -0.459 OA
BRANCH  57  58
ATOM     58  C   UNL     1      32.128  59.907  48.484  1.00  0.00     0.338 C 
ATOM     59  O   UNL     1      32.107  60.937  47.829  1.00  0.00    -0.246 OA
BRANCH  58  60
ATOM     60  C   UNL     1      31.172  59.697  49.600  1.00  0.00     0.067 A 
ATOM     61  C   UNL     1      31.597  59.735  50.935  1.00  0.00     0.066 A 
ATOM     62  C   UNL     1      29.816  59.470  49.317  1.00  0.00     0.066 A 
ATOM     63  C   UNL     1      30.675  59.544  51.979  1.00  0.00     0.162 A 
ATOM     64  C   UNL     1      28.893  59.279  50.345  1.00  0.00     0.162 A 
ATOM     65  C   UNL     1      29.318  59.316  51.685  1.00  0.00     0.200 A 
BRANCH  63  66
ATOM     66  O   UNL     1      31.090  59.581  53.263  1.00  0.00    -0.504 OA
ATOM     67  H   UNL     1      32.022  59.504  53.506  1.00  0.00     0.293 HD
ENDBRANCH  63  66
BRANCH  64  68
ATOM     68  O   UNL     1      27.599  59.064  50.026  1.00  0.00    -0.504 OA
ATOM     69  H   UNL     1      27.203  59.374  49.200  1.00  0.00     0.293 HD
ENDBRANCH  64  68
BRANCH  65  70
ATOM     70  O   UNL     1      28.417  59.133  52.674  1.00  0.00    -0.502 OA
ATOM     71  H   UNL     1      27.837  59.838  52.993  1.00  0.00     0.293 HD
ENDBRANCH  65  70
ENDBRANCH  58  60
ENDBRANCH  57  58
ENDBRANCH  56  57
ENDBRANCH   3  56
BRANCH   5  72
ATOM     72  O   UNL     1      33.702  59.862  45.504  1.00  0.00    -0.387 OA
ATOM     73  H   UNL     1      33.482  59.878  46.469  1.00  0.00     0.211 HD
ENDBRANCH   5  72
BRANCH   4  74
ATOM     74  O   UNL     1      36.700  57.833  45.792  1.00  0.00    -0.387 OA
ATOM     75  H   UNL     1      36.837  57.085  46.432  1.00  0.00     0.211 HD
ENDBRANCH   4  74
TORSDOF 19
ENDMDL
