MODEL 1
REMARK VINA RESULT:   -13.174      0.000      0.000
REMARK INTER + INTRA:         -22.881
REMARK INTER:                 -21.646
REMARK INTRA:                  -1.235
REMARK UNBOUND:                -1.235
REMARK SMILES C[C@@H]1CC[C@@]2(NC1)O[C@H]1C[C@H]3[C@@H]4CC=C5C[C@@H](O[C@H]6O[C@@H](CO[C@H]7O[C@H](C)[C@@H](O[C@@H]8O[C@@H](C)[C@H](O)[C@@H](O)[C@H]8O)[C@H](O)[C@@H]7O)[C@H](O)[C@@H](O)[C@@H]6O)CC[C@]5(C)[C@H]4CC[C@]3(C)[C@H]1[C@@H]2C
REMARK SMILES IDX 23 1 22 2 21 3 19 4 20 5 48 6 46 7 44 8 18 9 17 10 2 11 3 12
REMARK SMILES IDX 7 13 4 14 6 15 5 16 8 17 60 18 9 19 59 20 10 21 57 22 11 23
REMARK SMILES IDX 56 24 12 25 55 26 13 27 54 28 14 29 52 30 15 31 51 32 16 33
REMARK SMILES IDX 50 34 1 35 61 37 58 38 53 39 49 40 47 42 45 44 24 46 25 47
REMARK SMILES IDX 42 48 26 49 40 50 28 51 27 52 43 53 41 55 29 57 30 58 31 59
REMARK SMILES IDX 38 60 32 61 36 62 34 63 33 64 39 65 37 67 35 69
REMARK H PARENT 6 36 49 41 47 43 45 45 43 54 41 56 39 66 37 68 35 70
ROOT
ATOM      1  O   UNL     1      21.589  61.633  36.217  1.00  0.00    -0.347 OA
ENDROOT
BRANCH   1   2
ATOM      2  C   UNL     1      21.249  61.553  34.843  1.00  0.00     0.198 C 
BRANCH   2   3
ATOM      3  C   UNL     1      19.910  62.256  34.572  1.00  0.00     0.178 C 
ATOM      4  C   UNL     1      18.458  62.905  32.850  1.00  0.00     0.282 C 
ATOM      5  O   UNL     1      19.807  62.581  33.207  1.00  0.00    -0.341 OA
ATOM      6  C   UNL     1      17.644  63.636  33.976  1.00  0.00     0.202 C 
ATOM      7  C   UNL     1      18.618  64.472  34.821  1.00  0.00     0.179 C 
ATOM      8  C   UNL     1      19.723  63.542  35.434  1.00  0.00     0.177 C 
BRANCH   4   9
ATOM      9  O   UNL     1      18.518  63.746  31.703  1.00  0.00    -0.346 OA
BRANCH   9  10
ATOM     10  C   UNL     1      17.330  63.624  30.937  1.00  0.00     0.125 C 
ATOM     11  C   UNL     1       8.861  63.224  20.936  1.00  0.00    -0.000 C 
ATOM     12  C   UNL     1       9.574  64.502  21.451  1.00  0.00     0.009 C 
ATOM     13  C   UNL     1       7.801  62.748  21.945  1.00  0.00     0.087 C 
ATOM     14  C   UNL     1       9.301  64.778  22.939  1.00  0.00     0.053 C 
ATOM     15  N   UNL     1       8.399  62.461  23.268  1.00  0.00    -0.289 NA
ATOM     16  C   UNL     1       9.375  63.482  23.776  1.00  0.00     0.122 C 
ATOM     17  O   UNL     1      10.672  62.916  23.650  1.00  0.00    -0.357 OA
ATOM     18  C   UNL     1       9.214  63.855  25.295  1.00  0.00     0.039 C 
ATOM     19  C   UNL     1      10.886  62.203  24.849  1.00  0.00     0.125 C 
ATOM     20  C   UNL     1      10.354  63.102  25.955  1.00  0.00     0.031 C 
ATOM     21  C   UNL     1      12.402  62.017  25.144  1.00  0.00     0.037 C 
ATOM     22  C   UNL     1      11.619  63.899  26.394  1.00  0.00    -0.024 C 
ATOM     23  C   UNL     1      12.589  62.718  26.493  1.00  0.00     0.002 C 
ATOM     24  C   UNL     1      11.481  64.537  27.792  1.00  0.00     0.008 C 
ATOM     25  C   UNL     1      14.010  63.116  26.962  1.00  0.00     0.000 C 
ATOM     26  C   UNL     1      12.852  65.029  28.295  1.00  0.00     0.005 C 
ATOM     27  C   UNL     1      14.867  61.846  27.161  1.00  0.00     0.031 C 
ATOM     28  C   UNL     1      13.911  63.878  28.311  1.00  0.00     0.003 C 
ATOM     29  C   UNL     1      16.111  62.072  27.982  1.00  0.00    -0.027 C 
ATOM     30  C   UNL     1      15.342  64.348  28.793  1.00  0.00    -0.008 C 
ATOM     31  C   UNL     1      16.353  63.193  28.697  1.00  0.00    -0.065 C 
ATOM     32  C   UNL     1      15.198  64.769  30.289  1.00  0.00     0.014 C 
ATOM     33  C   UNL     1      17.658  63.321  29.471  1.00  0.00     0.063 C 
ATOM     34  C   UNL     1      16.532  64.937  31.018  1.00  0.00     0.033 C 
ATOM     35  C   UNL     1       9.862  62.092  20.637  1.00  0.00     0.009 C 
ATOM     36  H   UNL     1       7.611  62.247  23.911  1.00  0.00     0.125 HD
ATOM     37  C   UNL     1       7.856  63.604  25.974  1.00  0.00     0.012 C 
ATOM     38  C   UNL     1      12.081  64.990  25.354  1.00  0.00     0.012 C 
ATOM     39  C   UNL     1      15.907  65.528  27.957  1.00  0.00     0.016 C 
ENDBRANCH   9  10
ENDBRANCH   4   9
BRANCH   6  40
ATOM     40  O   UNL     1      17.008  62.703  34.817  1.00  0.00    -0.385 OA
ATOM     41  H   UNL     1      16.171  62.424  34.362  1.00  0.00     0.211 HD
ENDBRANCH   6  40
BRANCH   7  42
ATOM     42  O   UNL     1      19.176  65.491  34.021  1.00  0.00    -0.387 OA
ATOM     43  H   UNL     1      19.538  66.206  34.605  1.00  0.00     0.211 HD
ENDBRANCH   7  42
BRANCH   8  44
ATOM     44  O   UNL     1      19.440  63.194  36.766  1.00  0.00    -0.387 OA
ATOM     45  H   UNL     1      19.717  63.949  37.346  1.00  0.00     0.211 HD
ENDBRANCH   8  44
ENDBRANCH   2   3
ENDBRANCH   1   2
BRANCH   1  46
ATOM     46  C   UNL     1      22.760  62.425  36.404  1.00  0.00     0.281 C 
ATOM     47  O   UNL     1      22.839  62.898  37.743  1.00  0.00    -0.344 OA
ATOM     48  C   UNL     1      24.028  61.636  36.001  1.00  0.00     0.202 C 
ATOM     49  C   UNL     1      22.970  61.829  38.673  1.00  0.00     0.150 C 
ATOM     50  C   UNL     1      24.258  60.489  36.997  1.00  0.00     0.180 C 
ATOM     51  C   UNL     1      24.286  61.047  38.435  1.00  0.00     0.181 C 
ATOM     52  C   UNL     1      22.947  62.422  40.084  1.00  0.00     0.041 C 
BRANCH  48  53
ATOM     53  O   UNL     1      25.158  62.481  35.933  1.00  0.00    -0.385 OA
ATOM     54  H   UNL     1      25.859  62.140  36.545  1.00  0.00     0.211 HD
ENDBRANCH  48  53
BRANCH  50  55
ATOM     55  O   UNL     1      25.424  59.767  36.683  1.00  0.00    -0.387 OA
ATOM     56  H   UNL     1      25.155  58.975  36.149  1.00  0.00     0.211 HD
ENDBRANCH  50  55
BRANCH  51  57
ATOM     57  O   UNL     1      24.376  59.980  39.365  1.00  0.00    -0.341 OA
BRANCH  57  58
ATOM     58  C   UNL     1      25.694  59.794  39.879  1.00  0.00     0.282 C 
ATOM     59  O   UNL     1      25.915  58.425  40.198  1.00  0.00    -0.344 OA
ATOM     60  C   UNL     1      25.910  60.698  41.116  1.00  0.00     0.202 C 
ATOM     61  C   UNL     1      25.000  57.954  41.179  1.00  0.00     0.150 C 
ATOM     62  C   UNL     1      24.966  60.242  42.245  1.00  0.00     0.179 C 
ATOM     63  C   UNL     1      25.160  58.736  42.512  1.00  0.00     0.174 C 
ATOM     64  C   UNL     1      25.266  56.464  41.397  1.00  0.00     0.041 C 
BRANCH  60  65
ATOM     65  O   UNL     1      27.257  60.683  41.536  1.00  0.00    -0.385 OA
ATOM     66  H   UNL     1      27.373  61.326  42.280  1.00  0.00     0.211 HD
ENDBRANCH  60  65
BRANCH  62  67
ATOM     67  O   UNL     1      25.144  61.011  43.409  1.00  0.00    -0.387 OA
ATOM     68  H   UNL     1      25.421  61.923  43.131  1.00  0.00     0.211 HD
ENDBRANCH  62  67
BRANCH  63  69
ATOM     69  O   UNL     1      24.253  58.283  43.488  1.00  0.00    -0.388 OA
ATOM     70  H   UNL     1      24.611  58.545  44.376  1.00  0.00     0.211 HD
ENDBRANCH  63  69
ENDBRANCH  57  58
ENDBRANCH  51  57
ENDBRANCH   1  46
TORSDOF 15
ENDMDL
MODEL 2
REMARK VINA RESULT:   -13.108      4.148      5.737
REMARK INTER + INTRA:         -22.772
REMARK INTER:                 -21.774
REMARK INTRA:                  -0.998
REMARK UNBOUND:                -1.235
REMARK SMILES C[C@@H]1CC[C@@]2(NC1)O[C@H]1C[C@H]3[C@@H]4CC=C5C[C@@H](O[C@H]6O[C@@H](CO[C@H]7O[C@H](C)[C@@H](O[C@@H]8O[C@@H](C)[C@H](O)[C@@H](O)[C@H]8O)[C@H](O)[C@@H]7O)[C@H](O)[C@@H](O)[C@@H]6O)CC[C@]5(C)[C@H]4CC[C@]3(C)[C@H]1[C@@H]2C
REMARK SMILES IDX 23 1 22 2 21 3 19 4 20 5 48 6 46 7 44 8 18 9 17 10 2 11 3 12
REMARK SMILES IDX 7 13 4 14 6 15 5 16 8 17 60 18 9 19 59 20 10 21 57 22 11 23
REMARK SMILES IDX 56 24 12 25 55 26 13 27 54 28 14 29 52 30 15 31 51 32 16 33
REMARK SMILES IDX 50 34 1 35 61 37 58 38 53 39 49 40 47 42 45 44 24 46 25 47
REMARK SMILES IDX 42 48 26 49 40 50 28 51 27 52 43 53 41 55 29 57 30 58 31 59
REMARK SMILES IDX 38 60 32 61 36 62 34 63 33 64 39 65 37 67 35 69
REMARK H PARENT 6 36 49 41 47 43 45 45 43 54 41 56 39 66 37 68 35 70
ROOT
ATOM      1  O   UNL     1      21.214  62.847  37.396  1.00  0.00    -0.347 OA
ENDROOT
BRANCH   1   2
ATOM      2  C   UNL     1      20.062  63.310  36.712  1.00  0.00     0.198 C 
BRANCH   2   3
ATOM      3  C   UNL     1      20.366  63.535  35.223  1.00  0.00     0.178 C 
ATOM      4  C   UNL     1      19.355  64.009  33.162  1.00  0.00     0.282 C 
ATOM      5  O   UNL     1      19.177  63.462  34.474  1.00  0.00    -0.341 OA
ATOM      6  C   UNL     1      20.780  63.774  32.546  1.00  0.00     0.202 C 
ATOM      7  C   UNL     1      21.340  62.453  33.096  1.00  0.00     0.179 C 
ATOM      8  C   UNL     1      21.403  62.514  34.662  1.00  0.00     0.177 C 
BRANCH   4   9
ATOM      9  O   UNL     1      18.381  63.402  32.319  1.00  0.00    -0.346 OA
BRANCH   9  10
ATOM     10  C   UNL     1      17.529  64.387  31.757  1.00  0.00     0.125 C 
ATOM     11  C   UNL     1       7.093  71.830  29.002  1.00  0.00    -0.000 C 
ATOM     12  C   UNL     1       7.241  70.330  28.635  1.00  0.00     0.009 C 
ATOM     13  C   UNL     1       8.026  72.696  28.139  1.00  0.00     0.087 C 
ATOM     14  C   UNL     1       8.482  70.047  27.772  1.00  0.00     0.053 C 
ATOM     15  N   UNL     1       9.443  72.301  28.305  1.00  0.00    -0.289 NA
ATOM     16  C   UNL     1       9.714  70.825  28.284  1.00  0.00     0.122 C 
ATOM     17  O   UNL     1       9.993  70.434  29.621  1.00  0.00    -0.357 OA
ATOM     18  C   UNL     1      10.968  70.393  27.439  1.00  0.00     0.039 C 
ATOM     19  C   UNL     1      11.381  70.626  29.785  1.00  0.00     0.125 C 
ATOM     20  C   UNL     1      12.014  70.109  28.501  1.00  0.00     0.031 C 
ATOM     21  C   UNL     1      11.954  69.739  30.927  1.00  0.00     0.037 C 
ATOM     22  C   UNL     1      12.343  68.626  28.847  1.00  0.00    -0.024 C 
ATOM     23  C   UNL     1      12.991  68.866  30.214  1.00  0.00     0.002 C 
ATOM     24  C   UNL     1      13.398  68.002  27.910  1.00  0.00     0.008 C 
ATOM     25  C   UNL     1      13.509  67.576  30.894  1.00  0.00     0.000 C 
ATOM     26  C   UNL     1      13.907  66.667  28.488  1.00  0.00     0.005 C 
ATOM     27  C   UNL     1      14.262  67.939  32.193  1.00  0.00     0.031 C 
ATOM     28  C   UNL     1      14.481  66.842  29.932  1.00  0.00     0.003 C 
ATOM     29  C   UNL     1      15.137  66.831  32.721  1.00  0.00    -0.027 C 
ATOM     30  C   UNL     1      14.988  65.490  30.575  1.00  0.00    -0.008 C 
ATOM     31  C   UNL     1      15.452  65.717  32.023  1.00  0.00    -0.065 C 
ATOM     32  C   UNL     1      16.206  65.014  29.723  1.00  0.00     0.014 C 
ATOM     33  C   UNL     1      16.326  64.651  32.668  1.00  0.00     0.063 C 
ATOM     34  C   UNL     1      17.030  63.907  30.382  1.00  0.00     0.033 C 
ATOM     35  C   UNL     1       7.360  72.082  30.498  1.00  0.00     0.009 C 
ATOM     36  H   UNL     1       9.991  72.859  27.620  1.00  0.00     0.125 HD
ATOM     37  C   UNL     1      11.473  71.339  26.336  1.00  0.00     0.012 C 
ATOM     38  C   UNL     1      11.077  67.691  28.922  1.00  0.00     0.012 C 
ATOM     39  C   UNL     1      13.895  64.386  30.608  1.00  0.00     0.016 C 
ENDBRANCH   9  10
ENDBRANCH   4   9
BRANCH   6  40
ATOM     40  O   UNL     1      21.656  64.816  32.904  1.00  0.00    -0.385 OA
ATOM     41  H   UNL     1      21.117  65.648  32.945  1.00  0.00     0.211 HD
ENDBRANCH   6  40
BRANCH   7  42
ATOM     42  O   UNL     1      20.540  61.382  32.646  1.00  0.00    -0.387 OA
ATOM     43  H   UNL     1      20.709  60.585  33.212  1.00  0.00     0.211 HD
ENDBRANCH   7  42
BRANCH   8  44
ATOM     44  O   UNL     1      22.692  62.831  35.126  1.00  0.00    -0.387 OA
ATOM     45  H   UNL     1      23.148  61.983  35.366  1.00  0.00     0.211 HD
ENDBRANCH   8  44
ENDBRANCH   2   3
ENDBRANCH   1   2
BRANCH   1  46
ATOM     46  C   UNL     1      20.990  61.551  37.947  1.00  0.00     0.281 C 
ATOM     47  O   UNL     1      22.009  60.647  37.538  1.00  0.00    -0.344 OA
ATOM     48  C   UNL     1      20.872  61.621  39.487  1.00  0.00     0.202 C 
ATOM     49  C   UNL     1      23.286  61.036  38.030  1.00  0.00     0.150 C 
ATOM     50  C   UNL     1      22.237  61.991  40.091  1.00  0.00     0.180 C 
ATOM     51  C   UNL     1      23.313  61.014  39.578  1.00  0.00     0.181 C 
ATOM     52  C   UNL     1      24.328  60.069  37.461  1.00  0.00     0.041 C 
BRANCH  48  53
ATOM     53  O   UNL     1      20.397  60.404  40.022  1.00  0.00    -0.385 OA
ATOM     54  H   UNL     1      20.598  60.371  40.992  1.00  0.00     0.211 HD
ENDBRANCH  48  53
BRANCH  50  55
ATOM     55  O   UNL     1      22.178  62.032  41.495  1.00  0.00    -0.387 OA
ATOM     56  H   UNL     1      23.026  61.652  41.845  1.00  0.00     0.211 HD
ENDBRANCH  50  55
BRANCH  51  57
ATOM     57  O   UNL     1      24.593  61.422  40.034  1.00  0.00    -0.341 OA
BRANCH  57  58
ATOM     58  C   UNL     1      24.928  60.891  41.315  1.00  0.00     0.282 C 
ATOM     59  O   UNL     1      26.334  60.950  41.526  1.00  0.00    -0.344 OA
ATOM     60  C   UNL     1      24.405  59.440  41.438  1.00  0.00     0.202 C 
ATOM     61  C   UNL     1      27.049  60.203  40.550  1.00  0.00     0.150 C 
ATOM     62  C   UNL     1      25.146  58.549  40.423  1.00  0.00     0.179 C 
ATOM     63  C   UNL     1      26.669  58.698  40.611  1.00  0.00     0.174 C 
ATOM     64  C   UNL     1      28.544  60.390  40.814  1.00  0.00     0.041 C 
BRANCH  60  65
ATOM     65  O   UNL     1      24.550  58.950  42.753  1.00  0.00    -0.385 OA
ATOM     66  H   UNL     1      23.733  59.166  43.272  1.00  0.00     0.211 HD
ENDBRANCH  60  65
BRANCH  62  67
ATOM     67  O   UNL     1      24.732  57.208  40.514  1.00  0.00    -0.387 OA
ATOM     68  H   UNL     1      23.792  57.159  40.199  1.00  0.00     0.211 HD
ENDBRANCH  62  67
BRANCH  63  69
ATOM     69  O   UNL     1      27.365  57.950  39.644  1.00  0.00    -0.388 OA
ATOM     70  H   UNL     1      27.113  56.997  39.761  1.00  0.00     0.211 HD
ENDBRANCH  63  69
ENDBRANCH  57  58
ENDBRANCH  51  57
ENDBRANCH   1  46
TORSDOF 15
ENDMDL
MODEL 3
REMARK VINA RESULT:   -13.106      2.586      5.822
REMARK INTER + INTRA:         -22.769
REMARK INTER:                 -21.706
REMARK INTRA:                  -1.063
REMARK UNBOUND:                -1.235
REMARK SMILES C[C@@H]1CC[C@@]2(NC1)O[C@H]1C[C@H]3[C@@H]4CC=C5C[C@@H](O[C@H]6O[C@@H](CO[C@H]7O[C@H](C)[C@@H](O[C@@H]8O[C@@H](C)[C@H](O)[C@@H](O)[C@H]8O)[C@H](O)[C@@H]7O)[C@H](O)[C@@H](O)[C@@H]6O)CC[C@]5(C)[C@H]4CC[C@]3(C)[C@H]1[C@@H]2C
REMARK SMILES IDX 23 1 22 2 21 3 19 4 20 5 48 6 46 7 44 8 18 9 17 10 2 11 3 12
REMARK SMILES IDX 7 13 4 14 6 15 5 16 8 17 60 18 9 19 59 20 10 21 57 22 11 23
REMARK SMILES IDX 56 24 12 25 55 26 13 27 54 28 14 29 52 30 15 31 51 32 16 33
REMARK SMILES IDX 50 34 1 35 61 37 58 38 53 39 49 40 47 42 45 44 24 46 25 47
REMARK SMILES IDX 42 48 26 49 40 50 28 51 27 52 43 53 41 55 29 57 30 58 31 59
REMARK SMILES IDX 38 60 32 61 36 62 34 63 33 64 39 65 37 67 35 69
REMARK H PARENT 6 36 49 41 47 43 45 45 43 54 41 56 39 66 37 68 35 70
ROOT
ATOM      1  O   UNL     1      24.809  60.689  39.796  1.00  0.00    -0.347 OA
ENDROOT
BRANCH   1   2
ATOM      2  C   UNL     1      24.695  61.302  38.523  1.00  0.00     0.198 C 
BRANCH   2   3
ATOM      3  C   UNL     1      23.225  61.381  38.086  1.00  0.00     0.178 C 
ATOM      4  C   UNL     1      21.741  62.597  36.739  1.00  0.00     0.282 C 
ATOM      5  O   UNL     1      22.974  62.620  37.467  1.00  0.00    -0.341 OA
ATOM      6  C   UNL     1      20.617  61.712  37.388  1.00  0.00     0.202 C 
ATOM      7  C   UNL     1      20.808  61.720  38.913  1.00  0.00     0.179 C 
ATOM      8  C   UNL     1      22.235  61.178  39.273  1.00  0.00     0.177 C 
BRANCH   4   9
ATOM      9  O   UNL     1      21.279  63.941  36.655  1.00  0.00    -0.346 OA
BRANCH   9  10
ATOM     10  C   UNL     1      20.575  64.148  35.440  1.00  0.00     0.125 C 
ATOM     11  C   UNL     1      11.701  63.387  25.818  1.00  0.00    -0.000 C 
ATOM     12  C   UNL     1      12.705  62.267  26.197  1.00  0.00     0.009 C 
ATOM     13  C   UNL     1      12.430  64.566  25.148  1.00  0.00     0.087 C 
ATOM     14  C   UNL     1      14.170  62.729  26.127  1.00  0.00     0.053 C 
ATOM     15  N   UNL     1      13.471  65.135  26.033  1.00  0.00    -0.289 NA
ATOM     16  C   UNL     1      14.346  64.138  26.735  1.00  0.00     0.122 C 
ATOM     17  O   UNL     1      13.942  64.115  28.096  1.00  0.00    -0.357 OA
ATOM     18  C   UNL     1      15.878  64.492  26.746  1.00  0.00     0.039 C 
ATOM     19  C   UNL     1      14.695  65.129  28.727  1.00  0.00     0.125 C 
ATOM     20  C   UNL     1      16.101  64.999  28.159  1.00  0.00     0.031 C 
ATOM     21  C   UNL     1      14.830  64.879  30.256  1.00  0.00     0.037 C 
ATOM     22  C   UNL     1      16.806  64.063  29.185  1.00  0.00    -0.024 C 
ATOM     23  C   UNL     1      16.343  64.766  30.466  1.00  0.00     0.002 C 
ATOM     24  C   UNL     1      18.346  64.137  29.118  1.00  0.00     0.008 C 
ATOM     25  C   UNL     1      16.894  64.125  31.762  1.00  0.00     0.000 C 
ATOM     26  C   UNL     1      18.970  63.447  30.347  1.00  0.00     0.005 C 
ATOM     27  C   UNL     1      16.484  64.982  32.981  1.00  0.00     0.031 C 
ATOM     28  C   UNL     1      18.442  64.059  31.686  1.00  0.00     0.003 C 
ATOM     29  C   UNL     1      17.279  64.691  34.227  1.00  0.00    -0.027 C 
ATOM     30  C   UNL     1      19.036  63.360  32.973  1.00  0.00    -0.008 C 
ATOM     31  C   UNL     1      18.408  63.947  34.248  1.00  0.00    -0.065 C 
ATOM     32  C   UNL     1      20.568  63.658  32.983  1.00  0.00     0.014 C 
ATOM     33  C   UNL     1      19.117  63.698  35.573  1.00  0.00     0.063 C 
ATOM     34  C   UNL     1      21.254  63.347  34.314  1.00  0.00     0.033 C 
ATOM     35  C   UNL     1      10.902  63.877  27.040  1.00  0.00     0.009 C 
ATOM     36  H   UNL     1      13.978  65.850  25.475  1.00  0.00     0.125 HD
ATOM     37  C   UNL     1      16.419  65.451  25.671  1.00  0.00     0.012 C 
ATOM     38  C   UNL     1      16.340  62.560  29.105  1.00  0.00     0.012 C 
ATOM     39  C   UNL     1      18.789  61.827  33.000  1.00  0.00     0.016 C 
ENDBRANCH   9  10
ENDBRANCH   4   9
BRANCH   6  40
ATOM     40  O   UNL     1      20.704  60.384  36.932  1.00  0.00    -0.385 OA
ATOM     41  H   UNL     1      19.819  60.150  36.548  1.00  0.00     0.211 HD
ENDBRANCH   6  40
BRANCH   7  42
ATOM     42  O   UNL     1      20.605  63.027  39.404  1.00  0.00    -0.387 OA
ATOM     43  H   UNL     1      20.987  63.681  38.763  1.00  0.00     0.211 HD
ENDBRANCH   7  42
BRANCH   8  44
ATOM     44  O   UNL     1      22.204  59.823  39.650  1.00  0.00    -0.387 OA
ATOM     45  H   UNL     1      22.730  59.309  38.985  1.00  0.00     0.211 HD
ENDBRANCH   8  44
ENDBRANCH   2   3
ENDBRANCH   1   2
BRANCH   1  46
ATOM     46  C   UNL     1      25.493  59.442  39.699  1.00  0.00     0.281 C 
ATOM     47  O   UNL     1      26.890  59.617  39.901  1.00  0.00    -0.344 OA
ATOM     48  C   UNL     1      24.898  58.410  40.685  1.00  0.00     0.202 C 
ATOM     49  C   UNL     1      27.178  60.090  41.211  1.00  0.00     0.150 C 
ATOM     50  C   UNL     1      25.217  58.835  42.128  1.00  0.00     0.180 C 
ATOM     51  C   UNL     1      26.735  59.061  42.280  1.00  0.00     0.181 C 
ATOM     52  C   UNL     1      28.685  60.343  41.304  1.00  0.00     0.041 C 
BRANCH  48  53
ATOM     53  O   UNL     1      25.384  57.110  40.423  1.00  0.00    -0.385 OA
ATOM     54  H   UNL     1      26.344  57.161  40.181  1.00  0.00     0.211 HD
ENDBRANCH  48  53
BRANCH  50  55
ATOM     55  O   UNL     1      24.720  57.901  43.056  1.00  0.00    -0.387 OA
ATOM     56  H   UNL     1      25.282  57.956  43.872  1.00  0.00     0.211 HD
ENDBRANCH  50  55
BRANCH  51  57
ATOM     57  O   UNL     1      27.020  59.570  43.574  1.00  0.00    -0.341 OA
BRANCH  57  58
ATOM     58  C   UNL     1      28.028  58.828  44.258  1.00  0.00     0.282 C 
ATOM     59  O   UNL     1      27.457  57.702  44.915  1.00  0.00    -0.344 OA
ATOM     60  C   UNL     1      28.768  59.744  45.261  1.00  0.00     0.202 C 
ATOM     61  C   UNL     1      26.480  58.086  45.874  1.00  0.00     0.150 C 
ATOM     62  C   UNL     1      27.783  60.194  46.355  1.00  0.00     0.179 C 
ATOM     63  C   UNL     1      27.109  58.962  46.992  1.00  0.00     0.174 C 
ATOM     64  C   UNL     1      25.873  56.814  46.467  1.00  0.00     0.041 C 
BRANCH  60  65
ATOM     65  O   UNL     1      29.892  59.097  45.817  1.00  0.00    -0.385 OA
ATOM     66  H   UNL     1      30.530  58.873  45.092  1.00  0.00     0.211 HD
ENDBRANCH  60  65
BRANCH  62  67
ATOM     67  O   UNL     1      28.412  61.006  47.316  1.00  0.00    -0.387 OA
ATOM     68  H   UNL     1      28.702  60.421  48.064  1.00  0.00     0.211 HD
ENDBRANCH  62  67
BRANCH  63  69
ATOM     69  O   UNL     1      26.149  59.354  47.942  1.00  0.00    -0.388 OA
ATOM     70  H   UNL     1      25.308  58.867  47.739  1.00  0.00     0.211 HD
ENDBRANCH  63  69
ENDBRANCH  57  58
ENDBRANCH  51  57
ENDBRANCH   1  46
TORSDOF 15
ENDMDL
MODEL 4
REMARK VINA RESULT:   -13.019      9.533     23.413
REMARK INTER + INTRA:         -22.626
REMARK INTER:                 -21.266
REMARK INTRA:                  -1.360
REMARK UNBOUND:                -1.235
REMARK SMILES C[C@@H]1CC[C@@]2(NC1)O[C@H]1C[C@H]3[C@@H]4CC=C5C[C@@H](O[C@H]6O[C@@H](CO[C@H]7O[C@H](C)[C@@H](O[C@@H]8O[C@@H](C)[C@H](O)[C@@H](O)[C@H]8O)[C@H](O)[C@@H]7O)[C@H](O)[C@@H](O)[C@@H]6O)CC[C@]5(C)[C@H]4CC[C@]3(C)[C@H]1[C@@H]2C
REMARK SMILES IDX 23 1 22 2 21 3 19 4 20 5 48 6 46 7 44 8 18 9 17 10 2 11 3 12
REMARK SMILES IDX 7 13 4 14 6 15 5 16 8 17 60 18 9 19 59 20 10 21 57 22 11 23
REMARK SMILES IDX 56 24 12 25 55 26 13 27 54 28 14 29 52 30 15 31 51 32 16 33
REMARK SMILES IDX 50 34 1 35 61 37 58 38 53 39 49 40 47 42 45 44 24 46 25 47
REMARK SMILES IDX 42 48 26 49 40 50 28 51 27 52 43 53 41 55 29 57 30 58 31 59
REMARK SMILES IDX 38 60 32 61 36 62 34 63 33 64 39 65 37 67 35 69
REMARK H PARENT 6 36 49 41 47 43 45 45 43 54 41 56 39 66 37 68 35 70
ROOT
ATOM      1  O   UNL     1      24.203  59.670  40.123  1.00  0.00    -0.347 OA
ENDROOT
BRANCH   1   2
ATOM      2  C   UNL     1      24.452  58.966  41.328  1.00  0.00     0.198 C 
BRANCH   2   3
ATOM      3  C   UNL     1      25.951  58.968  41.661  1.00  0.00     0.178 C 
ATOM      4  C   UNL     1      27.513  59.737  43.230  1.00  0.00     0.282 C 
ATOM      5  O   UNL     1      26.223  59.939  42.643  1.00  0.00    -0.341 OA
ATOM      6  C   UNL     1      28.599  59.178  42.243  1.00  0.00     0.202 C 
ATOM      7  C   UNL     1      28.282  59.686  40.828  1.00  0.00     0.179 C 
ATOM      8  C   UNL     1      26.843  59.224  40.407  1.00  0.00     0.177 C 
BRANCH   4   9
ATOM      9  O   UNL     1      27.949  60.996  43.731  1.00  0.00    -0.346 OA
BRANCH   9  10
ATOM     10  C   UNL     1      28.310  60.888  45.099  1.00  0.00     0.125 C 
ATOM     11  C   UNL     1      34.082  57.188  56.275  1.00  0.00    -0.000 C 
ATOM     12  C   UNL     1      33.109  56.314  55.441  1.00  0.00     0.009 C 
ATOM     13  C   UNL     1      33.324  58.337  56.964  1.00  0.00     0.087 C 
ATOM     14  C   UNL     1      31.737  56.976  55.234  1.00  0.00     0.053 C 
ATOM     15  N   UNL     1      32.630  59.198  55.981  1.00  0.00    -0.289 NA
ATOM     16  C   UNL     1      31.882  58.477  54.897  1.00  0.00     0.122 C 
ATOM     17  O   UNL     1      32.639  58.619  53.704  1.00  0.00    -0.357 OA
ATOM     18  C   UNL     1      30.457  59.059  54.576  1.00  0.00     0.039 C 
ATOM     19  C   UNL     1      32.196  59.827  53.122  1.00  0.00     0.125 C 
ATOM     20  C   UNL     1      30.683  59.822  53.284  1.00  0.00     0.031 C 
ATOM     21  C   UNL     1      32.461  59.858  51.590  1.00  0.00     0.037 C 
ATOM     22  C   UNL     1      30.193  59.189  51.947  1.00  0.00    -0.024 C 
ATOM     23  C   UNL     1      31.059  60.015  50.991  1.00  0.00     0.002 C 
ATOM     24  C   UNL     1      28.710  59.485  51.641  1.00  0.00     0.008 C 
ATOM     25  C   UNL     1      30.821  59.690  49.496  1.00  0.00     0.000 C 
ATOM     26  C   UNL     1      28.378  59.113  50.183  1.00  0.00     0.005 C 
ATOM     27  C   UNL     1      31.635  60.665  48.616  1.00  0.00     0.031 C 
ATOM     28  C   UNL     1      29.312  59.851  49.170  1.00  0.00     0.003 C 
ATOM     29  C   UNL     1      31.186  60.710  47.179  1.00  0.00    -0.027 C 
ATOM     30  C   UNL     1      29.025  59.475  47.661  1.00  0.00    -0.008 C 
ATOM     31  C   UNL     1      30.036  60.162  46.728  1.00  0.00    -0.065 C 
ATOM     32  C   UNL     1      27.593  60.002  47.330  1.00  0.00     0.014 C 
ATOM     33  C   UNL     1      29.695  60.248  45.246  1.00  0.00     0.063 C 
ATOM     34  C   UNL     1      27.270  60.025  45.835  1.00  0.00     0.033 C 
ATOM     35  C   UNL     1      35.231  57.745  55.416  1.00  0.00     0.009 C 
ATOM     36  H   UNL     1      32.066  59.880  56.527  1.00  0.00     0.125 HD
ATOM     37  C   UNL     1      29.744  59.897  55.651  1.00  0.00     0.012 C 
ATOM     38  C   UNL     1      30.460  57.639  51.837  1.00  0.00     0.012 C 
ATOM     39  C   UNL     1      29.109  57.948  47.389  1.00  0.00     0.016 C 
ENDBRANCH   9  10
ENDBRANCH   4   9
BRANCH   6  40
ATOM     40  O   UNL     1      28.583  57.771  42.228  1.00  0.00    -0.385 OA
ATOM     41  H   UNL     1      29.428  57.475  41.800  1.00  0.00     0.211 HD
ENDBRANCH   6  40
BRANCH   7  42
ATOM     42  O   UNL     1      28.411  61.090  40.794  1.00  0.00    -0.387 OA
ATOM     43  H   UNL     1      29.366  61.329  40.672  1.00  0.00     0.211 HD
ENDBRANCH   7  42
BRANCH   8  44
ATOM     44  O   UNL     1      26.874  58.077  39.594  1.00  0.00    -0.387 OA
ATOM     45  H   UNL     1      27.690  58.122  39.033  1.00  0.00     0.211 HD
ENDBRANCH   8  44
ENDBRANCH   2   3
ENDBRANCH   1   2
BRANCH   1  46
ATOM     46  C   UNL     1      23.877  61.032  40.390  1.00  0.00     0.281 C 
ATOM     47  O   UNL     1      24.480  61.891  39.430  1.00  0.00    -0.344 OA
ATOM     48  C   UNL     1      22.344  61.229  40.450  1.00  0.00     0.202 C 
ATOM     49  C   UNL     1      23.983  61.648  38.120  1.00  0.00     0.150 C 
ATOM     50  C   UNL     1      21.744  61.027  39.049  1.00  0.00     0.180 C 
ATOM     51  C   UNL     1      22.465  61.943  38.039  1.00  0.00     0.181 C 
ATOM     52  C   UNL     1      24.755  62.542  37.146  1.00  0.00     0.041 C 
BRANCH  48  53
ATOM     53  O   UNL     1      22.009  62.501  40.964  1.00  0.00    -0.385 OA
ATOM     54  H   UNL     1      21.903  62.439  41.948  1.00  0.00     0.211 HD
ENDBRANCH  48  53
BRANCH  50  55
ATOM     55  O   UNL     1      20.353  61.232  39.056  1.00  0.00    -0.387 OA
ATOM     56  H   UNL     1      20.093  61.516  39.971  1.00  0.00     0.211 HD
ENDBRANCH  50  55
BRANCH  51  57
ATOM     57  O   UNL     1      22.000  61.674  36.726  1.00  0.00    -0.341 OA
BRANCH  57  58
ATOM     58  C   UNL     1      21.619  62.851  36.014  1.00  0.00     0.282 C 
ATOM     59  O   UNL     1      20.206  63.012  36.042  1.00  0.00    -0.344 OA
ATOM     60  C   UNL     1      22.144  62.781  34.561  1.00  0.00     0.202 C 
ATOM     61  C   UNL     1      19.533  61.911  35.445  1.00  0.00     0.150 C 
ATOM     62  C   UNL     1      21.449  61.620  33.827  1.00  0.00     0.179 C 
ATOM     63  C   UNL     1      19.918  61.768  33.947  1.00  0.00     0.174 C 
ATOM     64  C   UNL     1      18.028  62.140  35.592  1.00  0.00     0.041 C 
BRANCH  60  65
ATOM     65  O   UNL     1      21.951  64.005  33.885  1.00  0.00    -0.385 OA
ATOM     66  H   UNL     1      21.857  64.733  34.551  1.00  0.00     0.211 HD
ENDBRANCH  60  65
BRANCH  62  67
ATOM     67  O   UNL     1      21.866  61.531  32.487  1.00  0.00    -0.387 OA
ATOM     68  H   UNL     1      22.744  61.988  32.412  1.00  0.00     0.211 HD
ENDBRANCH  62  67
BRANCH  63  69
ATOM     69  O   UNL     1      19.264  60.676  33.348  1.00  0.00    -0.388 OA
ATOM     70  H   UNL     1      18.764  60.197  34.060  1.00  0.00     0.211 HD
ENDBRANCH  63  69
ENDBRANCH  57  58
ENDBRANCH  51  57
ENDBRANCH   1  46
TORSDOF 15
ENDMDL
MODEL 5
REMARK VINA RESULT:   -12.747      9.325     22.470
REMARK INTER + INTRA:         -22.178
REMARK INTER:                 -20.977
REMARK INTRA:                  -1.201
REMARK UNBOUND:                -1.235
REMARK SMILES C[C@@H]1CC[C@@]2(NC1)O[C@H]1C[C@H]3[C@@H]4CC=C5C[C@@H](O[C@H]6O[C@@H](CO[C@H]7O[C@H](C)[C@@H](O[C@@H]8O[C@@H](C)[C@H](O)[C@@H](O)[C@H]8O)[C@H](O)[C@@H]7O)[C@H](O)[C@@H](O)[C@@H]6O)CC[C@]5(C)[C@H]4CC[C@]3(C)[C@H]1[C@@H]2C
REMARK SMILES IDX 23 1 22 2 21 3 19 4 20 5 48 6 46 7 44 8 18 9 17 10 2 11 3 12
REMARK SMILES IDX 7 13 4 14 6 15 5 16 8 17 60 18 9 19 59 20 10 21 57 22 11 23
REMARK SMILES IDX 56 24 12 25 55 26 13 27 54 28 14 29 52 30 15 31 51 32 16 33
REMARK SMILES IDX 50 34 1 35 61 37 58 38 53 39 49 40 47 42 45 44 24 46 25 47
REMARK SMILES IDX 42 48 26 49 40 50 28 51 27 52 43 53 41 55 29 57 30 58 31 59
REMARK SMILES IDX 38 60 32 61 36 62 34 63 33 64 39 65 37 67 35 69
REMARK H PARENT 6 36 49 41 47 43 45 45 43 54 41 56 39 66 37 68 35 70
ROOT
ATOM      1  O   UNL     1      24.285  59.946  40.117  1.00  0.00    -0.347 OA
ENDROOT
BRANCH   1   2
ATOM      2  C   UNL     1      24.589  59.251  41.315  1.00  0.00     0.198 C 
BRANCH   2   3
ATOM      3  C   UNL     1      26.108  59.182  41.532  1.00  0.00     0.178 C 
ATOM      4  C   UNL     1      27.746  58.438  43.036  1.00  0.00     0.282 C 
ATOM      5  O   UNL     1      26.386  58.857  42.874  1.00  0.00    -0.341 OA
ATOM      6  C   UNL     1      28.769  59.164  42.092  1.00  0.00     0.202 C 
ATOM      7  C   UNL     1      28.252  60.584  41.810  1.00  0.00     0.179 C 
ATOM      8  C   UNL     1      26.830  60.511  41.153  1.00  0.00     0.177 C 
BRANCH   4   9
ATOM      9  O   UNL     1      28.105  58.692  44.390  1.00  0.00    -0.346 OA
BRANCH   9  10
ATOM     10  C   UNL     1      28.599  57.511  45.001  1.00  0.00     0.125 C 
ATOM     11  C   UNL     1      29.790  45.178  49.290  1.00  0.00    -0.000 C 
ATOM     12  C   UNL     1      28.775  46.218  49.834  1.00  0.00     0.009 C 
ATOM     13  C   UNL     1      31.222  45.541  49.720  1.00  0.00     0.087 C 
ATOM     14  C   UNL     1      29.452  47.495  50.360  1.00  0.00     0.053 C 
ATOM     15  N   UNL     1      31.611  46.885  49.238  1.00  0.00    -0.289 NA
ATOM     16  C   UNL     1      30.582  47.963  49.416  1.00  0.00     0.122 C 
ATOM     17  O   UNL     1      30.038  48.234  48.132  1.00  0.00    -0.357 OA
ATOM     18  C   UNL     1      31.142  49.334  49.945  1.00  0.00     0.039 C 
ATOM     19  C   UNL     1      30.881  49.216  47.569  1.00  0.00     0.125 C 
ATOM     20  C   UNL     1      31.169  50.196  48.696  1.00  0.00     0.031 C 
ATOM     21  C   UNL     1      30.152  50.037  46.467  1.00  0.00     0.037 C 
ATOM     22  C   UNL     1      30.061  51.275  48.511  1.00  0.00    -0.024 C 
ATOM     23  C   UNL     1      30.208  51.472  46.998  1.00  0.00     0.002 C 
ATOM     24  C   UNL     1      30.388  52.611  49.211  1.00  0.00     0.008 C 
ATOM     25  C   UNL     1      29.258  52.546  46.414  1.00  0.00     0.000 C 
ATOM     26  C   UNL     1      29.427  53.717  48.733  1.00  0.00     0.005 C 
ATOM     27  C   UNL     1      29.579  52.766  44.919  1.00  0.00     0.031 C 
ATOM     28  C   UNL     1      29.461  53.882  47.178  1.00  0.00     0.003 C 
ATOM     29  C   UNL     1      29.009  54.041  44.353  1.00  0.00    -0.027 C 
ATOM     30  C   UNL     1      28.467  54.988  46.642  1.00  0.00    -0.008 C 
ATOM     31  C   UNL     1      28.484  55.034  45.105  1.00  0.00    -0.065 C 
ATOM     32  C   UNL     1      28.976  56.357  47.193  1.00  0.00     0.014 C 
ATOM     33  C   UNL     1      27.913  56.269  44.422  1.00  0.00     0.063 C 
ATOM     34  C   UNL     1      28.341  57.574  46.517  1.00  0.00     0.033 C 
ATOM     35  C   UNL     1      29.708  45.045  47.758  1.00  0.00     0.009 C 
ATOM     36  H   UNL     1      32.542  47.092  49.652  1.00  0.00     0.125 HD
ATOM     37  C   UNL     1      32.479  49.338  50.706  1.00  0.00     0.012 C 
ATOM     38  C   UNL     1      28.620  50.792  48.931  1.00  0.00     0.012 C 
ATOM     39  C   UNL     1      26.997  54.748  47.081  1.00  0.00     0.016 C 
ENDBRANCH   9  10
ENDBRANCH   4   9
BRANCH   6  40
ATOM     40  O   UNL     1      28.892  58.480  40.868  1.00  0.00    -0.385 OA
ATOM     41  H   UNL     1      29.258  59.126  40.210  1.00  0.00     0.211 HD
ENDBRANCH   6  40
BRANCH   7  42
ATOM     42  O   UNL     1      28.237  61.324  43.011  1.00  0.00    -0.387 OA
ATOM     43  H   UNL     1      28.803  60.867  43.685  1.00  0.00     0.211 HD
ENDBRANCH   7  42
BRANCH   8  44
ATOM     44  O   UNL     1      26.887  60.647  39.755  1.00  0.00    -0.387 OA
ATOM     45  H   UNL     1      26.887  59.738  39.358  1.00  0.00     0.211 HD
ENDBRANCH   8  44
ENDBRANCH   2   3
ENDBRANCH   1   2
BRANCH   1  46
ATOM     46  C   UNL     1      23.821  61.265  40.400  1.00  0.00     0.281 C 
ATOM     47  O   UNL     1      24.351  62.196  39.465  1.00  0.00    -0.344 OA
ATOM     48  C   UNL     1      22.276  61.309  40.438  1.00  0.00     0.202 C 
ATOM     49  C   UNL     1      23.901  61.928  38.142  1.00  0.00     0.150 C 
ATOM     50  C   UNL     1      21.720  61.074  39.024  1.00  0.00     0.180 C 
ATOM     51  C   UNL     1      22.362  62.074  38.041  1.00  0.00     0.181 C 
ATOM     52  C   UNL     1      24.595  62.911  37.196  1.00  0.00     0.041 C 
BRANCH  48  53
ATOM     53  O   UNL     1      21.810  62.532  40.967  1.00  0.00    -0.385 OA
ATOM     54  H   UNL     1      20.891  62.704  40.637  1.00  0.00     0.211 HD
ENDBRANCH  48  53
BRANCH  50  55
ATOM     55  O   UNL     1      20.315  61.140  39.011  1.00  0.00    -0.387 OA
ATOM     56  H   UNL     1      19.983  60.701  39.837  1.00  0.00     0.211 HD
ENDBRANCH  50  55
BRANCH  51  57
ATOM     57  O   UNL     1      21.946  61.783  36.716  1.00  0.00    -0.341 OA
BRANCH  57  58
ATOM     58  C   UNL     1      21.561  62.945  35.982  1.00  0.00     0.282 C 
ATOM     59  O   UNL     1      20.146  63.097  36.000  1.00  0.00    -0.344 OA
ATOM     60  C   UNL     1      22.094  62.854  34.533  1.00  0.00     0.202 C 
ATOM     61  C   UNL     1      19.484  61.981  35.419  1.00  0.00     0.150 C 
ATOM     62  C   UNL     1      21.410  61.676  33.816  1.00  0.00     0.179 C 
ATOM     63  C   UNL     1      19.878  61.815  33.925  1.00  0.00     0.174 C 
ATOM     64  C   UNL     1      17.977  62.202  35.554  1.00  0.00     0.041 C 
BRANCH  60  65
ATOM     65  O   UNL     1      21.897  64.065  33.835  1.00  0.00    -0.385 OA
ATOM     66  H   UNL     1      22.323  64.804  34.339  1.00  0.00     0.211 HD
ENDBRANCH  60  65
BRANCH  62  67
ATOM     67  O   UNL     1      21.835  61.567  32.479  1.00  0.00    -0.387 OA
ATOM     68  H   UNL     1      21.909  62.485  32.109  1.00  0.00     0.211 HD
ENDBRANCH  62  67
BRANCH  63  69
ATOM     69  O   UNL     1      19.234  60.708  33.342  1.00  0.00    -0.388 OA
ATOM     70  H   UNL     1      18.401  60.540  33.855  1.00  0.00     0.211 HD
ENDBRANCH  63  69
ENDBRANCH  57  58
ENDBRANCH  51  57
ENDBRANCH   1  46
TORSDOF 15
ENDMDL
MODEL 6
REMARK VINA RESULT:   -12.746      9.433     23.450
REMARK INTER + INTRA:         -22.176
REMARK INTER:                 -20.890
REMARK INTRA:                  -1.286
REMARK UNBOUND:                -1.235
REMARK SMILES C[C@@H]1CC[C@@]2(NC1)O[C@H]1C[C@H]3[C@@H]4CC=C5C[C@@H](O[C@H]6O[C@@H](CO[C@H]7O[C@H](C)[C@@H](O[C@@H]8O[C@@H](C)[C@H](O)[C@@H](O)[C@H]8O)[C@H](O)[C@@H]7O)[C@H](O)[C@@H](O)[C@@H]6O)CC[C@]5(C)[C@H]4CC[C@]3(C)[C@H]1[C@@H]2C
REMARK SMILES IDX 23 1 22 2 21 3 19 4 20 5 48 6 46 7 44 8 18 9 17 10 2 11 3 12
REMARK SMILES IDX 7 13 4 14 6 15 5 16 8 17 60 18 9 19 59 20 10 21 57 22 11 23
REMARK SMILES IDX 56 24 12 25 55 26 13 27 54 28 14 29 52 30 15 31 51 32 16 33
REMARK SMILES IDX 50 34 1 35 61 37 58 38 53 39 49 40 47 42 45 44 24 46 25 47
REMARK SMILES IDX 42 48 26 49 40 50 28 51 27 52 43 53 41 55 29 57 30 58 31 59
REMARK SMILES IDX 38 60 32 61 36 62 34 63 33 64 39 65 37 67 35 69
REMARK H PARENT 6 36 49 41 47 43 45 45 43 54 41 56 39 66 37 68 35 70
ROOT
ATOM      1  O   UNL     1      24.199  59.635  39.979  1.00  0.00    -0.347 OA
ENDROOT
BRANCH   1   2
ATOM      2  C   UNL     1      25.596  59.409  40.055  1.00  0.00     0.198 C 
BRANCH   2   3
ATOM      3  C   UNL     1      25.963  58.705  41.370  1.00  0.00     0.178 C 
ATOM      4  C   UNL     1      27.398  58.832  43.219  1.00  0.00     0.282 C 
ATOM      5  O   UNL     1      27.195  59.189  41.847  1.00  0.00    -0.341 OA
ATOM      6  C   UNL     1      26.802  57.437  43.625  1.00  0.00     0.202 C 
ATOM      7  C   UNL     1      26.843  56.512  42.399  1.00  0.00     0.179 C 
ATOM      8  C   UNL     1      26.030  57.154  41.221  1.00  0.00     0.177 C 
BRANCH   4   9
ATOM      9  O   UNL     1      28.803  58.818  43.446  1.00  0.00    -0.346 OA
BRANCH   9  10
ATOM     10  C   UNL     1      29.080  58.652  44.828  1.00  0.00     0.125 C 
ATOM     11  C   UNL     1      30.920  60.960  57.602  1.00  0.00    -0.000 C 
ATOM     12  C   UNL     1      31.850  61.454  56.463  1.00  0.00     0.009 C 
ATOM     13  C   UNL     1      31.048  59.438  57.787  1.00  0.00     0.087 C 
ATOM     14  C   UNL     1      32.398  60.306  55.599  1.00  0.00     0.053 C 
ATOM     15  N   UNL     1      30.711  58.708  56.544  1.00  0.00    -0.289 NA
ATOM     16  C   UNL     1      31.300  59.267  55.281  1.00  0.00     0.122 C 
ATOM     17  O   UNL     1      30.244  59.902  54.575  1.00  0.00    -0.357 OA
ATOM     18  C   UNL     1      31.893  58.195  54.296  1.00  0.00     0.039 C 
ATOM     19  C   UNL     1      29.661  58.890  53.784  1.00  0.00     0.125 C 
ATOM     20  C   UNL     1      30.830  58.097  53.218  1.00  0.00     0.031 C 
ATOM     21  C   UNL     1      28.912  59.479  52.554  1.00  0.00     0.037 C 
ATOM     22  C   UNL     1      31.090  58.791  51.847  1.00  0.00    -0.024 C 
ATOM     23  C   UNL     1      29.638  58.851  51.361  1.00  0.00     0.002 C 
ATOM     24  C   UNL     1      31.897  57.916  50.866  1.00  0.00     0.008 C 
ATOM     25  C   UNL     1      29.478  59.469  49.951  1.00  0.00     0.000 C 
ATOM     26  C   UNL     1      31.847  58.515  49.447  1.00  0.00     0.005 C 
ATOM     27  C   UNL     1      28.005  59.359  49.499  1.00  0.00     0.031 C 
ATOM     28  C   UNL     1      30.376  58.698  48.947  1.00  0.00     0.003 C 
ATOM     29  C   UNL     1      27.804  59.555  48.019  1.00  0.00    -0.027 C 
ATOM     30  C   UNL     1      30.278  59.339  47.505  1.00  0.00    -0.008 C 
ATOM     31  C   UNL     1      28.809  59.575  47.115  1.00  0.00    -0.065 C 
ATOM     32  C   UNL     1      30.904  58.311  46.511  1.00  0.00     0.014 C 
ATOM     33  C   UNL     1      28.490  59.806  45.644  1.00  0.00     0.063 C 
ATOM     34  C   UNL     1      30.604  58.606  45.041  1.00  0.00     0.033 C 
ATOM     35  C   UNL     1      29.451  61.347  57.350  1.00  0.00     0.009 C 
ATOM     36  H   UNL     1      30.918  57.706  56.721  1.00  0.00     0.125 HD
ATOM     37  C   UNL     1      32.304  56.824  54.861  1.00  0.00     0.012 C 
ATOM     38  C   UNL     1      31.758  60.213  51.968  1.00  0.00     0.012 C 
ATOM     39  C   UNL     1      31.010  60.704  47.395  1.00  0.00     0.016 C 
ENDBRANCH   9  10
ENDBRANCH   4   9
BRANCH   6  40
ATOM     40  O   UNL     1      25.465  57.568  44.043  1.00  0.00    -0.385 OA
ATOM     41  H   UNL     1      25.370  57.047  44.882  1.00  0.00     0.211 HD
ENDBRANCH   6  40
BRANCH   7  42
ATOM     42  O   UNL     1      28.186  56.272  42.038  1.00  0.00    -0.387 OA
ATOM     43  H   UNL     1      28.785  56.769  42.653  1.00  0.00     0.211 HD
ENDBRANCH   7  42
BRANCH   8  44
ATOM     44  O   UNL     1      24.733  56.621  41.124  1.00  0.00    -0.387 OA
ATOM     45  H   UNL     1      24.697  56.045  40.317  1.00  0.00     0.211 HD
ENDBRANCH   8  44
ENDBRANCH   2   3
ENDBRANCH   1   2
BRANCH   1  46
ATOM     46  C   UNL     1      23.889  60.996  40.275  1.00  0.00     0.281 C 
ATOM     47  O   UNL     1      24.465  61.865  39.308  1.00  0.00    -0.344 OA
ATOM     48  C   UNL     1      22.359  61.199  40.386  1.00  0.00     0.202 C 
ATOM     49  C   UNL     1      23.926  61.642  38.010  1.00  0.00     0.150 C 
ATOM     50  C   UNL     1      21.715  61.019  39.002  1.00  0.00     0.180 C 
ATOM     51  C   UNL     1      22.408  61.945  37.982  1.00  0.00     0.181 C 
ATOM     52  C   UNL     1      24.672  62.545  37.025  1.00  0.00     0.041 C 
BRANCH  48  53
ATOM     53  O   UNL     1      22.048  62.465  40.928  1.00  0.00    -0.385 OA
ATOM     54  H   UNL     1      22.528  62.581  41.788  1.00  0.00     0.211 HD
ENDBRANCH  48  53
BRANCH  50  55
ATOM     55  O   UNL     1      20.325  61.230  39.056  1.00  0.00    -0.387 OA
ATOM     56  H   UNL     1      20.018  61.467  38.142  1.00  0.00     0.211 HD
ENDBRANCH  50  55
BRANCH  51  57
ATOM     57  O   UNL     1      21.900  61.696  36.681  1.00  0.00    -0.341 OA
BRANCH  57  58
ATOM     58  C   UNL     1      21.526  62.886  35.988  1.00  0.00     0.282 C 
ATOM     59  O   UNL     1      20.114  63.057  36.020  1.00  0.00    -0.344 OA
ATOM     60  C   UNL     1      22.049  62.836  34.533  1.00  0.00     0.202 C 
ATOM     61  C   UNL     1      19.433  61.970  35.407  1.00  0.00     0.150 C 
ATOM     62  C   UNL     1      21.345  61.691  33.782  1.00  0.00     0.179 C 
ATOM     63  C   UNL     1      19.816  61.848  33.906  1.00  0.00     0.174 C 
ATOM     64  C   UNL     1      17.930  62.207  35.559  1.00  0.00     0.041 C 
BRANCH  60  65
ATOM     65  O   UNL     1      21.864  64.072  33.877  1.00  0.00    -0.385 OA
ATOM     66  H   UNL     1      22.286  64.791  34.413  1.00  0.00     0.211 HD
ENDBRANCH  60  65
BRANCH  62  67
ATOM     67  O   UNL     1      21.761  61.621  32.440  1.00  0.00    -0.387 OA
ATOM     68  H   UNL     1      21.722  62.538  32.063  1.00  0.00     0.211 HD
ENDBRANCH  62  67
BRANCH  63  69
ATOM     69  O   UNL     1      19.154  60.770  33.291  1.00  0.00    -0.388 OA
ATOM     70  H   UNL     1      18.760  61.103  32.443  1.00  0.00     0.211 HD
ENDBRANCH  63  69
ENDBRANCH  57  58
ENDBRANCH  51  57
ENDBRANCH   1  46
TORSDOF 15
ENDMDL
MODEL 7
REMARK VINA RESULT:   -12.719      1.246      2.294
REMARK INTER + INTRA:         -22.133
REMARK INTER:                 -21.724
REMARK INTRA:                  -0.409
REMARK UNBOUND:                -1.235
REMARK SMILES C[C@@H]1CC[C@@]2(NC1)O[C@H]1C[C@H]3[C@@H]4CC=C5C[C@@H](O[C@H]6O[C@@H](CO[C@H]7O[C@H](C)[C@@H](O[C@@H]8O[C@@H](C)[C@H](O)[C@@H](O)[C@H]8O)[C@H](O)[C@@H]7O)[C@H](O)[C@@H](O)[C@@H]6O)CC[C@]5(C)[C@H]4CC[C@]3(C)[C@H]1[C@@H]2C
REMARK SMILES IDX 23 1 22 2 21 3 19 4 20 5 48 6 46 7 44 8 18 9 17 10 2 11 3 12
REMARK SMILES IDX 7 13 4 14 6 15 5 16 8 17 60 18 9 19 59 20 10 21 57 22 11 23
REMARK SMILES IDX 56 24 12 25 55 26 13 27 54 28 14 29 52 30 15 31 51 32 16 33
REMARK SMILES IDX 50 34 1 35 61 37 58 38 53 39 49 40 47 42 45 44 24 46 25 47
REMARK SMILES IDX 42 48 26 49 40 50 28 51 27 52 43 53 41 55 29 57 30 58 31 59
REMARK SMILES IDX 38 60 32 61 36 62 34 63 33 64 39 65 37 67 35 69
REMARK H PARENT 6 36 49 41 47 43 45 45 43 54 41 56 39 66 37 68 35 70
ROOT
ATOM      1  O   UNL     1      21.526  61.274  36.146  1.00  0.00    -0.347 OA
ENDROOT
BRANCH   1   2
ATOM      2  C   UNL     1      21.023  61.309  34.821  1.00  0.00     0.198 C 
BRANCH   2   3
ATOM      3  C   UNL     1      19.948  62.396  34.676  1.00  0.00     0.178 C 
ATOM      4  C   UNL     1      18.852  63.738  33.097  1.00  0.00     0.282 C 
ATOM      5  O   UNL     1      20.034  62.989  33.402  1.00  0.00    -0.341 OA
ATOM      6  C   UNL     1      18.187  64.440  34.334  1.00  0.00     0.202 C 
ATOM      7  C   UNL     1      19.289  64.795  35.346  1.00  0.00     0.179 C 
ATOM      8  C   UNL     1      20.054  63.496  35.776  1.00  0.00     0.177 C 
BRANCH   4   9
ATOM      9  O   UNL     1      19.219  64.731  32.145  1.00  0.00    -0.346 OA
BRANCH   9  10
ATOM     10  C   UNL     1      18.296  64.750  31.068  1.00  0.00     0.125 C 
ATOM     11  C   UNL     1       7.985  62.256  23.361  1.00  0.00    -0.000 C 
ATOM     12  C   UNL     1       9.147  61.267  23.646  1.00  0.00     0.009 C 
ATOM     13  C   UNL     1       8.464  63.413  22.467  1.00  0.00     0.087 C 
ATOM     14  C   UNL     1      10.523  61.838  23.265  1.00  0.00     0.053 C 
ATOM     15  N   UNL     1       9.582  64.156  23.089  1.00  0.00    -0.289 NA
ATOM     16  C   UNL     1      10.662  63.313  23.703  1.00  0.00     0.122 C 
ATOM     17  O   UNL     1      10.509  63.401  25.112  1.00  0.00    -0.357 OA
ATOM     18  C   UNL     1      12.129  63.790  23.398  1.00  0.00     0.039 C 
ATOM     19  C   UNL     1      11.256  64.533  25.499  1.00  0.00     0.125 C 
ATOM     20  C   UNL     1      12.546  64.460  24.695  1.00  0.00     0.031 C 
ATOM     21  C   UNL     1      11.682  64.457  26.994  1.00  0.00     0.037 C 
ATOM     22  C   UNL     1      13.511  63.699  25.652  1.00  0.00    -0.024 C 
ATOM     23  C   UNL     1      13.213  64.491  26.928  1.00  0.00     0.002 C 
ATOM     24  C   UNL     1      14.999  63.891  25.295  1.00  0.00     0.008 C 
ATOM     25  C   UNL     1      14.045  64.038  28.152  1.00  0.00     0.000 C 
ATOM     26  C   UNL     1      15.896  63.387  26.443  1.00  0.00     0.005 C 
ATOM     27  C   UNL     1      13.773  64.982  29.345  1.00  0.00     0.031 C 
ATOM     28  C   UNL     1      15.554  64.092  27.796  1.00  0.00     0.003 C 
ATOM     29  C   UNL     1      14.800  64.890  30.443  1.00  0.00    -0.027 C 
ATOM     30  C   UNL     1      16.432  63.583  29.009  1.00  0.00    -0.008 C 
ATOM     31  C   UNL     1      15.983  64.248  30.321  1.00  0.00    -0.065 C 
ATOM     32  C   UNL     1      17.905  64.006  28.708  1.00  0.00     0.014 C 
ATOM     33  C   UNL     1      16.935  64.198  31.508  1.00  0.00     0.063 C 
ATOM     34  C   UNL     1      18.841  63.893  29.912  1.00  0.00     0.033 C 
ATOM     35  C   UNL     1       7.369  62.804  24.662  1.00  0.00     0.009 C 
ATOM     36  H   UNL     1       9.909  64.847  22.386  1.00  0.00     0.125 HD
ATOM     37  C   UNL     1      12.374  64.672  22.161  1.00  0.00     0.012 C 
ATOM     38  C   UNL     1      13.190  62.162  25.793  1.00  0.00     0.012 C 
ATOM     39  C   UNL     1      16.348  62.046  29.217  1.00  0.00     0.016 C 
ENDBRANCH   9  10
ENDBRANCH   4   9
BRANCH   6  40
ATOM     40  O   UNL     1      17.265  63.581  34.959  1.00  0.00    -0.385 OA
ATOM     41  H   UNL     1      17.704  62.695  35.045  1.00  0.00     0.211 HD
ENDBRANCH   6  40
BRANCH   7  42
ATOM     42  O   UNL     1      20.157  65.750  34.777  1.00  0.00    -0.387 OA
ATOM     43  H   UNL     1      21.032  65.717  35.243  1.00  0.00     0.211 HD
ENDBRANCH   7  42
BRANCH   8  44
ATOM     44  O   UNL     1      19.593  62.995  37.006  1.00  0.00    -0.387 OA
ATOM     45  H   UNL     1      20.364  62.589  37.480  1.00  0.00     0.211 HD
ENDBRANCH   8  44
ENDBRANCH   2   3
ENDBRANCH   1   2
BRANCH   1  46
ATOM     46  C   UNL     1      22.621  62.177  36.297  1.00  0.00     0.281 C 
ATOM     47  O   UNL     1      22.628  62.745  37.600  1.00  0.00    -0.344 OA
ATOM     48  C   UNL     1      23.960  61.476  35.972  1.00  0.00     0.202 C 
ATOM     49  C   UNL     1      22.829  61.758  38.605  1.00  0.00     0.150 C 
ATOM     50  C   UNL     1      24.265  60.424  37.050  1.00  0.00     0.180 C 
ATOM     51  C   UNL     1      24.211  61.079  38.445  1.00  0.00     0.181 C 
ATOM     52  C   UNL     1      22.722  62.442  39.970  1.00  0.00     0.041 C 
BRANCH  48  53
ATOM     53  O   UNL     1      25.015  62.409  35.864  1.00  0.00    -0.385 OA
ATOM     54  H   UNL     1      25.147  62.857  36.738  1.00  0.00     0.211 HD
ENDBRANCH  48  53
BRANCH  50  55
ATOM     55  O   UNL     1      25.496  59.787  36.807  1.00  0.00    -0.387 OA
ATOM     56  H   UNL     1      25.737  59.947  35.858  1.00  0.00     0.211 HD
ENDBRANCH  50  55
BRANCH  51  57
ATOM     57  O   UNL     1      24.372  60.091  39.450  1.00  0.00    -0.341 OA
BRANCH  57  58
ATOM     58  C   UNL     1      25.285  60.477  40.476  1.00  0.00     0.282 C 
ATOM     59  O   UNL     1      26.511  59.766  40.343  1.00  0.00    -0.344 OA
ATOM     60  C   UNL     1      24.650  60.239  41.866  1.00  0.00     0.202 C 
ATOM     61  C   UNL     1      26.323  58.360  40.441  1.00  0.00     0.150 C 
ATOM     62  C   UNL     1      24.428  58.728  42.068  1.00  0.00     0.179 C 
ATOM     63  C   UNL     1      25.749  57.970  41.831  1.00  0.00     0.174 C 
ATOM     64  C   UNL     1      27.675  57.685  40.210  1.00  0.00     0.041 C 
BRANCH  60  65
ATOM     65  O   UNL     1      25.446  60.784  42.896  1.00  0.00    -0.385 OA
ATOM     66  H   UNL     1      25.278  60.284  43.735  1.00  0.00     0.211 HD
ENDBRANCH  60  65
BRANCH  62  67
ATOM     67  O   UNL     1      23.880  58.451  43.333  1.00  0.00    -0.387 OA
ATOM     68  H   UNL     1      24.083  57.503  43.549  1.00  0.00     0.211 HD
ENDBRANCH  62  67
BRANCH  63  69
ATOM     69  O   UNL     1      25.552  56.581  41.936  1.00  0.00    -0.388 OA
ATOM     70  H   UNL     1      26.369  56.134  41.591  1.00  0.00     0.211 HD
ENDBRANCH  63  69
ENDBRANCH  57  58
ENDBRANCH  51  57
ENDBRANCH   1  46
TORSDOF 15
ENDMDL
MODEL 8
REMARK VINA RESULT:   -12.580      9.802     23.718
REMARK INTER + INTRA:         -21.904
REMARK INTER:                 -21.040
REMARK INTRA:                  -0.865
REMARK UNBOUND:                -1.235
REMARK SMILES C[C@@H]1CC[C@@]2(NC1)O[C@H]1C[C@H]3[C@@H]4CC=C5C[C@@H](O[C@H]6O[C@@H](CO[C@H]7O[C@H](C)[C@@H](O[C@@H]8O[C@@H](C)[C@H](O)[C@@H](O)[C@H]8O)[C@H](O)[C@@H]7O)[C@H](O)[C@@H](O)[C@@H]6O)CC[C@]5(C)[C@H]4CC[C@]3(C)[C@H]1[C@@H]2C
REMARK SMILES IDX 23 1 22 2 21 3 19 4 20 5 48 6 46 7 44 8 18 9 17 10 2 11 3 12
REMARK SMILES IDX 7 13 4 14 6 15 5 16 8 17 60 18 9 19 59 20 10 21 57 22 11 23
REMARK SMILES IDX 56 24 12 25 55 26 13 27 54 28 14 29 52 30 15 31 51 32 16 33
REMARK SMILES IDX 50 34 1 35 61 37 58 38 53 39 49 40 47 42 45 44 24 46 25 47
REMARK SMILES IDX 42 48 26 49 40 50 28 51 27 52 43 53 41 55 29 57 30 58 31 59
REMARK SMILES IDX 38 60 32 61 36 62 34 63 33 64 39 65 37 67 35 69
REMARK H PARENT 6 36 49 41 47 43 45 45 43 54 41 56 39 66 37 68 35 70
ROOT
ATOM      1  O   UNL     1      23.996  59.434  40.060  1.00  0.00    -0.347 OA
ENDROOT
BRANCH   1   2
ATOM      2  C   UNL     1      25.363  59.065  40.131  1.00  0.00     0.198 C 
BRANCH   2   3
ATOM      3  C   UNL     1      25.818  58.937  41.592  1.00  0.00     0.178 C 
ATOM      4  C   UNL     1      27.715  58.643  42.938  1.00  0.00     0.282 C 
ATOM      5  O   UNL     1      27.136  58.444  41.644  1.00  0.00    -0.341 OA
ATOM      6  C   UNL     1      26.701  58.526  44.131  1.00  0.00     0.202 C 
ATOM      7  C   UNL     1      25.598  57.530  43.740  1.00  0.00     0.179 C 
ATOM      8  C   UNL     1      24.880  58.018  42.433  1.00  0.00     0.177 C 
BRANCH   4   9
ATOM      9  O   UNL     1      28.733  57.661  43.098  1.00  0.00    -0.346 OA
BRANCH   9  10
ATOM     10  C   UNL     1      29.802  58.178  43.874  1.00  0.00     0.125 C 
ATOM     11  C   UNL     1      40.906  59.244  50.764  1.00  0.00    -0.000 C 
ATOM     12  C   UNL     1      39.644  58.467  51.221  1.00  0.00     0.009 C 
ATOM     13  C   UNL     1      40.653  60.762  50.803  1.00  0.00     0.087 C 
ATOM     14  C   UNL     1      38.385  59.349  51.272  1.00  0.00     0.053 C 
ATOM     15  N   UNL     1      39.515  61.146  49.938  1.00  0.00    -0.289 NA
ATOM     16  C   UNL     1      38.297  60.276  50.040  1.00  0.00     0.122 C 
ATOM     17  O   UNL     1      38.249  59.486  48.861  1.00  0.00    -0.357 OA
ATOM     18  C   UNL     1      36.930  61.053  50.094  1.00  0.00     0.039 C 
ATOM     19  C   UNL     1      37.542  60.263  47.919  1.00  0.00     0.125 C 
ATOM     20  C   UNL     1      36.382  60.875  48.690  1.00  0.00     0.031 C 
ATOM     21  C   UNL     1      36.897  59.380  46.812  1.00  0.00     0.037 C 
ATOM     22  C   UNL     1      35.232  59.849  48.463  1.00  0.00    -0.024 C 
ATOM     23  C   UNL     1      35.400  59.673  46.950  1.00  0.00     0.002 C 
ATOM     24  C   UNL     1      33.831  60.434  48.733  1.00  0.00     0.008 C 
ATOM     25  C   UNL     1      34.367  58.712  46.315  1.00  0.00     0.000 C 
ATOM     26  C   UNL     1      32.740  59.488  48.193  1.00  0.00     0.005 C 
ATOM     27  C   UNL     1      34.533  58.711  44.779  1.00  0.00     0.031 C 
ATOM     28  C   UNL     1      32.934  59.191  46.670  1.00  0.00     0.003 C 
ATOM     29  C   UNL     1      33.352  58.139  44.038  1.00  0.00    -0.027 C 
ATOM     30  C   UNL     1      31.852  58.200  46.081  1.00  0.00    -0.008 C 
ATOM     31  C   UNL     1      32.154  57.880  44.608  1.00  0.00    -0.065 C 
ATOM     32  C   UNL     1      30.476  58.932  46.166  1.00  0.00     0.014 C 
ATOM     33  C   UNL     1      31.038  57.278  43.765  1.00  0.00     0.063 C 
ATOM     34  C   UNL     1      29.367  58.268  45.347  1.00  0.00     0.033 C 
ATOM     35  C   UNL     1      41.366  58.814  49.359  1.00  0.00     0.009 C 
ATOM     36  H   UNL     1      39.348  62.159  50.098  1.00  0.00     0.125 HD
ATOM     37  C   UNL     1      36.937  62.521  50.555  1.00  0.00     0.012 C 
ATOM     38  C   UNL     1      35.410  58.501  49.262  1.00  0.00     0.012 C 
ATOM     39  C   UNL     1      31.788  56.848  46.844  1.00  0.00     0.016 C 
ENDBRANCH   9  10
ENDBRANCH   4   9
BRANCH   6  40
ATOM     40  O   UNL     1      26.105  59.771  44.404  1.00  0.00    -0.385 OA
ATOM     41  H   UNL     1      25.706  59.710  45.311  1.00  0.00     0.211 HD
ENDBRANCH   6  40
BRANCH   7  42
ATOM     42  O   UNL     1      26.161  56.246  43.580  1.00  0.00    -0.387 OA
ATOM     43  H   UNL     1      26.880  56.117  44.251  1.00  0.00     0.211 HD
ENDBRANCH   7  42
BRANCH   8  44
ATOM     44  O   UNL     1      23.674  58.684  42.712  1.00  0.00    -0.387 OA
ATOM     45  H   UNL     1      23.853  59.659  42.702  1.00  0.00     0.211 HD
ENDBRANCH   8  44
ENDBRANCH   2   3
ENDBRANCH   1   2
BRANCH   1  46
ATOM     46  C   UNL     1      23.833  60.828  40.314  1.00  0.00     0.281 C 
ATOM     47  O   UNL     1      24.523  61.600  39.339  1.00  0.00    -0.344 OA
ATOM     48  C   UNL     1      22.334  61.202  40.384  1.00  0.00     0.202 C 
ATOM     49  C   UNL     1      23.990  61.402  38.036  1.00  0.00     0.150 C 
ATOM     50  C   UNL     1      21.702  61.057  38.990  1.00  0.00     0.180 C 
ATOM     51  C   UNL     1      22.515  61.872  37.964  1.00  0.00     0.181 C 
ATOM     52  C   UNL     1      24.852  62.189  37.045  1.00  0.00     0.041 C 
BRANCH  48  53
ATOM     53  O   UNL     1      22.155  62.510  40.886  1.00  0.00    -0.385 OA
ATOM     54  H   UNL     1      22.773  62.657  41.647  1.00  0.00     0.211 HD
ENDBRANCH  48  53
BRANCH  50  55
ATOM     55  O   UNL     1      20.344  61.422  39.006  1.00  0.00    -0.387 OA
ATOM     56  H   UNL     1      20.272  62.303  39.458  1.00  0.00     0.211 HD
ENDBRANCH  50  55
BRANCH  51  57
ATOM     57  O   UNL     1      22.010  61.644  36.658  1.00  0.00    -0.341 OA
BRANCH  57  58
ATOM     58  C   UNL     1      21.611  62.843  35.995  1.00  0.00     0.282 C 
ATOM     59  O   UNL     1      20.199  63.003  36.065  1.00  0.00    -0.344 OA
ATOM     60  C   UNL     1      22.098  62.821  34.526  1.00  0.00     0.202 C 
ATOM     61  C   UNL     1      19.511  61.922  35.450  1.00  0.00     0.150 C 
ATOM     62  C   UNL     1      21.383  61.684  33.774  1.00  0.00     0.179 C 
ATOM     63  C   UNL     1      19.857  61.827  33.939  1.00  0.00     0.174 C 
ATOM     64  C   UNL     1      18.010  62.145  35.644  1.00  0.00     0.041 C 
BRANCH  60  65
ATOM     65  O   UNL     1      21.888  64.067  33.896  1.00  0.00    -0.385 OA
ATOM     66  H   UNL     1      22.765  64.465  33.663  1.00  0.00     0.211 HD
ENDBRANCH  60  65
BRANCH  62  67
ATOM     67  O   UNL     1      21.765  61.639  32.421  1.00  0.00    -0.387 OA
ATOM     68  H   UNL     1      22.170  62.515  32.191  1.00  0.00     0.211 HD
ENDBRANCH  62  67
BRANCH  63  69
ATOM     69  O   UNL     1      19.186  60.755  33.322  1.00  0.00    -0.388 OA
ATOM     70  H   UNL     1      18.302  60.660  33.762  1.00  0.00     0.211 HD
ENDBRANCH  63  69
ENDBRANCH  57  58
ENDBRANCH  51  57
ENDBRANCH   1  46
TORSDOF 15
ENDMDL
MODEL 9
REMARK VINA RESULT:   -12.551      9.832     23.786
REMARK INTER + INTRA:         -21.856
REMARK INTER:                 -21.228
REMARK INTRA:                  -0.628
REMARK UNBOUND:                -1.235
REMARK SMILES C[C@@H]1CC[C@@]2(NC1)O[C@H]1C[C@H]3[C@@H]4CC=C5C[C@@H](O[C@H]6O[C@@H](CO[C@H]7O[C@H](C)[C@@H](O[C@@H]8O[C@@H](C)[C@H](O)[C@@H](O)[C@H]8O)[C@H](O)[C@@H]7O)[C@H](O)[C@@H](O)[C@@H]6O)CC[C@]5(C)[C@H]4CC[C@]3(C)[C@H]1[C@@H]2C
REMARK SMILES IDX 23 1 22 2 21 3 19 4 20 5 48 6 46 7 44 8 18 9 17 10 2 11 3 12
REMARK SMILES IDX 7 13 4 14 6 15 5 16 8 17 60 18 9 19 59 20 10 21 57 22 11 23
REMARK SMILES IDX 56 24 12 25 55 26 13 27 54 28 14 29 52 30 15 31 51 32 16 33
REMARK SMILES IDX 50 34 1 35 61 37 58 38 53 39 49 40 47 42 45 44 24 46 25 47
REMARK SMILES IDX 42 48 26 49 40 50 28 51 27 52 43 53 41 55 29 57 30 58 31 59
REMARK SMILES IDX 38 60 32 61 36 62 34 63 33 64 39 65 37 67 35 69
REMARK H PARENT 6 36 49 41 47 43 45 45 43 54 41 56 39 66 37 68 35 70
ROOT
ATOM      1  O   UNL     1      24.248  59.624  40.006  1.00  0.00    -0.347 OA
ENDROOT
BRANCH   1   2
ATOM      2  C   UNL     1      25.609  59.324  40.264  1.00  0.00     0.198 C 
BRANCH   2   3
ATOM      3  C   UNL     1      25.889  59.318  41.774  1.00  0.00     0.178 C 
ATOM      4  C   UNL     1      27.622  59.376  43.352  1.00  0.00     0.282 C 
ATOM      5  O   UNL     1      27.250  59.044  42.009  1.00  0.00    -0.341 OA
ATOM      6  C   UNL     1      26.496  59.137  44.419  1.00  0.00     0.202 C 
ATOM      7  C   UNL     1      25.618  57.965  43.951  1.00  0.00     0.179 C 
ATOM      8  C   UNL     1      25.006  58.288  42.543  1.00  0.00     0.177 C 
BRANCH   4   9
ATOM      9  O   UNL     1      28.751  58.574  43.684  1.00  0.00    -0.346 OA
BRANCH   9  10
ATOM     10  C   UNL     1      29.566  59.238  44.638  1.00  0.00     0.125 C 
ATOM     11  C   UNL     1      38.672  61.796  53.717  1.00  0.00    -0.000 C 
ATOM     12  C   UNL     1      37.414  60.916  53.938  1.00  0.00     0.009 C 
ATOM     13  C   UNL     1      38.282  63.279  53.589  1.00  0.00     0.087 C 
ATOM     14  C   UNL     1      36.102  61.664  53.646  1.00  0.00     0.053 C 
ATOM     15  N   UNL     1      37.340  63.500  52.468  1.00  0.00    -0.289 NA
ATOM     16  C   UNL     1      36.213  62.514  52.361  1.00  0.00     0.122 C 
ATOM     17  O   UNL     1      36.506  61.665  51.261  1.00  0.00    -0.357 OA
ATOM     18  C   UNL     1      34.807  63.147  52.055  1.00  0.00     0.039 C 
ATOM     19  C   UNL     1      35.964  62.316  50.132  1.00  0.00     0.125 C 
ATOM     20  C   UNL     1      34.609  62.843  50.581  1.00  0.00     0.031 C 
ATOM     21  C   UNL     1      35.670  61.316  48.977  1.00  0.00     0.037 C 
ATOM     22  C   UNL     1      33.638  61.692  50.181  1.00  0.00    -0.024 C 
ATOM     23  C   UNL     1      34.161  61.459  48.759  1.00  0.00     0.002 C 
ATOM     24  C   UNL     1      32.165  62.142  50.091  1.00  0.00     0.008 C 
ATOM     25  C   UNL     1      33.389  60.365  47.983  1.00  0.00     0.000 C 
ATOM     26  C   UNL     1      31.315  61.062  49.393  1.00  0.00     0.005 C 
ATOM     27  C   UNL     1      33.899  60.304  46.526  1.00  0.00     0.031 C 
ATOM     28  C   UNL     1      31.876  60.710  47.976  1.00  0.00     0.003 C 
ATOM     29  C   UNL     1      32.974  59.576  45.585  1.00  0.00    -0.027 C 
ATOM     30  C   UNL     1      31.049  59.584  47.236  1.00  0.00    -0.008 C 
ATOM     31  C   UNL     1      31.706  59.223  45.893  1.00  0.00    -0.065 C 
ATOM     32  C   UNL     1      29.630  60.172  46.962  1.00  0.00     0.014 C 
ATOM     33  C   UNL     1      30.869  58.466  44.870  1.00  0.00     0.063 C 
ATOM     34  C   UNL     1      28.801  59.356  45.968  1.00  0.00     0.033 C 
ATOM     35  C   UNL     1      39.476  61.346  52.483  1.00  0.00     0.009 C 
ATOM     36  H   UNL     1      37.051  64.497  52.514  1.00  0.00     0.125 HD
ATOM     37  C   UNL     1      34.576  64.629  52.398  1.00  0.00     0.012 C 
ATOM     38  C   UNL     1      33.751  60.413  51.095  1.00  0.00     0.012 C 
ATOM     39  C   UNL     1      30.935  58.273  48.062  1.00  0.00     0.016 C 
ENDBRANCH   9  10
ENDBRANCH   4   9
BRANCH   6  40
ATOM     40  O   UNL     1      25.684  60.279  44.552  1.00  0.00    -0.385 OA
ATOM     41  H   UNL     1      24.832  59.984  44.967  1.00  0.00     0.211 HD
ENDBRANCH   6  40
BRANCH   7  42
ATOM     42  O   UNL     1      26.389  56.783  43.927  1.00  0.00    -0.387 OA
ATOM     43  H   UNL     1      26.521  56.497  42.987  1.00  0.00     0.211 HD
ENDBRANCH   7  42
BRANCH   8  44
ATOM     44  O   UNL     1      23.685  58.762  42.640  1.00  0.00    -0.387 OA
ATOM     45  H   UNL     1      23.573  59.178  43.533  1.00  0.00     0.211 HD
ENDBRANCH   8  44
ENDBRANCH   2   3
ENDBRANCH   1   2
BRANCH   1  46
ATOM     46  C   UNL     1      23.971  60.996  40.280  1.00  0.00     0.281 C 
ATOM     47  O   UNL     1      24.568  61.835  39.300  1.00  0.00    -0.344 OA
ATOM     48  C   UNL     1      22.447  61.237  40.388  1.00  0.00     0.202 C 
ATOM     49  C   UNL     1      24.024  61.605  38.006  1.00  0.00     0.150 C 
ATOM     50  C   UNL     1      21.798  61.052  39.007  1.00  0.00     0.180 C 
ATOM     51  C   UNL     1      22.513  61.945  37.973  1.00  0.00     0.181 C 
ATOM     52  C   UNL     1      24.791  62.474  37.007  1.00  0.00     0.041 C 
BRANCH  48  53
ATOM     53  O   UNL     1      22.166  62.519  40.910  1.00  0.00    -0.385 OA
ATOM     54  H   UNL     1      23.004  63.049  40.946  1.00  0.00     0.211 HD
ENDBRANCH  48  53
BRANCH  50  55
ATOM     55  O   UNL     1      20.414  61.298  39.057  1.00  0.00    -0.387 OA
ATOM     56  H   UNL     1      19.955  60.540  38.610  1.00  0.00     0.211 HD
ENDBRANCH  50  55
BRANCH  51  57
ATOM     57  O   UNL     1      22.000  61.688  36.676  1.00  0.00    -0.341 OA
BRANCH  57  58
ATOM     58  C   UNL     1      21.625  62.874  35.976  1.00  0.00     0.282 C 
ATOM     59  O   UNL     1      20.214  63.052  36.022  1.00  0.00    -0.344 OA
ATOM     60  C   UNL     1      22.132  62.809  34.516  1.00  0.00     0.202 C 
ATOM     61  C   UNL     1      19.521  61.963  35.425  1.00  0.00     0.150 C 
ATOM     62  C   UNL     1      21.415  61.661  33.783  1.00  0.00     0.179 C 
ATOM     63  C   UNL     1      19.888  61.826  33.921  1.00  0.00     0.174 C 
ATOM     64  C   UNL     1      18.021  62.209  35.590  1.00  0.00     0.041 C 
BRANCH  60  65
ATOM     65  O   UNL     1      21.946  64.040  33.851  1.00  0.00    -0.385 OA
ATOM     66  H   UNL     1      20.990  64.294  33.899  1.00  0.00     0.211 HD
ENDBRANCH  60  65
BRANCH  62  67
ATOM     67  O   UNL     1      21.815  61.577  32.437  1.00  0.00    -0.387 OA
ATOM     68  H   UNL     1      22.677  62.061  32.347  1.00  0.00     0.211 HD
ENDBRANCH  62  67
BRANCH  63  69
ATOM     69  O   UNL     1      19.214  60.746  33.322  1.00  0.00    -0.388 OA
ATOM     70  H   UNL     1      19.629  60.587  32.435  1.00  0.00     0.211 HD
ENDBRANCH  63  69
ENDBRANCH  57  58
ENDBRANCH  51  57
ENDBRANCH   1  46
TORSDOF 15
ENDMDL
