MODEL 1
REMARK VINA RESULT:   -12.796      0.000      0.000
REMARK INTER + INTRA:         -21.908
REMARK INTER:                 -19.902
REMARK INTRA:                  -2.006
REMARK UNBOUND:                -2.006
REMARK SMILES C[C@@H]1O[C@@H](O[C@@H]2[C@@H](O)C[C@H](O[C@H]3CC[C@]4(C(=O)O)[C@H]5CC[C@]6(C)[C@@H](C7=CC(=O)OC7)CC[C@]6(O)[C@@H]5CC[C@]4(O)C3)O[C@@H]2C)[C@H](O)[C@H](O)[C@H]1O
REMARK SMILES IDX 6 1 7 2 9 3 10 4 41 5 42 6 43 7 5 8 4 9 2 10 3 11 48 12
REMARK SMILES IDX 46 13 44 14 1 15 49 16 47 18 45 20 8 22 11 24 12 25 13 26
REMARK SMILES IDX 40 27 14 28 38 29 15 30 37 31 19 32 36 33 20 34 35 35 21 36
REMARK SMILES IDX 33 37 22 38 32 39 24 40 31 41 23 42 39 43 16 45 17 46 18 47
REMARK SMILES IDX 34 49 25 51 26 52 30 53 27 54 29 55 28 56
REMARK H PARENT 49 17 47 19 45 21 8 23 39 44 18 48 34 50
ROOT
ATOM      1  C   UNL     1      27.024  58.797  42.398  1.00  0.00     0.179 C 
ATOM      2  C   UNL     1      26.436  57.715  41.480  1.00  0.00     0.151 C 
ATOM      3  C   UNL     1      25.215  58.258  40.704  1.00  0.00     0.096 C 
ATOM      4  C   UNL     1      25.258  59.796  40.593  1.00  0.00     0.253 C 
ATOM      5  O   UNL     1      26.577  60.247  40.363  1.00  0.00    -0.347 OA
ATOM      6  C   UNL     1      27.453  60.008  41.480  1.00  0.00     0.150 C 
ATOM      7  C   UNL     1      28.858  59.807  40.888  1.00  0.00     0.041 C 
ENDROOT
BRANCH   1   8
ATOM      8  O   UNL     1      28.136  58.248  43.087  1.00  0.00    -0.341 OA
BRANCH   8   9
ATOM      9  C   UNL     1      28.010  58.214  44.498  1.00  0.00     0.282 C 
ATOM     10  C   UNL     1      26.462  57.816  46.268  1.00  0.00     0.150 C 
ATOM     11  O   UNL     1      26.686  57.855  44.850  1.00  0.00    -0.344 OA
ATOM     12  C   UNL     1      27.352  58.784  47.112  1.00  0.00     0.174 C 
ATOM     13  C   UNL     1      27.588  60.038  46.269  1.00  0.00     0.179 C 
ATOM     14  C   UNL     1      28.371  59.645  44.997  1.00  0.00     0.202 C 
ATOM     15  C   UNL     1      26.561  56.388  46.808  1.00  0.00     0.041 C 
BRANCH  12  16
ATOM     16  O   UNL     1      26.743  59.078  48.347  1.00  0.00    -0.388 OA
ATOM     17  H   UNL     1      27.359  58.782  49.067  1.00  0.00     0.211 HD
ENDBRANCH  12  16
BRANCH  13  18
ATOM     18  O   UNL     1      28.217  61.085  46.969  1.00  0.00    -0.387 OA
ATOM     19  H   UNL     1      28.744  60.684  47.707  1.00  0.00     0.211 HD
ENDBRANCH  13  18
BRANCH  14  20
ATOM     20  O   UNL     1      29.766  59.738  45.167  1.00  0.00    -0.385 OA
ATOM     21  H   UNL     1      30.199  59.210  44.445  1.00  0.00     0.211 HD
ENDBRANCH  14  20
ENDBRANCH   8   9
ENDBRANCH   1   8
BRANCH   2  22
ATOM     22  O   UNL     1      26.115  56.533  42.168  1.00  0.00    -0.390 OA
ATOM     23  H   UNL     1      25.289  56.166  41.755  1.00  0.00     0.211 HD
ENDBRANCH   2  22
BRANCH   4  24
ATOM     24  O   UNL     1      24.423  60.201  39.510  1.00  0.00    -0.349 OA
BRANCH  24  25
ATOM     25  C   UNL     1      23.082  60.492  39.893  1.00  0.00     0.124 C 
ATOM     26  C   UNL     1      22.853  61.992  39.741  1.00  0.00     0.033 C 
ATOM     27  C   UNL     1      22.078  59.664  39.036  1.00  0.00     0.068 C 
ATOM     28  C   UNL     1      22.935  62.466  38.269  1.00  0.00     0.025 C 
ATOM     29  C   UNL     1      21.425  60.434  37.826  1.00  0.00     0.084 C 
ATOM     30  C   UNL     1      22.437  61.435  37.161  1.00  0.00     0.100 C 
ATOM     31  C   UNL     1      20.123  61.182  38.324  1.00  0.00     0.037 C 
ATOM     32  C   UNL     1      21.719  62.222  35.949  1.00  0.00     0.015 C 
ATOM     33  C   UNL     1      19.745  62.449  37.530  1.00  0.00     0.010 C 
ATOM     34  C   UNL     1      22.000  61.743  34.498  1.00  0.00     0.006 C 
ATOM     35  C   UNL     1      20.149  62.269  36.073  1.00  0.00     0.026 C 
ATOM     36  C   UNL     1      21.435  62.779  33.496  1.00  0.00     0.010 C 
ATOM     37  C   UNL     1      19.488  63.286  35.092  1.00  0.00     0.074 C 
ATOM     38  C   UNL     1      19.881  63.012  33.608  1.00  0.00     0.003 C 
ATOM     39  C   UNL     1      19.907  64.769  35.256  1.00  0.00     0.037 C 
ATOM     40  C   UNL     1      19.521  64.375  32.883  1.00  0.00     0.028 C 
ATOM     41  C   UNL     1      19.280  65.396  34.021  1.00  0.00     0.012 C 
ATOM     42  C   UNL     1      19.194  61.757  33.005  1.00  0.00     0.015 C 
BRANCH  29  43
ATOM     43  O   UNL     1      21.038  59.499  36.839  1.00  0.00    -0.389 OA
ATOM     44  H   UNL     1      21.141  59.922  35.947  1.00  0.00     0.211 HD
ENDBRANCH  29  43
BRANCH  30  45
ATOM     45  C   UNL     1      23.695  60.706  36.633  1.00  0.00     0.312 C 
ATOM     46  O   UNL     1      23.610  59.623  36.074  1.00  0.00    -0.252 OA
BRANCH  45  47
ATOM     47  O   UNL     1      24.925  61.258  36.752  1.00  0.00    -0.481 OA
ATOM     48  H   UNL     1      25.580  60.940  37.387  1.00  0.00     0.296 HD
ENDBRANCH  45  47
ENDBRANCH  30  45
BRANCH  37  49
ATOM     49  O   UNL     1      18.081  63.169  35.201  1.00  0.00    -0.389 OA
ATOM     50  H   UNL     1      17.864  62.432  35.828  1.00  0.00     0.211 HD
ENDBRANCH  37  49
BRANCH  40  51
ATOM     51  C   UNL     1      18.361  64.412  31.887  1.00  0.00    -0.022 C 
ATOM     52  C   UNL     1      17.121  64.737  32.231  1.00  0.00     0.096 C 
ATOM     53  C   UNL     1      18.381  64.053  30.408  1.00  0.00     0.265 C 
ATOM     54  C   UNL     1      16.326  64.622  31.035  1.00  0.00     0.331 C 
ATOM     55  O   UNL     1      17.073  64.228  29.994  1.00  0.00    -0.458 OA
ATOM     56  O   UNL     1      15.128  64.838  30.963  1.00  0.00    -0.247 OA
ENDBRANCH  40  51
ENDBRANCH  24  25
ENDBRANCH   4  24
TORSDOF 13
ENDMDL
MODEL 2
REMARK VINA RESULT:   -12.781      1.690      2.970
REMARK INTER + INTRA:         -21.885
REMARK INTER:                 -19.865
REMARK INTRA:                  -2.020
REMARK UNBOUND:                -2.006
REMARK SMILES C[C@@H]1O[C@@H](O[C@@H]2[C@@H](O)C[C@H](O[C@H]3CC[C@]4(C(=O)O)[C@H]5CC[C@]6(C)[C@@H](C7=CC(=O)OC7)CC[C@]6(O)[C@@H]5CC[C@]4(O)C3)O[C@@H]2C)[C@H](O)[C@H](O)[C@H]1O
REMARK SMILES IDX 6 1 7 2 9 3 10 4 41 5 42 6 43 7 5 8 4 9 2 10 3 11 48 12
REMARK SMILES IDX 46 13 44 14 1 15 49 16 47 18 45 20 8 22 11 24 12 25 13 26
REMARK SMILES IDX 40 27 14 28 38 29 15 30 37 31 19 32 36 33 20 34 35 35 21 36
REMARK SMILES IDX 33 37 22 38 32 39 24 40 31 41 23 42 39 43 16 45 17 46 18 47
REMARK SMILES IDX 34 49 25 51 26 52 30 53 27 54 29 55 28 56
REMARK H PARENT 49 17 47 19 45 21 8 23 39 44 18 48 34 50
ROOT
ATOM      1  C   UNL     1      27.338  59.169  42.615  1.00  0.00     0.179 C 
ATOM      2  C   UNL     1      27.411  60.640  42.180  1.00  0.00     0.151 C 
ATOM      3  C   UNL     1      26.745  60.838  40.800  1.00  0.00     0.096 C 
ATOM      4  C   UNL     1      25.722  59.720  40.504  1.00  0.00     0.253 C 
ATOM      5  O   UNL     1      24.994  59.386  41.667  1.00  0.00    -0.347 OA
ATOM      6  C   UNL     1      25.811  58.775  42.683  1.00  0.00     0.150 C 
ATOM      7  C   UNL     1      25.180  59.160  44.030  1.00  0.00     0.041 C 
ENDROOT
BRANCH   1   8
ATOM      8  O   UNL     1      27.963  59.042  43.882  1.00  0.00    -0.341 OA
BRANCH   8   9
ATOM      9  C   UNL     1      29.039  58.121  43.931  1.00  0.00     0.282 C 
ATOM     10  C   UNL     1      31.272  57.751  43.180  1.00  0.00     0.150 C 
ATOM     11  O   UNL     1      30.139  58.633  43.201  1.00  0.00    -0.344 OA
ATOM     12  C   UNL     1      30.935  56.229  43.288  1.00  0.00     0.174 C 
ATOM     13  C   UNL     1      29.603  56.004  42.573  1.00  0.00     0.179 C 
ATOM     14  C   UNL     1      28.500  56.798  43.310  1.00  0.00     0.202 C 
ATOM     15  C   UNL     1      32.307  58.148  44.233  1.00  0.00     0.041 C 
BRANCH  12  16
ATOM     16  O   UNL     1      31.971  55.445  42.744  1.00  0.00    -0.388 OA
ATOM     17  H   UNL     1      32.769  55.550  43.326  1.00  0.00     0.211 HD
ENDBRANCH  12  16
BRANCH  13  18
ATOM     18  O   UNL     1      29.259  54.648  42.421  1.00  0.00    -0.387 OA
ATOM     19  H   UNL     1      29.763  54.291  41.645  1.00  0.00     0.211 HD
ENDBRANCH  13  18
BRANCH  14  20
ATOM     20  O   UNL     1      27.863  56.040  44.312  1.00  0.00    -0.385 OA
ATOM     21  H   UNL     1      27.966  56.525  45.174  1.00  0.00     0.211 HD
ENDBRANCH  14  20
ENDBRANCH   8   9
ENDBRANCH   1   8
BRANCH   2  22
ATOM     22  O   UNL     1      28.721  61.147  42.188  1.00  0.00    -0.390 OA
ATOM     23  H   UNL     1      28.655  62.137  42.148  1.00  0.00     0.211 HD
ENDBRANCH   2  22
BRANCH   4  24
ATOM     24  O   UNL     1      24.822  60.179  39.496  1.00  0.00    -0.349 OA
BRANCH  24  25
ATOM     25  C   UNL     1      23.570  60.630  40.004  1.00  0.00     0.124 C 
ATOM     26  C   UNL     1      23.458  62.129  39.746  1.00  0.00     0.033 C 
ATOM     27  C   UNL     1      22.399  59.841  39.344  1.00  0.00     0.068 C 
ATOM     28  C   UNL     1      23.401  62.477  38.238  1.00  0.00     0.025 C 
ATOM     29  C   UNL     1      21.673  60.576  38.154  1.00  0.00     0.084 C 
ATOM     30  C   UNL     1      22.681  61.417  37.291  1.00  0.00     0.100 C 
ATOM     31  C   UNL     1      20.514  61.484  38.730  1.00  0.00     0.037 C 
ATOM     32  C   UNL     1      21.893  62.176  36.104  1.00  0.00     0.015 C 
ATOM     33  C   UNL     1      20.155  62.717  37.875  1.00  0.00     0.010 C 
ATOM     34  C   UNL     1      21.950  61.560  34.678  1.00  0.00     0.006 C 
ATOM     35  C   UNL     1      20.359  62.386  36.403  1.00  0.00     0.026 C 
ATOM     36  C   UNL     1      21.360  62.565  33.660  1.00  0.00     0.010 C 
ATOM     37  C   UNL     1      19.676  63.384  35.418  1.00  0.00     0.074 C 
ATOM     38  C   UNL     1      19.858  62.959  33.929  1.00  0.00     0.003 C 
ATOM     39  C   UNL     1      20.243  64.827  35.401  1.00  0.00     0.037 C 
ATOM     40  C   UNL     1      19.534  64.290  33.132  1.00  0.00     0.028 C 
ATOM     41  C   UNL     1      19.526  65.416  34.196  1.00  0.00     0.012 C 
ATOM     42  C   UNL     1      18.994  61.736  33.523  1.00  0.00     0.015 C 
BRANCH  29  43
ATOM     43  O   UNL     1      21.087  59.610  37.305  1.00  0.00    -0.389 OA
ATOM     44  H   UNL     1      21.695  59.456  36.535  1.00  0.00     0.211 HD
ENDBRANCH  29  43
BRANCH  30  45
ATOM     45  C   UNL     1      23.795  60.529  36.688  1.00  0.00     0.312 C 
ATOM     46  O   UNL     1      23.533  59.463  36.151  1.00  0.00    -0.252 OA
BRANCH  45  47
ATOM     47  O   UNL     1      25.091  60.918  36.716  1.00  0.00    -0.481 OA
ATOM     48  H   UNL     1      25.497  61.324  37.494  1.00  0.00     0.296 HD
ENDBRANCH  45  47
ENDBRANCH  30  45
BRANCH  37  49
ATOM     49  O   UNL     1      18.288  63.416  35.698  1.00  0.00    -0.389 OA
ATOM     50  H   UNL     1      18.105  64.146  36.344  1.00  0.00     0.211 HD
ENDBRANCH  37  49
BRANCH  40  51
ATOM     51  C   UNL     1      18.269  64.365  32.277  1.00  0.00    -0.022 C 
ATOM     52  C   UNL     1      18.256  64.102  30.977  1.00  0.00     0.096 C 
ATOM     53  C   UNL     1      16.869  64.784  32.706  1.00  0.00     0.265 C 
ATOM     54  C   UNL     1      16.901  64.314  30.534  1.00  0.00     0.331 C 
ATOM     55  O   UNL     1      16.117  64.706  31.548  1.00  0.00    -0.458 OA
ATOM     56  O   UNL     1      16.505  64.175  29.389  1.00  0.00    -0.247 OA
ENDBRANCH  40  51
ENDBRANCH  24  25
ENDBRANCH   4  24
TORSDOF 13
ENDMDL
MODEL 3
REMARK VINA RESULT:   -12.502      1.709      2.845
REMARK INTER + INTRA:         -21.451
REMARK INTER:                 -19.471
REMARK INTRA:                  -1.980
REMARK UNBOUND:                -2.006
REMARK SMILES C[C@@H]1O[C@@H](O[C@@H]2[C@@H](O)C[C@H](O[C@H]3CC[C@]4(C(=O)O)[C@H]5CC[C@]6(C)[C@@H](C7=CC(=O)OC7)CC[C@]6(O)[C@@H]5CC[C@]4(O)C3)O[C@@H]2C)[C@H](O)[C@H](O)[C@H]1O
REMARK SMILES IDX 6 1 7 2 9 3 10 4 41 5 42 6 43 7 5 8 4 9 2 10 3 11 48 12
REMARK SMILES IDX 46 13 44 14 1 15 49 16 47 18 45 20 8 22 11 24 12 25 13 26
REMARK SMILES IDX 40 27 14 28 38 29 15 30 37 31 19 32 36 33 20 34 35 35 21 36
REMARK SMILES IDX 33 37 22 38 32 39 24 40 31 41 23 42 39 43 16 45 17 46 18 47
REMARK SMILES IDX 34 49 25 51 26 52 30 53 27 54 29 55 28 56
REMARK H PARENT 49 17 47 19 45 21 8 23 39 44 18 48 34 50
ROOT
ATOM      1  C   UNL     1      27.177  58.321  43.879  1.00  0.00     0.179 C 
ATOM      2  C   UNL     1      26.355  57.382  42.984  1.00  0.00     0.151 C 
ATOM      3  C   UNL     1      25.192  58.145  42.311  1.00  0.00     0.096 C 
ATOM      4  C   UNL     1      25.483  59.658  42.232  1.00  0.00     0.253 C 
ATOM      5  O   UNL     1      26.840  59.892  41.915  1.00  0.00    -0.347 OA
ATOM      6  C   UNL     1      27.738  59.474  42.958  1.00  0.00     0.150 C 
ATOM      7  C   UNL     1      29.045  59.065  42.260  1.00  0.00     0.041 C 
ENDROOT
BRANCH   1   8
ATOM      8  O   UNL     1      28.227  57.573  44.471  1.00  0.00    -0.341 OA
BRANCH   8   9
ATOM      9  C   UNL     1      28.275  57.624  45.887  1.00  0.00     0.282 C 
ATOM     10  C   UNL     1      26.935  57.434  47.851  1.00  0.00     0.150 C 
ATOM     11  O   UNL     1      26.984  57.381  46.416  1.00  0.00    -0.344 OA
ATOM     12  C   UNL     1      27.984  58.379  48.520  1.00  0.00     0.174 C 
ATOM     13  C   UNL     1      28.196  59.566  47.580  1.00  0.00     0.179 C 
ATOM     14  C   UNL     1      28.788  59.049  46.249  1.00  0.00     0.202 C 
ATOM     15  C   UNL     1      27.006  56.035  48.463  1.00  0.00     0.041 C 
BRANCH  12  16
ATOM     16  O   UNL     1      27.553  58.782  49.799  1.00  0.00    -0.388 OA
ATOM     17  H   UNL     1      26.923  59.541  49.682  1.00  0.00     0.211 HD
ENDBRANCH  12  16
BRANCH  13  18
ATOM     18  O   UNL     1      28.973  60.600  48.132  1.00  0.00    -0.387 OA
ATOM     19  H   UNL     1      29.858  60.221  48.373  1.00  0.00     0.211 HD
ENDBRANCH  13  18
BRANCH  14  20
ATOM     20  O   UNL     1      30.197  59.050  46.245  1.00  0.00    -0.385 OA
ATOM     21  H   UNL     1      30.505  59.430  47.111  1.00  0.00     0.211 HD
ENDBRANCH  14  20
ENDBRANCH   8   9
ENDBRANCH   1   8
BRANCH   2  22
ATOM     22  O   UNL     1      25.889  56.246  43.667  1.00  0.00    -0.390 OA
ATOM     23  H   UNL     1      26.656  55.872  44.175  1.00  0.00     0.211 HD
ENDBRANCH   2  22
BRANCH   4  24
ATOM     24  O   UNL     1      24.654  60.231  41.223  1.00  0.00    -0.349 OA
BRANCH  24  25
ATOM     25  C   UNL     1      25.325  60.461  39.987  1.00  0.00     0.124 C 
ATOM     26  C   UNL     1      24.772  59.489  38.951  1.00  0.00     0.033 C 
ATOM     27  C   UNL     1      25.149  61.944  39.540  1.00  0.00     0.068 C 
ATOM     28  C   UNL     1      23.280  59.745  38.622  1.00  0.00     0.025 C 
ATOM     29  C   UNL     1      24.028  62.198  38.463  1.00  0.00     0.084 C 
ATOM     30  C   UNL     1      22.789  61.259  38.683  1.00  0.00     0.100 C 
ATOM     31  C   UNL     1      24.640  62.010  37.017  1.00  0.00     0.037 C 
ATOM     32  C   UNL     1      21.680  61.530  37.543  1.00  0.00     0.015 C 
ATOM     33  C   UNL     1      23.640  61.571  35.928  1.00  0.00     0.010 C 
ATOM     34  C   UNL     1      20.454  62.414  37.910  1.00  0.00     0.006 C 
ATOM     35  C   UNL     1      22.273  62.170  36.230  1.00  0.00     0.026 C 
ATOM     36  C   UNL     1      19.403  62.331  36.777  1.00  0.00     0.010 C 
ATOM     37  C   UNL     1      21.276  62.137  35.030  1.00  0.00     0.074 C 
ATOM     38  C   UNL     1      19.920  62.825  35.373  1.00  0.00     0.003 C 
ATOM     39  C   UNL     1      20.805  60.735  34.567  1.00  0.00     0.037 C 
ATOM     40  C   UNL     1      18.943  62.275  34.252  1.00  0.00     0.028 C 
ATOM     41  C   UNL     1      19.700  61.098  33.588  1.00  0.00     0.012 C 
ATOM     42  C   UNL     1      20.010  64.373  35.447  1.00  0.00     0.015 C 
BRANCH  29  43
ATOM     43  O   UNL     1      23.577  63.533  38.573  1.00  0.00    -0.389 OA
ATOM     44  H   UNL     1      23.759  63.999  37.716  1.00  0.00     0.211 HD
ENDBRANCH  29  43
BRANCH  30  45
ATOM     45  C   UNL     1      22.157  61.466  40.080  1.00  0.00     0.312 C 
ATOM     46  O   UNL     1      21.953  62.587  40.522  1.00  0.00    -0.252 OA
BRANCH  45  47
ATOM     47  O   UNL     1      21.789  60.412  40.845  1.00  0.00    -0.481 OA
ATOM     48  H   UNL     1      21.018  59.865  40.642  1.00  0.00     0.296 HD
ENDBRANCH  45  47
ENDBRANCH  30  45
BRANCH  37  49
ATOM     49  O   UNL     1      21.857  62.833  33.941  1.00  0.00    -0.389 OA
ATOM     50  H   UNL     1      22.234  63.690  34.269  1.00  0.00     0.211 HD
ENDBRANCH  37  49
BRANCH  40  51
ATOM     51  C   UNL     1      18.412  63.229  33.182  1.00  0.00    -0.022 C 
ATOM     52  C   UNL     1      18.907  63.287  31.953  1.00  0.00     0.096 C 
ATOM     53  C   UNL     1      17.317  64.278  33.320  1.00  0.00     0.265 C 
ATOM     54  C   UNL     1      18.172  64.321  31.269  1.00  0.00     0.331 C 
ATOM     55  O   UNL     1      17.257  64.878  32.075  1.00  0.00    -0.458 OA
ATOM     56  O   UNL     1      18.352  64.665  30.113  1.00  0.00    -0.247 OA
ENDBRANCH  40  51
ENDBRANCH  24  25
ENDBRANCH   4  24
TORSDOF 13
ENDMDL
MODEL 4
REMARK VINA RESULT:   -12.471      1.808      2.506
REMARK INTER + INTRA:         -21.403
REMARK INTER:                 -19.408
REMARK INTRA:                  -1.995
REMARK UNBOUND:                -2.006
REMARK SMILES C[C@@H]1O[C@@H](O[C@@H]2[C@@H](O)C[C@H](O[C@H]3CC[C@]4(C(=O)O)[C@H]5CC[C@]6(C)[C@@H](C7=CC(=O)OC7)CC[C@]6(O)[C@@H]5CC[C@]4(O)C3)O[C@@H]2C)[C@H](O)[C@H](O)[C@H]1O
REMARK SMILES IDX 6 1 7 2 9 3 10 4 41 5 42 6 43 7 5 8 4 9 2 10 3 11 48 12
REMARK SMILES IDX 46 13 44 14 1 15 49 16 47 18 45 20 8 22 11 24 12 25 13 26
REMARK SMILES IDX 40 27 14 28 38 29 15 30 37 31 19 32 36 33 20 34 35 35 21 36
REMARK SMILES IDX 33 37 22 38 32 39 24 40 31 41 23 42 39 43 16 45 17 46 18 47
REMARK SMILES IDX 34 49 25 51 26 52 30 53 27 54 29 55 28 56
REMARK H PARENT 49 17 47 19 45 21 8 23 39 44 18 48 34 50
ROOT
ATOM      1  C   UNL     1      27.346  57.896  42.319  1.00  0.00     0.179 C 
ATOM      2  C   UNL     1      27.893  58.011  40.889  1.00  0.00     0.151 C 
ATOM      3  C   UNL     1      26.785  58.465  39.912  1.00  0.00     0.096 C 
ATOM      4  C   UNL     1      25.656  59.213  40.651  1.00  0.00     0.253 C 
ATOM      5  O   UNL     1      26.185  60.054  41.656  1.00  0.00    -0.347 OA
ATOM      6  C   UNL     1      26.804  59.321  42.729  1.00  0.00     0.150 C 
ATOM      7  C   UNL     1      27.922  60.223  43.276  1.00  0.00     0.041 C 
ENDROOT
BRANCH   1   8
ATOM      8  O   UNL     1      28.399  57.477  43.172  1.00  0.00    -0.341 OA
BRANCH   8   9
ATOM      9  C   UNL     1      28.110  56.340  43.969  1.00  0.00     0.282 C 
ATOM     10  C   UNL     1      28.145  55.520  46.208  1.00  0.00     0.150 C 
ATOM     11  O   UNL     1      28.390  56.628  45.327  1.00  0.00    -0.344 OA
ATOM     12  C   UNL     1      28.315  54.106  45.566  1.00  0.00     0.174 C 
ATOM     13  C   UNL     1      29.438  54.205  44.533  1.00  0.00     0.179 C 
ATOM     14  C   UNL     1      29.010  55.193  43.424  1.00  0.00     0.202 C 
ATOM     15  C   UNL     1      26.779  55.641  46.886  1.00  0.00     0.041 C 
BRANCH  12  16
ATOM     16  O   UNL     1      28.581  53.136  46.551  1.00  0.00    -0.388 OA
ATOM     17  H   UNL     1      27.728  52.676  46.763  1.00  0.00     0.211 HD
ENDBRANCH  12  16
BRANCH  13  18
ATOM     18  O   UNL     1      29.837  52.964  44.004  1.00  0.00    -0.387 OA
ATOM     19  H   UNL     1      29.045  52.367  43.996  1.00  0.00     0.211 HD
ENDBRANCH  13  18
BRANCH  14  20
ATOM     20  O   UNL     1      28.352  54.555  42.354  1.00  0.00    -0.385 OA
ATOM     21  H   UNL     1      28.157  53.619  42.628  1.00  0.00     0.211 HD
ENDBRANCH  14  20
ENDBRANCH   8   9
ENDBRANCH   1   8
BRANCH   2  22
ATOM     22  O   UNL     1      28.509  56.830  40.443  1.00  0.00    -0.390 OA
ATOM     23  H   UNL     1      27.828  56.316  39.933  1.00  0.00     0.211 HD
ENDBRANCH   2  22
BRANCH   4  24
ATOM     24  O   UNL     1      24.934  60.001  39.706  1.00  0.00    -0.349 OA
BRANCH  24  25
ATOM     25  C   UNL     1      23.758  60.605  40.238  1.00  0.00     0.124 C 
ATOM     26  C   UNL     1      23.774  62.087  39.880  1.00  0.00     0.033 C 
ATOM     27  C   UNL     1      22.484  59.892  39.690  1.00  0.00     0.068 C 
ATOM     28  C   UNL     1      23.670  62.338  38.355  1.00  0.00     0.025 C 
ATOM     29  C   UNL     1      21.769  60.614  38.486  1.00  0.00     0.084 C 
ATOM     30  C   UNL     1      22.805  61.293  37.520  1.00  0.00     0.100 C 
ATOM     31  C   UNL     1      20.733  61.667  39.049  1.00  0.00     0.037 C 
ATOM     32  C   UNL     1      22.030  62.045  36.320  1.00  0.00     0.015 C 
ATOM     33  C   UNL     1      20.447  62.870  38.127  1.00  0.00     0.010 C 
ATOM     34  C   UNL     1      21.954  61.334  34.941  1.00  0.00     0.006 C 
ATOM     35  C   UNL     1      20.542  62.424  36.674  1.00  0.00     0.026 C 
ATOM     36  C   UNL     1      21.408  62.323  33.882  1.00  0.00     0.010 C 
ATOM     37  C   UNL     1      19.905  63.417  35.653  1.00  0.00     0.074 C 
ATOM     38  C   UNL     1      19.967  62.878  34.191  1.00  0.00     0.003 C 
ATOM     39  C   UNL     1      20.602  64.793  35.507  1.00  0.00     0.037 C 
ATOM     40  C   UNL     1      19.728  64.179  33.318  1.00  0.00     0.028 C 
ATOM     41  C   UNL     1      19.882  65.368  34.298  1.00  0.00     0.012 C 
ATOM     42  C   UNL     1      18.970  61.721  33.913  1.00  0.00     0.015 C 
BRANCH  29  43
ATOM     43  O   UNL     1      21.051  59.656  37.736  1.00  0.00    -0.389 OA
ATOM     44  H   UNL     1      20.464  60.134  37.093  1.00  0.00     0.211 HD
ENDBRANCH  29  43
BRANCH  30  45
ATOM     45  C   UNL     1      23.797  60.263  36.931  1.00  0.00     0.312 C 
ATOM     46  O   UNL     1      23.407  59.199  36.474  1.00  0.00    -0.252 OA
BRANCH  45  47
ATOM     47  O   UNL     1      25.125  60.520  36.881  1.00  0.00    -0.481 OA
ATOM     48  H   UNL     1      25.479  61.406  36.726  1.00  0.00     0.296 HD
ENDBRANCH  45  47
ENDBRANCH  30  45
BRANCH  37  49
ATOM     49  O   UNL     1      18.542  63.602  35.994  1.00  0.00    -0.389 OA
ATOM     50  H   UNL     1      17.978  63.364  35.213  1.00  0.00     0.211 HD
ENDBRANCH  37  49
BRANCH  40  51
ATOM     51  C   UNL     1      18.432  64.320  32.519  1.00  0.00    -0.022 C 
ATOM     52  C   UNL     1      17.330  64.865  33.017  1.00  0.00     0.096 C 
ATOM     53  C   UNL     1      18.146  63.843  31.101  1.00  0.00     0.265 C 
ATOM     54  C   UNL     1      16.332  64.782  31.980  1.00  0.00     0.331 C 
ATOM     55  O   UNL     1      16.825  64.190  30.882  1.00  0.00    -0.458 OA
ATOM     56  O   UNL     1      15.183  65.180  32.075  1.00  0.00    -0.247 OA
ENDBRANCH  40  51
ENDBRANCH  24  25
ENDBRANCH   4  24
TORSDOF 13
ENDMDL
MODEL 5
REMARK VINA RESULT:   -12.180      1.258      2.155
REMARK INTER + INTRA:         -20.950
REMARK INTER:                 -19.341
REMARK INTRA:                  -1.609
REMARK UNBOUND:                -2.006
REMARK SMILES C[C@@H]1O[C@@H](O[C@@H]2[C@@H](O)C[C@H](O[C@H]3CC[C@]4(C(=O)O)[C@H]5CC[C@]6(C)[C@@H](C7=CC(=O)OC7)CC[C@]6(O)[C@@H]5CC[C@]4(O)C3)O[C@@H]2C)[C@H](O)[C@H](O)[C@H]1O
REMARK SMILES IDX 6 1 7 2 9 3 10 4 41 5 42 6 43 7 5 8 4 9 2 10 3 11 48 12
REMARK SMILES IDX 46 13 44 14 1 15 49 16 47 18 45 20 8 22 11 24 12 25 13 26
REMARK SMILES IDX 40 27 14 28 38 29 15 30 37 31 19 32 36 33 20 34 35 35 21 36
REMARK SMILES IDX 33 37 22 38 32 39 24 40 31 41 23 42 39 43 16 45 17 46 18 47
REMARK SMILES IDX 34 49 25 51 26 52 30 53 27 54 29 55 28 56
REMARK H PARENT 49 17 47 19 45 21 8 23 39 44 18 48 34 50
ROOT
ATOM      1  C   UNL     1      26.946  59.354  42.694  1.00  0.00     0.179 C 
ATOM      2  C   UNL     1      25.511  59.786  43.032  1.00  0.00     0.151 C 
ATOM      3  C   UNL     1      24.852  60.492  41.826  1.00  0.00     0.096 C 
ATOM      4  C   UNL     1      25.523  60.082  40.498  1.00  0.00     0.253 C 
ATOM      5  O   UNL     1      25.843  58.706  40.501  1.00  0.00    -0.347 OA
ATOM      6  C   UNL     1      26.861  58.370  41.462  1.00  0.00     0.150 C 
ATOM      7  C   UNL     1      26.576  56.925  41.902  1.00  0.00     0.041 C 
ENDROOT
BRANCH   1   8
ATOM      8  O   UNL     1      27.503  58.715  43.831  1.00  0.00    -0.341 OA
BRANCH   8   9
ATOM      9  C   UNL     1      28.683  59.315  44.338  1.00  0.00     0.282 C 
ATOM     10  C   UNL     1      30.952  58.870  44.922  1.00  0.00     0.150 C 
ATOM     11  O   UNL     1      29.720  58.352  44.397  1.00  0.00    -0.344 OA
ATOM     12  C   UNL     1      30.803  60.049  45.937  1.00  0.00     0.174 C 
ATOM     13  C   UNL     1      29.516  59.810  46.726  1.00  0.00     0.179 C 
ATOM     14  C   UNL     1      28.317  59.855  45.752  1.00  0.00     0.202 C 
ATOM     15  C   UNL     1      31.920  59.249  43.799  1.00  0.00     0.041 C 
BRANCH  12  16
ATOM     16  O   UNL     1      31.932  60.137  46.773  1.00  0.00    -0.388 OA
ATOM     17  H   UNL     1      32.195  59.214  47.028  1.00  0.00     0.211 HD
ENDBRANCH  12  16
BRANCH  13  18
ATOM     18  O   UNL     1      29.341  60.689  47.811  1.00  0.00    -0.387 OA
ATOM     19  H   UNL     1      28.369  60.753  47.998  1.00  0.00     0.211 HD
ENDBRANCH  13  18
BRANCH  14  20
ATOM     20  O   UNL     1      27.766  61.146  45.627  1.00  0.00    -0.385 OA
ATOM     21  H   UNL     1      27.449  61.254  44.691  1.00  0.00     0.211 HD
ENDBRANCH  14  20
ENDBRANCH   8   9
ENDBRANCH   1   8
BRANCH   2  22
ATOM     22  O   UNL     1      25.438  60.582  44.187  1.00  0.00    -0.390 OA
ATOM     23  H   UNL     1      25.111  61.477  43.909  1.00  0.00     0.211 HD
ENDBRANCH   2  22
BRANCH   4  24
ATOM     24  O   UNL     1      24.624  60.358  39.426  1.00  0.00    -0.349 OA
BRANCH  24  25
ATOM     25  C   UNL     1      23.295  60.650  39.849  1.00  0.00     0.124 C 
ATOM     26  C   UNL     1      23.050  62.144  39.668  1.00  0.00     0.033 C 
ATOM     27  C   UNL     1      22.268  59.794  39.047  1.00  0.00     0.068 C 
ATOM     28  C   UNL     1      23.077  62.582  38.183  1.00  0.00     0.025 C 
ATOM     29  C   UNL     1      21.567  60.531  37.843  1.00  0.00     0.084 C 
ATOM     30  C   UNL     1      22.548  61.521  37.119  1.00  0.00     0.100 C 
ATOM     31  C   UNL     1      20.278  61.281  38.368  1.00  0.00     0.037 C 
ATOM     32  C   UNL     1      21.783  62.275  35.914  1.00  0.00     0.015 C 
ATOM     33  C   UNL     1      19.863  62.526  37.557  1.00  0.00     0.010 C 
ATOM     34  C   UNL     1      22.017  61.762  34.466  1.00  0.00     0.006 C 
ATOM     35  C   UNL     1      20.217  62.314  36.092  1.00  0.00     0.026 C 
ATOM     36  C   UNL     1      21.410  62.769  33.460  1.00  0.00     0.010 C 
ATOM     37  C   UNL     1      19.516  63.302  35.110  1.00  0.00     0.074 C 
ATOM     38  C   UNL     1      19.859  62.995  33.621  1.00  0.00     0.003 C 
ATOM     39  C   UNL     1      19.929  64.792  35.223  1.00  0.00     0.037 C 
ATOM     40  C   UNL     1      19.463  64.337  32.875  1.00  0.00     0.028 C 
ATOM     41  C   UNL     1      19.254  65.384  33.997  1.00  0.00     0.012 C 
ATOM     42  C   UNL     1      19.160  61.721  33.072  1.00  0.00     0.015 C 
BRANCH  29  43
ATOM     43  O   UNL     1      21.154  59.569  36.893  1.00  0.00    -0.389 OA
ATOM     44  H   UNL     1      21.886  58.910  36.772  1.00  0.00     0.211 HD
ENDBRANCH  29  43
BRANCH  30  45
ATOM     45  C   UNL     1      23.793  60.788  36.565  1.00  0.00     0.312 C 
ATOM     46  O   UNL     1      24.820  61.395  36.302  1.00  0.00    -0.252 OA
BRANCH  45  47
ATOM     47  O   UNL     1      23.788  59.447  36.376  1.00  0.00    -0.481 OA
ATOM     48  H   UNL     1      23.247  59.018  35.700  1.00  0.00     0.296 HD
ENDBRANCH  45  47
ENDBRANCH  30  45
BRANCH  37  49
ATOM     49  O   UNL     1      18.114  63.179  35.271  1.00  0.00    -0.389 OA
ATOM     50  H   UNL     1      17.820  62.308  34.897  1.00  0.00     0.211 HD
ENDBRANCH  37  49
BRANCH  40  51
ATOM     51  C   UNL     1      18.269  64.343  31.921  1.00  0.00    -0.022 C 
ATOM     52  C   UNL     1      18.370  64.043  30.632  1.00  0.00     0.096 C 
ATOM     53  C   UNL     1      16.826  64.724  32.224  1.00  0.00     0.265 C 
ATOM     54  C   UNL     1      17.049  64.195  30.076  1.00  0.00     0.331 C 
ATOM     55  O   UNL     1      16.173  64.587  31.012  1.00  0.00    -0.458 OA
ATOM     56  O   UNL     1      16.751  64.009  28.908  1.00  0.00    -0.247 OA
ENDBRANCH  40  51
ENDBRANCH  24  25
ENDBRANCH   4  24
TORSDOF 13
ENDMDL
MODEL 6
REMARK VINA RESULT:   -11.620      2.506     14.082
REMARK INTER + INTRA:         -20.080
REMARK INTER:                 -18.473
REMARK INTRA:                  -1.607
REMARK UNBOUND:                -2.006
REMARK SMILES C[C@@H]1O[C@@H](O[C@@H]2[C@@H](O)C[C@H](O[C@H]3CC[C@]4(C(=O)O)[C@H]5CC[C@]6(C)[C@@H](C7=CC(=O)OC7)CC[C@]6(O)[C@@H]5CC[C@]4(O)C3)O[C@@H]2C)[C@H](O)[C@H](O)[C@H]1O
REMARK SMILES IDX 6 1 7 2 9 3 10 4 41 5 42 6 43 7 5 8 4 9 2 10 3 11 48 12
REMARK SMILES IDX 46 13 44 14 1 15 49 16 47 18 45 20 8 22 11 24 12 25 13 26
REMARK SMILES IDX 40 27 14 28 38 29 15 30 37 31 19 32 36 33 20 34 35 35 21 36
REMARK SMILES IDX 33 37 22 38 32 39 24 40 31 41 23 42 39 43 16 45 17 46 18 47
REMARK SMILES IDX 34 49 25 51 26 52 30 53 27 54 29 55 28 56
REMARK H PARENT 49 17 47 19 45 21 8 23 39 44 18 48 34 50
ROOT
ATOM      1  C   UNL     1      22.637  61.592  38.075  1.00  0.00     0.179 C 
ATOM      2  C   UNL     1      22.725  62.066  39.533  1.00  0.00     0.151 C 
ATOM      3  C   UNL     1      23.275  60.944  40.442  1.00  0.00     0.096 C 
ATOM      4  C   UNL     1      24.101  59.921  39.635  1.00  0.00     0.253 C 
ATOM      5  O   UNL     1      24.886  60.570  38.656  1.00  0.00    -0.347 OA
ATOM      6  C   UNL     1      24.096  61.188  37.624  1.00  0.00     0.150 C 
ATOM      7  C   UNL     1      24.901  62.403  37.136  1.00  0.00     0.041 C 
ENDROOT
BRANCH   1   8
ATOM      8  O   UNL     1      22.126  62.655  37.286  1.00  0.00    -0.341 OA
BRANCH   8   9
ATOM      9  C   UNL     1      21.308  62.256  36.199  1.00  0.00     0.282 C 
ATOM     10  C   UNL     1      20.641  62.859  33.990  1.00  0.00     0.150 C 
ATOM     11  O   UNL     1      21.454  63.175  35.131  1.00  0.00    -0.344 OA
ATOM     12  C   UNL     1      19.312  62.099  34.307  1.00  0.00     0.174 C 
ATOM     13  C   UNL     1      18.811  62.601  35.661  1.00  0.00     0.179 C 
ATOM     14  C   UNL     1      19.850  62.234  36.745  1.00  0.00     0.202 C 
ATOM     15  C   UNL     1      21.444  62.113  32.924  1.00  0.00     0.041 C 
BRANCH  12  16
ATOM     16  O   UNL     1      18.366  62.294  33.283  1.00  0.00    -0.388 OA
ATOM     17  H   UNL     1      17.972  61.410  33.061  1.00  0.00     0.211 HD
ENDBRANCH  12  16
BRANCH  13  18
ATOM     18  O   UNL     1      17.522  62.147  35.996  1.00  0.00    -0.387 OA
ATOM     19  H   UNL     1      16.920  62.352  35.235  1.00  0.00     0.211 HD
ENDBRANCH  13  18
BRANCH  14  20
ATOM     20  O   UNL     1      19.595  60.982  37.339  1.00  0.00    -0.385 OA
ATOM     21  H   UNL     1      19.416  60.329  36.611  1.00  0.00     0.211 HD
ENDBRANCH  14  20
ENDBRANCH   8   9
ENDBRANCH   1   8
BRANCH   2  22
ATOM     22  O   UNL     1      21.504  62.560  40.021  1.00  0.00    -0.390 OA
ATOM     23  H   UNL     1      20.818  61.859  39.864  1.00  0.00     0.211 HD
ENDBRANCH   2  22
BRANCH   4  24
ATOM     24  O   UNL     1      24.954  59.211  40.532  1.00  0.00    -0.349 OA
BRANCH  24  25
ATOM     25  C   UNL     1      26.285  59.715  40.583  1.00  0.00     0.124 C 
ATOM     26  C   UNL     1      26.347  60.805  41.648  1.00  0.00     0.033 C 
ATOM     27  C   UNL     1      27.293  58.562  40.875  1.00  0.00     0.068 C 
ATOM     28  C   UNL     1      26.095  60.263  43.076  1.00  0.00     0.025 C 
ATOM     29  C   UNL     1      27.762  58.437  42.374  1.00  0.00     0.084 C 
ATOM     30  C   UNL     1      26.601  58.782  43.375  1.00  0.00     0.100 C 
ATOM     31  C   UNL     1      29.018  59.369  42.609  1.00  0.00     0.037 C 
ATOM     32  C   UNL     1      27.132  58.671  44.895  1.00  0.00     0.015 C 
ATOM     33  C   UNL     1      29.198  59.883  44.052  1.00  0.00     0.010 C 
ATOM     34  C   UNL     1      26.781  57.388  45.700  1.00  0.00     0.006 C 
ATOM     35  C   UNL     1      28.695  58.829  45.028  1.00  0.00     0.026 C 
ATOM     36  C   UNL     1      27.153  57.598  47.188  1.00  0.00     0.010 C 
ATOM     37  C   UNL     1      29.165  59.039  46.501  1.00  0.00     0.074 C 
ATOM     38  C   UNL     1      28.679  57.894  47.442  1.00  0.00     0.003 C 
ATOM     39  C   UNL     1      28.612  60.292  47.225  1.00  0.00     0.037 C 
ATOM     40  C   UNL     1      28.838  58.525  48.888  1.00  0.00     0.028 C 
ATOM     41  C   UNL     1      29.068  60.039  48.653  1.00  0.00     0.012 C 
ATOM     42  C   UNL     1      29.438  56.556  47.234  1.00  0.00     0.015 C 
BRANCH  29  43
ATOM     43  O   UNL     1      28.158  57.103  42.623  1.00  0.00    -0.389 OA
ATOM     44  H   UNL     1      29.150  57.065  42.626  1.00  0.00     0.211 HD
ENDBRANCH  29  43
BRANCH  30  45
ATOM     45  C   UNL     1      25.384  57.847  43.181  1.00  0.00     0.312 C 
ATOM     46  O   UNL     1      25.527  56.640  43.060  1.00  0.00    -0.252 OA
BRANCH  45  47
ATOM     47  O   UNL     1      24.122  58.337  43.165  1.00  0.00    -0.481 OA
ATOM     48  H   UNL     1      23.879  59.167  43.598  1.00  0.00     0.296 HD
ENDBRANCH  45  47
ENDBRANCH  30  45
BRANCH  37  49
ATOM     49  O   UNL     1      30.581  59.054  46.525  1.00  0.00    -0.389 OA
ATOM     50  H   UNL     1      30.919  58.150  46.295  1.00  0.00     0.211 HD
ENDBRANCH  37  49
BRANCH  40  51
ATOM     51  C   UNL     1      29.901  57.972  49.837  1.00  0.00    -0.022 C 
ATOM     52  C   UNL     1      31.128  58.470  49.920  1.00  0.00     0.096 C 
ATOM     53  C   UNL     1      29.791  56.778  50.776  1.00  0.00     0.265 C 
ATOM     54  C   UNL     1      31.827  57.664  50.888  1.00  0.00     0.331 C 
ATOM     55  O   UNL     1      31.037  56.694  51.371  1.00  0.00    -0.458 OA
ATOM     56  O   UNL     1      32.989  57.819  51.227  1.00  0.00    -0.247 OA
ENDBRANCH  40  51
ENDBRANCH  24  25
ENDBRANCH   4  24
TORSDOF 13
ENDMDL
MODEL 7
REMARK VINA RESULT:   -11.549      3.311     13.857
REMARK INTER + INTRA:         -19.968
REMARK INTER:                 -18.424
REMARK INTRA:                  -1.544
REMARK UNBOUND:                -2.006
REMARK SMILES C[C@@H]1O[C@@H](O[C@@H]2[C@@H](O)C[C@H](O[C@H]3CC[C@]4(C(=O)O)[C@H]5CC[C@]6(C)[C@@H](C7=CC(=O)OC7)CC[C@]6(O)[C@@H]5CC[C@]4(O)C3)O[C@@H]2C)[C@H](O)[C@H](O)[C@H]1O
REMARK SMILES IDX 6 1 7 2 9 3 10 4 41 5 42 6 43 7 5 8 4 9 2 10 3 11 48 12
REMARK SMILES IDX 46 13 44 14 1 15 49 16 47 18 45 20 8 22 11 24 12 25 13 26
REMARK SMILES IDX 40 27 14 28 38 29 15 30 37 31 19 32 36 33 20 34 35 35 21 36
REMARK SMILES IDX 33 37 22 38 32 39 24 40 31 41 23 42 39 43 16 45 17 46 18 47
REMARK SMILES IDX 34 49 25 51 26 52 30 53 27 54 29 55 28 56
REMARK H PARENT 49 17 47 19 45 21 8 23 39 44 18 48 34 50
ROOT
ATOM      1  C   UNL     1      22.381  61.068  37.843  1.00  0.00     0.179 C 
ATOM      2  C   UNL     1      23.371  59.895  37.797  1.00  0.00     0.151 C 
ATOM      3  C   UNL     1      24.594  60.173  38.699  1.00  0.00     0.096 C 
ATOM      4  C   UNL     1      24.258  61.201  39.801  1.00  0.00     0.253 C 
ATOM      5  O   UNL     1      22.960  60.981  40.313  1.00  0.00    -0.347 OA
ATOM      6  C   UNL     1      21.926  61.238  39.346  1.00  0.00     0.150 C 
ATOM      7  C   UNL     1      20.763  60.298  39.701  1.00  0.00     0.041 C 
ENDROOT
BRANCH   1   8
ATOM      8  O   UNL     1      21.282  60.763  37.000  1.00  0.00    -0.341 OA
BRANCH   8   9
ATOM      9  C   UNL     1      20.955  61.767  36.054  1.00  0.00     0.282 C 
ATOM     10  C   UNL     1      19.132  62.776  34.894  1.00  0.00     0.150 C 
ATOM     11  O   UNL     1      19.553  61.798  35.857  1.00  0.00    -0.344 OA
ATOM     12  C   UNL     1      20.174  63.103  33.775  1.00  0.00     0.174 C 
ATOM     13  C   UNL     1      20.943  61.816  33.477  1.00  0.00     0.179 C 
ATOM     14  C   UNL     1      21.713  61.389  34.747  1.00  0.00     0.202 C 
ATOM     15  C   UNL     1      18.656  64.060  35.576  1.00  0.00     0.041 C 
BRANCH  12  16
ATOM     16  O   UNL     1      19.536  63.621  32.632  1.00  0.00    -0.388 OA
ATOM     17  H   UNL     1      19.529  64.611  32.709  1.00  0.00     0.211 HD
ENDBRANCH  12  16
BRANCH  13  18
ATOM     18  O   UNL     1      21.789  61.904  32.356  1.00  0.00    -0.387 OA
ATOM     19  H   UNL     1      22.719  61.752  32.664  1.00  0.00     0.211 HD
ENDBRANCH  13  18
BRANCH  14  20
ATOM     20  O   UNL     1      23.016  61.921  34.796  1.00  0.00    -0.385 OA
ATOM     21  H   UNL     1      23.634  61.194  35.075  1.00  0.00     0.211 HD
ENDBRANCH  14  20
ENDBRANCH   8   9
ENDBRANCH   1   8
BRANCH   2  22
ATOM     22  O   UNL     1      23.769  59.569  36.490  1.00  0.00    -0.390 OA
ATOM     23  H   UNL     1      24.066  60.410  36.053  1.00  0.00     0.211 HD
ENDBRANCH   2  22
BRANCH   4  24
ATOM     24  O   UNL     1      25.212  61.072  40.854  1.00  0.00    -0.349 OA
BRANCH  24  25
ATOM     25  C   UNL     1      24.795  60.207  41.907  1.00  0.00     0.124 C 
ATOM     26  C   UNL     1      25.008  58.765  41.459  1.00  0.00     0.033 C 
ATOM     27  C   UNL     1      25.577  60.528  43.216  1.00  0.00     0.068 C 
ATOM     28  C   UNL     1      26.503  58.415  41.254  1.00  0.00     0.025 C 
ATOM     29  C   UNL     1      26.796  59.580  43.526  1.00  0.00     0.084 C 
ATOM     30  C   UNL     1      27.543  59.148  42.213  1.00  0.00     0.100 C 
ATOM     31  C   UNL     1      26.287  58.321  44.337  1.00  0.00     0.037 C 
ATOM     32  C   UNL     1      28.763  58.155  42.573  1.00  0.00     0.015 C 
ATOM     33  C   UNL     1      27.125  57.038  44.160  1.00  0.00     0.010 C 
ATOM     34  C   UNL     1      30.200  58.746  42.609  1.00  0.00     0.006 C 
ATOM     35  C   UNL     1      28.585  57.415  43.953  1.00  0.00     0.026 C 
ATOM     36  C   UNL     1      31.228  57.594  42.711  1.00  0.00     0.010 C 
ATOM     37  C   UNL     1      29.588  56.237  44.149  1.00  0.00     0.074 C 
ATOM     38  C   UNL     1      31.071  56.694  43.996  1.00  0.00     0.003 C 
ATOM     39  C   UNL     1      29.509  55.088  43.111  1.00  0.00     0.037 C 
ATOM     40  C   UNL     1      31.846  55.332  43.756  1.00  0.00     0.028 C 
ATOM     41  C   UNL     1      30.747  54.280  43.462  1.00  0.00     0.012 C 
ATOM     42  C   UNL     1      31.590  57.531  45.196  1.00  0.00     0.015 C 
BRANCH  29  43
ATOM     43  O   UNL     1      27.725  60.273  44.336  1.00  0.00    -0.389 OA
ATOM     44  H   UNL     1      28.120  59.630  44.982  1.00  0.00     0.211 HD
ENDBRANCH  29  43
BRANCH  30  45
ATOM     45  C   UNL     1      28.082  60.371  41.434  1.00  0.00     0.312 C 
ATOM     46  O   UNL     1      28.588  61.318  42.017  1.00  0.00    -0.252 OA
BRANCH  45  47
ATOM     47  O   UNL     1      28.031  60.417  40.082  1.00  0.00    -0.481 OA
ATOM     48  H   UNL     1      27.213  60.593  39.597  1.00  0.00     0.296 HD
ENDBRANCH  45  47
ENDBRANCH  30  45
BRANCH  37  49
ATOM     49  O   UNL     1      29.424  55.716  45.456  1.00  0.00    -0.389 OA
ATOM     50  H   UNL     1      28.585  56.076  45.845  1.00  0.00     0.211 HD
ENDBRANCH  37  49
BRANCH  40  51
ATOM     51  C   UNL     1      32.799  54.811  44.832  1.00  0.00    -0.022 C 
ATOM     52  C   UNL     1      34.118  54.936  44.753  1.00  0.00     0.096 C 
ATOM     53  C   UNL     1      32.454  54.042  46.100  1.00  0.00     0.265 C 
ATOM     54  C   UNL     1      34.656  54.296  45.927  1.00  0.00     0.331 C 
ATOM     55  O   UNL     1      33.679  53.788  46.692  1.00  0.00    -0.458 OA
ATOM     56  O   UNL     1      35.842  54.206  46.199  1.00  0.00    -0.247 OA
ENDBRANCH  40  51
ENDBRANCH  24  25
ENDBRANCH   4  24
TORSDOF 13
ENDMDL
MODEL 8
REMARK VINA RESULT:   -11.450      3.166     13.725
REMARK INTER + INTRA:         -19.815
REMARK INTER:                 -18.874
REMARK INTRA:                  -0.941
REMARK UNBOUND:                -2.006
REMARK SMILES C[C@@H]1O[C@@H](O[C@@H]2[C@@H](O)C[C@H](O[C@H]3CC[C@]4(C(=O)O)[C@H]5CC[C@]6(C)[C@@H](C7=CC(=O)OC7)CC[C@]6(O)[C@@H]5CC[C@]4(O)C3)O[C@@H]2C)[C@H](O)[C@H](O)[C@H]1O
REMARK SMILES IDX 6 1 7 2 9 3 10 4 41 5 42 6 43 7 5 8 4 9 2 10 3 11 48 12
REMARK SMILES IDX 46 13 44 14 1 15 49 16 47 18 45 20 8 22 11 24 12 25 13 26
REMARK SMILES IDX 40 27 14 28 38 29 15 30 37 31 19 32 36 33 20 34 35 35 21 36
REMARK SMILES IDX 33 37 22 38 32 39 24 40 31 41 23 42 39 43 16 45 17 46 18 47
REMARK SMILES IDX 34 49 25 51 26 52 30 53 27 54 29 55 28 56
REMARK H PARENT 49 17 47 19 45 21 8 23 39 44 18 48 34 50
ROOT
ATOM      1  C   UNL     1      22.382  61.190  37.625  1.00  0.00     0.179 C 
ATOM      2  C   UNL     1      23.167  59.875  37.745  1.00  0.00     0.151 C 
ATOM      3  C   UNL     1      24.212  59.961  38.879  1.00  0.00     0.096 C 
ATOM      4  C   UNL     1      23.826  61.034  39.919  1.00  0.00     0.253 C 
ATOM      5  O   UNL     1      22.433  61.023  40.157  1.00  0.00    -0.347 OA
ATOM      6  C   UNL     1      21.667  61.436  39.011  1.00  0.00     0.150 C 
ATOM      7  C   UNL     1      20.324  60.693  39.102  1.00  0.00     0.041 C 
ENDROOT
BRANCH   1   8
ATOM      8  O   UNL     1      21.441  61.058  36.572  1.00  0.00    -0.341 OA
BRANCH   8   9
ATOM      9  C   UNL     1      20.945  62.281  36.054  1.00  0.00     0.282 C 
ATOM     10  C   UNL     1      19.047  63.285  35.017  1.00  0.00     0.150 C 
ATOM     11  O   UNL     1      19.623  62.097  35.581  1.00  0.00    -0.344 OA
ATOM     12  C   UNL     1      20.066  64.284  34.381  1.00  0.00     0.174 C 
ATOM     13  C   UNL     1      21.199  63.457  33.775  1.00  0.00     0.179 C 
ATOM     14  C   UNL     1      21.917  62.688  34.908  1.00  0.00     0.202 C 
ATOM     15  C   UNL     1      18.151  64.003  36.028  1.00  0.00     0.041 C 
BRANCH  12  16
ATOM     16  O   UNL     1      19.434  65.104  33.425  1.00  0.00    -0.388 OA
ATOM     17  H   UNL     1      19.918  64.997  32.565  1.00  0.00     0.211 HD
ENDBRANCH  12  16
BRANCH  13  18
ATOM     18  O   UNL     1      22.101  64.207  32.998  1.00  0.00    -0.387 OA
ATOM     19  H   UNL     1      21.712  64.306  32.091  1.00  0.00     0.211 HD
ENDBRANCH  13  18
BRANCH  14  20
ATOM     20  O   UNL     1      22.999  63.408  35.450  1.00  0.00    -0.385 OA
ATOM     21  H   UNL     1      23.164  64.198  34.869  1.00  0.00     0.211 HD
ENDBRANCH  14  20
ENDBRANCH   8   9
ENDBRANCH   1   8
BRANCH   2  22
ATOM     22  O   UNL     1      23.764  59.484  36.534  1.00  0.00    -0.390 OA
ATOM     23  H   UNL     1      24.269  60.266  36.188  1.00  0.00     0.211 HD
ENDBRANCH   2  22
BRANCH   4  24
ATOM     24  O   UNL     1      24.517  60.760  41.137  1.00  0.00    -0.349 OA
BRANCH  24  25
ATOM     25  C   UNL     1      25.919  61.003  41.071  1.00  0.00     0.124 C 
ATOM     26  C   UNL     1      26.443  61.184  42.492  1.00  0.00     0.033 C 
ATOM     27  C   UNL     1      26.640  59.833  40.334  1.00  0.00     0.068 C 
ATOM     28  C   UNL     1      26.323  59.898  43.346  1.00  0.00     0.025 C 
ATOM     29  C   UNL     1      27.322  58.763  41.267  1.00  0.00     0.084 C 
ATOM     30  C   UNL     1      26.485  58.514  42.573  1.00  0.00     0.100 C 
ATOM     31  C   UNL     1      28.794  59.231  41.610  1.00  0.00     0.037 C 
ATOM     32  C   UNL     1      27.234  57.436  43.512  1.00  0.00     0.015 C 
ATOM     33  C   UNL     1      29.353  58.720  42.953  1.00  0.00     0.010 C 
ATOM     34  C   UNL     1      26.722  55.969  43.493  1.00  0.00     0.006 C 
ATOM     35  C   UNL     1      28.784  57.338  43.242  1.00  0.00     0.026 C 
ATOM     36  C   UNL     1      27.395  55.175  44.639  1.00  0.00     0.010 C 
ATOM     37  C   UNL     1      29.548  56.545  44.347  1.00  0.00     0.074 C 
ATOM     38  C   UNL     1      28.967  55.112  44.552  1.00  0.00     0.003 C 
ATOM     39  C   UNL     1      29.468  57.121  45.784  1.00  0.00     0.037 C 
ATOM     40  C   UNL     1      29.536  54.692  45.971  1.00  0.00     0.028 C 
ATOM     41  C   UNL     1      30.093  55.996  46.593  1.00  0.00     0.012 C 
ATOM     42  C   UNL     1      29.314  54.131  43.400  1.00  0.00     0.015 C 
BRANCH  29  43
ATOM     43  O   UNL     1      27.408  57.535  40.574  1.00  0.00    -0.389 OA
ATOM     44  H   UNL     1      26.537  57.064  40.658  1.00  0.00     0.211 HD
ENDBRANCH  29  43
BRANCH  30  45
ATOM     45  C   UNL     1      25.057  58.015  42.248  1.00  0.00     0.312 C 
ATOM     46  O   UNL     1      24.853  57.237  41.328  1.00  0.00    -0.252 OA
BRANCH  45  47
ATOM     47  O   UNL     1      23.994  58.406  42.990  1.00  0.00    -0.481 OA
ATOM     48  H   UNL     1      24.085  58.952  43.783  1.00  0.00     0.296 HD
ENDBRANCH  45  47
ENDBRANCH  30  45
BRANCH  37  49
ATOM     49  O   UNL     1      30.903  56.415  43.956  1.00  0.00    -0.389 OA
ATOM     50  H   UNL     1      31.226  55.510  44.201  1.00  0.00     0.211 HD
ENDBRANCH  37  49
BRANCH  40  51
ATOM     51  C   UNL     1      30.578  53.577  46.062  1.00  0.00    -0.022 C 
ATOM     52  C   UNL     1      30.276  52.329  46.398  1.00  0.00     0.096 C 
ATOM     53  C   UNL     1      32.083  53.679  45.855  1.00  0.00     0.265 C 
ATOM     54  C   UNL     1      31.519  51.600  46.405  1.00  0.00     0.331 C 
ATOM     55  O   UNL     1      32.549  52.397  46.087  1.00  0.00    -0.458 OA
ATOM     56  O   UNL     1      31.639  50.417  46.674  1.00  0.00    -0.247 OA
ENDBRANCH  40  51
ENDBRANCH  24  25
ENDBRANCH   4  24
TORSDOF 13
ENDMDL
MODEL 9
REMARK VINA RESULT:   -11.438      2.063      3.590
REMARK INTER + INTRA:         -19.797
REMARK INTER:                 -17.883
REMARK INTRA:                  -1.914
REMARK UNBOUND:                -2.006
REMARK SMILES C[C@@H]1O[C@@H](O[C@@H]2[C@@H](O)C[C@H](O[C@H]3CC[C@]4(C(=O)O)[C@H]5CC[C@]6(C)[C@@H](C7=CC(=O)OC7)CC[C@]6(O)[C@@H]5CC[C@]4(O)C3)O[C@@H]2C)[C@H](O)[C@H](O)[C@H]1O
REMARK SMILES IDX 6 1 7 2 9 3 10 4 41 5 42 6 43 7 5 8 4 9 2 10 3 11 48 12
REMARK SMILES IDX 46 13 44 14 1 15 49 16 47 18 45 20 8 22 11 24 12 25 13 26
REMARK SMILES IDX 40 27 14 28 38 29 15 30 37 31 19 32 36 33 20 34 35 35 21 36
REMARK SMILES IDX 33 37 22 38 32 39 24 40 31 41 23 42 39 43 16 45 17 46 18 47
REMARK SMILES IDX 34 49 25 51 26 52 30 53 27 54 29 55 28 56
REMARK H PARENT 49 17 47 19 45 21 8 23 39 44 18 48 34 50
ROOT
ATOM      1  C   UNL     1      27.416  59.191  44.239  1.00  0.00     0.179 C 
ATOM      2  C   UNL     1      26.048  59.777  44.616  1.00  0.00     0.151 C 
ATOM      3  C   UNL     1      25.373  60.430  43.388  1.00  0.00     0.096 C 
ATOM      4  C   UNL     1      25.920  59.845  42.069  1.00  0.00     0.253 C 
ATOM      5  O   UNL     1      26.122  58.451  42.184  1.00  0.00    -0.347 OA
ATOM      6  C   UNL     1      27.169  58.112  43.112  1.00  0.00     0.150 C 
ATOM      7  C   UNL     1      26.793  56.744  43.702  1.00  0.00     0.041 C 
ENDROOT
BRANCH   1   8
ATOM      8  O   UNL     1      27.991  58.608  45.397  1.00  0.00    -0.341 OA
BRANCH   8   9
ATOM      9  C   UNL     1      29.220  59.181  45.810  1.00  0.00     0.282 C 
ATOM     10  C   UNL     1      31.516  58.682  46.221  1.00  0.00     0.150 C 
ATOM     11  O   UNL     1      30.234  58.192  45.795  1.00  0.00    -0.344 OA
ATOM     12  C   UNL     1      31.473  59.868  47.239  1.00  0.00     0.174 C 
ATOM     13  C   UNL     1      30.244  59.664  48.125  1.00  0.00     0.179 C 
ATOM     14  C   UNL     1      28.976  59.735  47.244  1.00  0.00     0.202 C 
ATOM     15  C   UNL     1      32.404  59.032  45.026  1.00  0.00     0.041 C 
BRANCH  12  16
ATOM     16  O   UNL     1      32.665  59.931  47.986  1.00  0.00    -0.388 OA
ATOM     17  H   UNL     1      32.421  60.100  48.933  1.00  0.00     0.211 HD
ENDBRANCH  12  16
BRANCH  13  18
ATOM     18  O   UNL     1      30.174  60.551  49.215  1.00  0.00    -0.387 OA
ATOM     19  H   UNL     1      29.406  60.279  49.780  1.00  0.00     0.211 HD
ENDBRANCH  13  18
BRANCH  14  20
ATOM     20  O   UNL     1      28.449  61.038  47.155  1.00  0.00    -0.385 OA
ATOM     21  H   UNL     1      28.064  61.151  46.245  1.00  0.00     0.211 HD
ENDBRANCH  14  20
ENDBRANCH   8   9
ENDBRANCH   1   8
BRANCH   2  22
ATOM     22  O   UNL     1      26.118  60.676  45.693  1.00  0.00    -0.390 OA
ATOM     23  H   UNL     1      26.384  60.155  46.496  1.00  0.00     0.211 HD
ENDBRANCH   2  22
BRANCH   4  24
ATOM     24  O   UNL     1      24.978  60.103  41.029  1.00  0.00    -0.349 OA
BRANCH  24  25
ATOM     25  C   UNL     1      25.570  60.268  39.744  1.00  0.00     0.124 C 
ATOM     26  C   UNL     1      24.889  59.308  38.774  1.00  0.00     0.033 C 
ATOM     27  C   UNL     1      25.447  61.749  39.273  1.00  0.00     0.068 C 
ATOM     28  C   UNL     1      23.395  59.644  38.546  1.00  0.00     0.025 C 
ATOM     29  C   UNL     1      24.267  62.046  38.273  1.00  0.00     0.084 C 
ATOM     30  C   UNL     1      22.996  61.185  38.604  1.00  0.00     0.100 C 
ATOM     31  C   UNL     1      24.761  61.793  36.792  1.00  0.00     0.037 C 
ATOM     32  C   UNL     1      21.824  61.498  37.539  1.00  0.00     0.015 C 
ATOM     33  C   UNL     1      23.661  61.391  35.789  1.00  0.00     0.010 C 
ATOM     34  C   UNL     1      20.681  62.458  37.971  1.00  0.00     0.006 C 
ATOM     35  C   UNL     1      22.356  62.074  36.172  1.00  0.00     0.026 C 
ATOM     36  C   UNL     1      19.547  62.414  36.918  1.00  0.00     0.010 C 
ATOM     37  C   UNL     1      21.275  62.075  35.047  1.00  0.00     0.074 C 
ATOM     38  C   UNL     1      19.988  62.848  35.468  1.00  0.00     0.003 C 
ATOM     39  C   UNL     1      20.692  60.693  34.654  1.00  0.00     0.037 C 
ATOM     40  C   UNL     1      18.903  62.333  34.434  1.00  0.00     0.028 C 
ATOM     41  C   UNL     1      19.541  61.100  33.748  1.00  0.00     0.012 C 
ATOM     42  C   UNL     1      20.171  64.390  35.498  1.00  0.00     0.015 C 
BRANCH  29  43
ATOM     43  O   UNL     1      23.902  63.407  38.382  1.00  0.00    -0.389 OA
ATOM     44  H   UNL     1      22.911  63.465  38.421  1.00  0.00     0.211 HD
ENDBRANCH  29  43
BRANCH  30  45
ATOM     45  C   UNL     1      22.480  61.458  40.037  1.00  0.00     0.312 C 
ATOM     46  O   UNL     1      22.445  62.592  40.491  1.00  0.00    -0.252 OA
BRANCH  45  47
ATOM     47  O   UNL     1      22.028  60.452  40.821  1.00  0.00    -0.481 OA
ATOM     48  H   UNL     1      21.393  59.793  40.510  1.00  0.00     0.296 HD
ENDBRANCH  45  47
ENDBRANCH  30  45
BRANCH  37  49
ATOM     49  O   UNL     1      21.813  62.713  33.903  1.00  0.00    -0.389 OA
ATOM     50  H   UNL     1      21.591  62.177  33.099  1.00  0.00     0.211 HD
ENDBRANCH  37  49
BRANCH  40  51
ATOM     51  C   UNL     1      18.351  63.294  33.382  1.00  0.00    -0.022 C 
ATOM     52  C   UNL     1      18.788  63.326  32.130  1.00  0.00     0.096 C 
ATOM     53  C   UNL     1      17.296  64.378  33.561  1.00  0.00     0.265 C 
ATOM     54  C   UNL     1      18.052  64.376  31.471  1.00  0.00     0.331 C 
ATOM     55  O   UNL     1      17.195  64.969  32.315  1.00  0.00    -0.458 OA
ATOM     56  O   UNL     1      18.187  64.706  30.304  1.00  0.00    -0.247 OA
ENDBRANCH  40  51
ENDBRANCH  24  25
ENDBRANCH   4  24
TORSDOF 13
ENDMDL
