MODEL 1
REMARK VINA RESULT:   -12.646      0.000      0.000
REMARK INTER + INTRA:         -25.131
REMARK INTER:                 -22.996
REMARK INTRA:                  -2.135
REMARK UNBOUND:                -2.135
REMARK SMILES CC1(C)CC[C@]2(C(=O)O[C@@H]3O[C@H](CO)[C@@H](O)[C@H](O)[C@H]3O)CC[C@]3(C)C(=CC[C@@H]4[C@@]5(C)CC[C@H](O[C@@H]6O[C@H](C(=O)O)[C@@H](O[C@@H]7OC[C@@H](O)[C@H](O)[C@H]7O)[C@H](O)[C@H]6O)C(C)(C)[C@@H]5CC[C@]43C)[C@@H]2C1
REMARK SMILES IDX 1 1 2 2 3 3 4 4 5 5 6 6 21 7 22 8 23 9 24 10 25 11 26 12
REMARK SMILES IDX 27 13 28 14 29 15 30 16 31 17 32 18 33 19 56 20 57 21 58 22
REMARK SMILES IDX 59 23 60 24 61 25 62 26 63 27 64 28 65 29 7 30 8 31 9 32
REMARK SMILES IDX 10 33 11 34 19 35 12 36 17 37 15 38 20 39 13 41 14 42 18 44
REMARK SMILES IDX 16 46 34 48 35 49 36 50 54 51 37 52 52 53 41 54 55 55 38 57
REMARK SMILES IDX 39 58 40 59 53 61 42 63 43 64 44 65 50 66 45 67 48 68 46 69
REMARK SMILES IDX 51 70 49 72 47 74
REMARK H PARENT 20 40 14 43 18 45 16 47 55 56 40 60 53 62 51 71 49 73 47 75
ROOT
ATOM      1  C   UNL     1      31.754  59.999  51.148  1.00  0.00     0.011 C 
ATOM      2  C   UNL     1      31.419  60.272  49.665  1.00  0.00    -0.035 C 
ATOM      3  C   UNL     1      31.939  61.704  49.369  1.00  0.00     0.011 C 
ATOM      4  C   UNL     1      32.145  59.284  48.743  1.00  0.00     0.007 C 
ATOM      5  C   UNL     1      31.645  57.817  48.841  1.00  0.00     0.020 C 
ATOM      6  C   UNL     1      30.134  57.592  49.256  1.00  0.00     0.075 C 
ATOM      7  C   UNL     1      29.495  56.367  48.547  1.00  0.00     0.020 C 
ATOM      8  C   UNL     1      29.429  56.507  47.022  1.00  0.00     0.013 C 
ATOM      9  C   UNL     1      28.804  57.860  46.492  1.00  0.00    -0.006 C 
ATOM     10  C   UNL     1      29.966  58.581  45.726  1.00  0.00     0.017 C 
ATOM     11  C   UNL     1      28.456  58.832  47.644  1.00  0.00    -0.063 C 
ATOM     12  C   UNL     1      27.402  59.687  47.539  1.00  0.00    -0.027 C 
ATOM     13  C   UNL     1      26.476  59.812  46.349  1.00  0.00     0.032 C 
ATOM     14  C   UNL     1      26.953  59.021  45.106  1.00  0.00     0.006 C 
ATOM     15  C   UNL     1      25.981  59.102  43.836  1.00  0.00    -0.025 C 
ATOM     16  C   UNL     1      24.530  58.611  44.123  1.00  0.00     0.012 C 
ATOM     17  C   UNL     1      25.873  60.612  43.356  1.00  0.00     0.010 C 
ATOM     18  C   UNL     1      26.301  60.874  41.891  1.00  0.00     0.033 C 
ATOM     19  C   UNL     1      25.629  59.879  40.933  1.00  0.00     0.127 C 
ATOM     20  C   UNL     1      26.108  58.399  41.229  1.00  0.00    -0.006 C 
ATOM     21  C   UNL     1      24.997  57.376  40.890  1.00  0.00     0.014 C 
ATOM     22  C   UNL     1      27.296  58.095  40.261  1.00  0.00     0.014 C 
ATOM     23  C   UNL     1      26.670  58.253  42.707  1.00  0.00     0.003 C 
ATOM     24  C   UNL     1      26.901  56.784  43.160  1.00  0.00     0.005 C 
ATOM     25  C   UNL     1      27.916  56.765  44.299  1.00  0.00     0.008 C 
ATOM     26  C   UNL     1      27.508  57.604  45.553  1.00  0.00    -0.020 C 
ATOM     27  C   UNL     1      26.432  56.793  46.353  1.00  0.00     0.012 C 
ATOM     28  C   UNL     1      29.220  58.839  48.990  1.00  0.00     0.033 C 
ATOM     29  C   UNL     1      29.892  60.228  49.300  1.00  0.00     0.015 C 
ENDROOT
BRANCH   6  30
ATOM     30  C   UNL     1      30.095  57.209  50.744  1.00  0.00     0.315 C 
ATOM     31  O   UNL     1      29.318  57.743  51.525  1.00  0.00    -0.252 OA
BRANCH  30  32
ATOM     32  O   UNL     1      30.931  56.224  51.183  1.00  0.00    -0.432 OA
BRANCH  32  33
ATOM     33  C   UNL     1      30.645  55.280  52.147  1.00  0.00     0.342 C 
ATOM     34  O   UNL     1      31.845  54.711  52.620  1.00  0.00    -0.332 OA
ATOM     35  C   UNL     1      29.739  54.181  51.530  1.00  0.00     0.214 C 
ATOM     36  C   UNL     1      31.629  53.911  53.790  1.00  0.00     0.179 C 
ATOM     37  C   UNL     1      29.822  52.850  52.353  1.00  0.00     0.180 C 
ATOM     38  C   UNL     1      30.243  53.159  53.804  1.00  0.00     0.177 C 
BRANCH  35  39
ATOM     39  O   UNL     1      28.419  54.657  51.420  1.00  0.00    -0.384 OA
ATOM     40  H   UNL     1      28.112  54.920  52.325  1.00  0.00     0.211 HD
ENDBRANCH  35  39
BRANCH  36  41
ATOM     41  C   UNL     1      32.800  52.918  53.913  1.00  0.00     0.191 C 
BRANCH  41  42
ATOM     42  O   UNL     1      32.336  51.666  54.344  1.00  0.00    -0.394 OA
ATOM     43  H   UNL     1      31.651  51.373  53.689  1.00  0.00     0.210 HD
ENDBRANCH  41  42
ENDBRANCH  36  41
BRANCH  37  44
ATOM     44  O   UNL     1      30.730  51.934  51.782  1.00  0.00    -0.387 OA
ATOM     45  H   UNL     1      30.329  51.531  50.969  1.00  0.00     0.211 HD
ENDBRANCH  37  44
BRANCH  38  46
ATOM     46  O   UNL     1      29.255  53.969  54.388  1.00  0.00    -0.387 OA
ATOM     47  H   UNL     1      29.721  54.616  54.979  1.00  0.00     0.211 HD
ENDBRANCH  38  46
ENDBRANCH  32  33
ENDBRANCH  30  32
ENDBRANCH   6  30
BRANCH  19  48
ATOM     48  O   UNL     1      24.215  60.016  41.057  1.00  0.00    -0.346 OA
BRANCH  48  49
ATOM     49  C   UNL     1      23.588  60.582  39.905  1.00  0.00     0.282 C 
ATOM     50  O   UNL     1      24.030  59.892  38.756  1.00  0.00    -0.332 OA
ATOM     51  C   UNL     1      23.967  62.088  39.801  1.00  0.00     0.202 C 
ATOM     52  C   UNL     1      23.268  60.256  37.590  1.00  0.00     0.262 C 
ATOM     53  C   UNL     1      23.951  62.582  38.320  1.00  0.00     0.180 C 
ATOM     54  C   UNL     1      22.910  61.788  37.514  1.00  0.00     0.193 C 
BRANCH  51  55
ATOM     55  O   UNL     1      23.123  62.863  40.618  1.00  0.00    -0.385 OA
ATOM     56  H   UNL     1      22.236  62.424  40.664  1.00  0.00     0.211 HD
ENDBRANCH  51  55
BRANCH  52  57
ATOM     57  C   UNL     1      24.048  59.839  36.360  1.00  0.00     0.335 C 
ATOM     58  O   UNL     1      23.469  59.523  35.335  1.00  0.00    -0.249 OA
BRANCH  57  59
ATOM     59  O   UNL     1      25.401  59.842  36.378  1.00  0.00    -0.479 OA
ATOM     60  H   UNL     1      25.916  59.046  36.187  1.00  0.00     0.296 HD
ENDBRANCH  57  59
ENDBRANCH  52  57
BRANCH  53  61
ATOM     61  O   UNL     1      25.217  62.443  37.709  1.00  0.00    -0.387 OA
ATOM     62  H   UNL     1      25.678  63.320  37.690  1.00  0.00     0.211 HD
ENDBRANCH  53  61
BRANCH  54  63
ATOM     63  O   UNL     1      21.618  61.997  38.071  1.00  0.00    -0.340 OA
BRANCH  63  64
ATOM     64  C   UNL     1      20.639  62.383  37.112  1.00  0.00     0.282 C 
ATOM     65  O   UNL     1      20.110  61.222  36.457  1.00  0.00    -0.347 OA
ATOM     66  C   UNL     1      21.262  63.458  36.163  1.00  0.00     0.202 C 
ATOM     67  C   UNL     1      20.676  61.025  35.179  1.00  0.00     0.198 C 
ATOM     68  C   UNL     1      20.358  63.559  34.926  1.00  0.00     0.179 C 
ATOM     69  C   UNL     1      20.322  62.183  34.207  1.00  0.00     0.171 C 
BRANCH  66  70
ATOM     70  O   UNL     1      21.409  64.691  36.824  1.00  0.00    -0.385 OA
ATOM     71  H   UNL     1      22.174  64.609  37.453  1.00  0.00     0.211 HD
ENDBRANCH  66  70
BRANCH  68  72
ATOM     72  O   UNL     1      20.739  64.585  34.045  1.00  0.00    -0.387 OA
ATOM     73  H   UNL     1      21.036  64.155  33.201  1.00  0.00     0.211 HD
ENDBRANCH  68  72
BRANCH  69  74
ATOM     74  O   UNL     1      19.079  61.997  33.581  1.00  0.00    -0.388 OA
ATOM     75  H   UNL     1      19.233  62.021  32.600  1.00  0.00     0.211 HD
ENDBRANCH  69  74
ENDBRANCH  63  64
ENDBRANCH  54  63
ENDBRANCH  48  49
ENDBRANCH  19  48
TORSDOF 19
ENDMDL
MODEL 2
REMARK VINA RESULT:   -12.521      1.504      2.337
REMARK INTER + INTRA:         -24.904
REMARK INTER:                 -22.688
REMARK INTRA:                  -2.216
REMARK UNBOUND:                -2.135
REMARK SMILES CC1(C)CC[C@]2(C(=O)O[C@@H]3O[C@H](CO)[C@@H](O)[C@H](O)[C@H]3O)CC[C@]3(C)C(=CC[C@@H]4[C@@]5(C)CC[C@H](O[C@@H]6O[C@H](C(=O)O)[C@@H](O[C@@H]7OC[C@@H](O)[C@H](O)[C@H]7O)[C@H](O)[C@H]6O)C(C)(C)[C@@H]5CC[C@]43C)[C@@H]2C1
REMARK SMILES IDX 1 1 2 2 3 3 4 4 5 5 6 6 21 7 22 8 23 9 24 10 25 11 26 12
REMARK SMILES IDX 27 13 28 14 29 15 30 16 31 17 32 18 33 19 56 20 57 21 58 22
REMARK SMILES IDX 59 23 60 24 61 25 62 26 63 27 64 28 65 29 7 30 8 31 9 32
REMARK SMILES IDX 10 33 11 34 19 35 12 36 17 37 15 38 20 39 13 41 14 42 18 44
REMARK SMILES IDX 16 46 34 48 35 49 36 50 54 51 37 52 52 53 41 54 55 55 38 57
REMARK SMILES IDX 39 58 40 59 53 61 42 63 43 64 44 65 50 66 45 67 48 68 46 69
REMARK SMILES IDX 51 70 49 72 47 74
REMARK H PARENT 20 40 14 43 18 45 16 47 55 56 40 60 53 62 51 71 49 73 47 75
ROOT
ATOM      1  C   UNL     1      30.686  58.880  52.349  1.00  0.00     0.011 C 
ATOM      2  C   UNL     1      30.304  59.566  51.019  1.00  0.00    -0.035 C 
ATOM      3  C   UNL     1      29.987  61.042  51.379  1.00  0.00     0.011 C 
ATOM      4  C   UNL     1      31.475  59.542  50.029  1.00  0.00     0.007 C 
ATOM      5  C   UNL     1      31.836  58.134  49.483  1.00  0.00     0.020 C 
ATOM      6  C   UNL     1      30.667  57.068  49.397  1.00  0.00     0.075 C 
ATOM      7  C   UNL     1      30.806  56.125  48.172  1.00  0.00     0.020 C 
ATOM      8  C   UNL     1      30.724  56.854  46.825  1.00  0.00     0.013 C 
ATOM      9  C   UNL     1      29.489  57.827  46.656  1.00  0.00    -0.006 C 
ATOM     10  C   UNL     1      30.108  59.260  46.507  1.00  0.00     0.017 C 
ATOM     11  C   UNL     1      28.638  57.920  47.945  1.00  0.00    -0.063 C 
ATOM     12  C   UNL     1      27.294  58.125  47.879  1.00  0.00    -0.027 C 
ATOM     13  C   UNL     1      26.483  58.292  46.612  1.00  0.00     0.032 C 
ATOM     14  C   UNL     1      27.349  58.440  45.337  1.00  0.00     0.006 C 
ATOM     15  C   UNL     1      26.525  58.585  43.971  1.00  0.00    -0.025 C 
ATOM     16  C   UNL     1      25.554  57.398  43.694  1.00  0.00     0.012 C 
ATOM     17  C   UNL     1      25.641  59.903  44.032  1.00  0.00     0.010 C 
ATOM     18  C   UNL     1      25.908  60.934  42.908  1.00  0.00     0.033 C 
ATOM     19  C   UNL     1      25.904  60.258  41.528  1.00  0.00     0.127 C 
ATOM     20  C   UNL     1      27.091  59.218  41.406  1.00  0.00    -0.006 C 
ATOM     21  C   UNL     1      26.711  58.049  40.463  1.00  0.00     0.014 C 
ATOM     22  C   UNL     1      28.287  59.959  40.726  1.00  0.00     0.014 C 
ATOM     23  C   UNL     1      27.597  58.739  42.832  1.00  0.00     0.003 C 
ATOM     24  C   UNL     1      28.564  57.523  42.792  1.00  0.00     0.005 C 
ATOM     25  C   UNL     1      29.395  57.501  44.071  1.00  0.00     0.008 C 
ATOM     26  C   UNL     1      28.562  57.419  45.391  1.00  0.00    -0.020 C 
ATOM     27  C   UNL     1      28.062  55.944  45.562  1.00  0.00     0.012 C 
ATOM     28  C   UNL     1      29.237  57.710  49.357  1.00  0.00     0.033 C 
ATOM     29  C   UNL     1      29.051  58.966  50.288  1.00  0.00     0.015 C 
ENDROOT
BRANCH   6  30
ATOM     30  C   UNL     1      30.792  56.119  50.600  1.00  0.00     0.315 C 
ATOM     31  O   UNL     1      31.848  55.986  51.206  1.00  0.00    -0.252 OA
BRANCH  30  32
ATOM     32  O   UNL     1      29.681  55.442  51.010  1.00  0.00    -0.432 OA
BRANCH  32  33
ATOM     33  C   UNL     1      29.467  54.083  50.902  1.00  0.00     0.342 C 
ATOM     34  O   UNL     1      28.731  53.814  49.729  1.00  0.00    -0.332 OA
ATOM     35  C   UNL     1      28.683  53.590  52.149  1.00  0.00     0.214 C 
ATOM     36  C   UNL     1      28.695  52.412  49.435  1.00  0.00     0.179 C 
ATOM     37  C   UNL     1      27.947  52.239  51.857  1.00  0.00     0.180 C 
ATOM     38  C   UNL     1      28.662  51.491  50.715  1.00  0.00     0.177 C 
BRANCH  35  39
ATOM     39  O   UNL     1      29.553  53.496  53.251  1.00  0.00    -0.384 OA
ATOM     40  H   UNL     1      29.629  52.540  53.501  1.00  0.00     0.211 HD
ENDBRANCH  35  39
BRANCH  36  41
ATOM     41  C   UNL     1      27.478  52.145  48.530  1.00  0.00     0.191 C 
BRANCH  41  42
ATOM     42  O   UNL     1      26.465  53.082  48.784  1.00  0.00    -0.394 OA
ATOM     43  H   UNL     1      26.885  53.980  48.729  1.00  0.00     0.210 HD
ENDBRANCH  41  42
ENDBRANCH  36  41
BRANCH  37  44
ATOM     44  O   UNL     1      26.593  52.440  51.517  1.00  0.00    -0.387 OA
ATOM     45  H   UNL     1      26.521  52.663  50.554  1.00  0.00     0.211 HD
ENDBRANCH  37  44
BRANCH  38  46
ATOM     46  O   UNL     1      29.970  51.191  51.132  1.00  0.00    -0.387 OA
ATOM     47  H   UNL     1      30.512  51.050  50.313  1.00  0.00     0.211 HD
ENDBRANCH  38  46
ENDBRANCH  32  33
ENDBRANCH  30  32
ENDBRANCH   6  30
BRANCH  19  48
ATOM     48  O   UNL     1      24.633  59.643  41.330  1.00  0.00    -0.346 OA
BRANCH  48  49
ATOM     49  C   UNL     1      23.870  60.224  40.271  1.00  0.00     0.282 C 
ATOM     50  O   UNL     1      24.566  60.053  39.055  1.00  0.00    -0.332 OA
ATOM     51  C   UNL     1      23.665  61.740  40.558  1.00  0.00     0.202 C 
ATOM     52  C   UNL     1      23.754  60.408  37.922  1.00  0.00     0.262 C 
ATOM     53  C   UNL     1      23.504  62.557  39.237  1.00  0.00     0.180 C 
ATOM     54  C   UNL     1      22.854  61.681  38.154  1.00  0.00     0.193 C 
BRANCH  51  55
ATOM     55  O   UNL     1      22.573  61.931  41.424  1.00  0.00    -0.385 OA
ATOM     56  H   UNL     1      22.828  61.621  42.330  1.00  0.00     0.211 HD
ENDBRANCH  51  55
BRANCH  52  57
ATOM     57  C   UNL     1      24.664  60.622  36.730  1.00  0.00     0.335 C 
ATOM     58  O   UNL     1      24.931  61.747  36.345  1.00  0.00    -0.249 OA
BRANCH  57  59
ATOM     59  O   UNL     1      25.217  59.561  36.097  1.00  0.00    -0.479 OA
ATOM     60  H   UNL     1      24.996  59.340  35.182  1.00  0.00     0.296 HD
ENDBRANCH  57  59
ENDBRANCH  52  57
BRANCH  53  61
ATOM     61  O   UNL     1      24.747  63.035  38.764  1.00  0.00    -0.387 OA
ATOM     62  H   UNL     1      25.422  62.310  38.804  1.00  0.00     0.211 HD
ENDBRANCH  53  61
BRANCH  54  63
ATOM     63  O   UNL     1      21.564  61.270  38.588  1.00  0.00    -0.340 OA
BRANCH  63  64
ATOM     64  C   UNL     1      20.598  61.221  37.542  1.00  0.00     0.282 C 
ATOM     65  O   UNL     1      20.685  59.966  36.854  1.00  0.00    -0.347 OA
ATOM     66  C   UNL     1      20.770  62.488  36.642  1.00  0.00     0.202 C 
ATOM     67  C   UNL     1      21.385  60.072  35.633  1.00  0.00     0.198 C 
ATOM     68  C   UNL     1      20.020  62.224  35.328  1.00  0.00     0.179 C 
ATOM     69  C   UNL     1      20.646  60.991  34.623  1.00  0.00     0.171 C 
BRANCH  66  70
ATOM     70  O   UNL     1      20.310  63.642  37.302  1.00  0.00    -0.385 OA
ATOM     71  H   UNL     1      19.589  63.368  37.926  1.00  0.00     0.211 HD
ENDBRANCH  66  70
BRANCH  68  72
ATOM     72  O   UNL     1      19.990  63.339  34.475  1.00  0.00    -0.387 OA
ATOM     73  H   UNL     1      19.305  63.161  33.780  1.00  0.00     0.211 HD
ENDBRANCH  68  72
BRANCH  69  74
ATOM     74  O   UNL     1      19.666  60.303  33.890  1.00  0.00    -0.388 OA
ATOM     75  H   UNL     1      19.477  60.835  33.073  1.00  0.00     0.211 HD
ENDBRANCH  69  74
ENDBRANCH  63  64
ENDBRANCH  54  63
ENDBRANCH  48  49
ENDBRANCH  19  48
TORSDOF 19
ENDMDL
MODEL 3
REMARK VINA RESULT:   -12.279      2.375      3.703
REMARK INTER + INTRA:         -24.464
REMARK INTER:                 -21.903
REMARK INTRA:                  -2.562
REMARK UNBOUND:                -2.135
REMARK SMILES CC1(C)CC[C@]2(C(=O)O[C@@H]3O[C@H](CO)[C@@H](O)[C@H](O)[C@H]3O)CC[C@]3(C)C(=CC[C@@H]4[C@@]5(C)CC[C@H](O[C@@H]6O[C@H](C(=O)O)[C@@H](O[C@@H]7OC[C@@H](O)[C@H](O)[C@H]7O)[C@H](O)[C@H]6O)C(C)(C)[C@@H]5CC[C@]43C)[C@@H]2C1
REMARK SMILES IDX 1 1 2 2 3 3 4 4 5 5 6 6 21 7 22 8 23 9 24 10 25 11 26 12
REMARK SMILES IDX 27 13 28 14 29 15 30 16 31 17 32 18 33 19 56 20 57 21 58 22
REMARK SMILES IDX 59 23 60 24 61 25 62 26 63 27 64 28 65 29 7 30 8 31 9 32
REMARK SMILES IDX 10 33 11 34 19 35 12 36 17 37 15 38 20 39 13 41 14 42 18 44
REMARK SMILES IDX 16 46 34 48 35 49 36 50 54 51 37 52 52 53 41 54 55 55 38 57
REMARK SMILES IDX 39 58 40 59 53 61 42 63 43 64 44 65 50 66 45 67 48 68 46 69
REMARK SMILES IDX 51 70 49 72 47 74
REMARK H PARENT 20 40 14 43 18 45 16 47 55 56 40 60 53 62 51 71 49 73 47 75
ROOT
ATOM      1  C   UNL     1      35.946  58.541  47.060  1.00  0.00     0.011 C 
ATOM      2  C   UNL     1      34.974  58.429  45.865  1.00  0.00    -0.035 C 
ATOM      3  C   UNL     1      35.811  58.773  44.604  1.00  0.00     0.011 C 
ATOM      4  C   UNL     1      34.435  57.000  45.722  1.00  0.00     0.007 C 
ATOM      5  C   UNL     1      33.477  56.551  46.859  1.00  0.00     0.020 C 
ATOM      6  C   UNL     1      32.632  57.678  47.583  1.00  0.00     0.075 C 
ATOM      7  C   UNL     1      31.218  57.191  48.000  1.00  0.00     0.020 C 
ATOM      8  C   UNL     1      30.334  56.789  46.813  1.00  0.00     0.013 C 
ATOM      9  C   UNL     1      30.247  57.849  45.643  1.00  0.00    -0.006 C 
ATOM     10  C   UNL     1      30.889  57.145  44.398  1.00  0.00     0.017 C 
ATOM     11  C   UNL     1      31.163  59.070  45.893  1.00  0.00    -0.063 C 
ATOM     12  C   UNL     1      30.815  60.306  45.439  1.00  0.00    -0.027 C 
ATOM     13  C   UNL     1      29.563  60.645  44.661  1.00  0.00     0.032 C 
ATOM     14  C   UNL     1      28.763  59.402  44.201  1.00  0.00     0.006 C 
ATOM     15  C   UNL     1      27.412  59.722  43.403  1.00  0.00    -0.025 C 
ATOM     16  C   UNL     1      26.405  60.606  44.200  1.00  0.00     0.012 C 
ATOM     17  C   UNL     1      27.766  60.510  42.070  1.00  0.00     0.010 C 
ATOM     18  C   UNL     1      27.298  59.836  40.757  1.00  0.00     0.033 C 
ATOM     19  C   UNL     1      25.822  59.420  40.847  1.00  0.00     0.127 C 
ATOM     20  C   UNL     1      25.615  58.312  41.959  1.00  0.00    -0.006 C 
ATOM     21  C   UNL     1      24.207  58.418  42.594  1.00  0.00     0.014 C 
ATOM     22  C   UNL     1      25.670  56.923  41.244  1.00  0.00     0.014 C 
ATOM     23  C   UNL     1      26.790  58.328  43.025  1.00  0.00     0.003 C 
ATOM     24  C   UNL     1      26.520  57.464  44.288  1.00  0.00     0.005 C 
ATOM     25  C   UNL     1      27.849  57.103  44.942  1.00  0.00     0.008 C 
ATOM     26  C   UNL     1      28.724  58.327  45.367  1.00  0.00    -0.020 C 
ATOM     27  C   UNL     1      28.117  58.928  46.680  1.00  0.00     0.012 C 
ATOM     28  C   UNL     1      32.465  58.981  46.727  1.00  0.00     0.033 C 
ATOM     29  C   UNL     1      33.741  59.400  45.906  1.00  0.00     0.015 C 
ENDROOT
BRANCH   6  30
ATOM     30  C   UNL     1      33.312  58.003  48.923  1.00  0.00     0.315 C 
ATOM     31  O   UNL     1      33.928  57.154  49.553  1.00  0.00    -0.252 OA
BRANCH  30  32
ATOM     32  O   UNL     1      33.247  59.284  49.389  1.00  0.00    -0.432 OA
BRANCH  32  33
ATOM     33  C   UNL     1      32.346  59.771  50.314  1.00  0.00     0.342 C 
ATOM     34  O   UNL     1      31.837  58.705  51.083  1.00  0.00    -0.332 OA
ATOM     35  C   UNL     1      31.190  60.492  49.568  1.00  0.00     0.214 C 
ATOM     36  C   UNL     1      31.093  59.174  52.215  1.00  0.00     0.179 C 
ATOM     37  C   UNL     1      29.907  60.580  50.462  1.00  0.00     0.180 C 
ATOM     38  C   UNL     1      30.303  60.513  51.951  1.00  0.00     0.177 C 
BRANCH  35  39
ATOM     39  O   UNL     1      31.622  61.757  49.129  1.00  0.00    -0.384 OA
ATOM     40  H   UNL     1      32.599  61.818  49.282  1.00  0.00     0.211 HD
ENDBRANCH  35  39
BRANCH  36  41
ATOM     41  C   UNL     1      30.142  58.048  52.661  1.00  0.00     0.191 C 
BRANCH  41  42
ATOM     42  O   UNL     1      28.885  58.574  52.995  1.00  0.00    -0.394 OA
ATOM     43  H   UNL     1      28.982  59.562  53.010  1.00  0.00     0.210 HD
ENDBRANCH  41  42
ENDBRANCH  36  41
BRANCH  37  44
ATOM     44  O   UNL     1      28.989  59.550  50.169  1.00  0.00    -0.387 OA
ATOM     45  H   UNL     1      29.161  58.772  50.759  1.00  0.00     0.211 HD
ENDBRANCH  37  44
BRANCH  38  46
ATOM     46  O   UNL     1      31.114  61.623  52.244  1.00  0.00    -0.387 OA
ATOM     47  H   UNL     1      30.730  62.399  51.760  1.00  0.00     0.211 HD
ENDBRANCH  38  46
ENDBRANCH  32  33
ENDBRANCH  30  32
ENDBRANCH   6  30
BRANCH  19  48
ATOM     48  O   UNL     1      25.039  60.583  41.101  1.00  0.00    -0.346 OA
BRANCH  48  49
ATOM     49  C   UNL     1      24.220  60.979  39.999  1.00  0.00     0.282 C 
ATOM     50  O   UNL     1      24.518  60.161  38.888  1.00  0.00    -0.332 OA
ATOM     51  C   UNL     1      24.509  62.469  39.654  1.00  0.00     0.202 C 
ATOM     52  C   UNL     1      23.574  60.351  37.818  1.00  0.00     0.262 C 
ATOM     53  C   UNL     1      24.248  62.770  38.144  1.00  0.00     0.180 C 
ATOM     54  C   UNL     1      23.137  61.851  37.611  1.00  0.00     0.193 C 
BRANCH  51  55
ATOM     55  O   UNL     1      23.760  63.319  40.490  1.00  0.00    -0.385 OA
ATOM     56  H   UNL     1      22.798  63.116  40.370  1.00  0.00     0.211 HD
ENDBRANCH  51  55
BRANCH  52  57
ATOM     57  C   UNL     1      24.180  59.802  36.543  1.00  0.00     0.335 C 
ATOM     58  O   UNL     1      23.474  59.521  35.589  1.00  0.00    -0.249 OA
BRANCH  57  59
ATOM     59  O   UNL     1      25.520  59.646  36.439  1.00  0.00    -0.479 OA
ATOM     60  H   UNL     1      25.954  59.513  35.584  1.00  0.00     0.296 HD
ENDBRANCH  57  59
ENDBRANCH  52  57
BRANCH  53  61
ATOM     61  O   UNL     1      25.414  62.589  37.367  1.00  0.00    -0.387 OA
ATOM     62  H   UNL     1      25.714  63.461  37.005  1.00  0.00     0.211 HD
ENDBRANCH  53  61
BRANCH  54  63
ATOM     63  O   UNL     1      21.935  62.093  38.330  1.00  0.00    -0.340 OA
BRANCH  63  64
ATOM     64  C   UNL     1      20.801  62.301  37.494  1.00  0.00     0.282 C 
ATOM     65  O   UNL     1      20.245  61.039  37.100  1.00  0.00    -0.347 OA
ATOM     66  C   UNL     1      21.212  63.245  36.318  1.00  0.00     0.202 C 
ATOM     67  C   UNL     1      20.620  60.676  35.788  1.00  0.00     0.198 C 
ATOM     68  C   UNL     1      20.127  63.133  35.237  1.00  0.00     0.179 C 
ATOM     69  C   UNL     1      20.059  61.666  34.733  1.00  0.00     0.171 C 
BRANCH  66  70
ATOM     70  O   UNL     1      21.389  64.566  36.768  1.00  0.00    -0.385 OA
ATOM     71  H   UNL     1      21.161  64.591  37.734  1.00  0.00     0.211 HD
ENDBRANCH  66  70
BRANCH  68  72
ATOM     72  O   UNL     1      20.311  64.030  34.173  1.00  0.00    -0.387 OA
ATOM     73  H   UNL     1      20.093  64.938  34.510  1.00  0.00     0.211 HD
ENDBRANCH  68  72
BRANCH  69  74
ATOM     74  O   UNL     1      18.748  61.349  34.343  1.00  0.00    -0.388 OA
ATOM     75  H   UNL     1      18.682  60.359  34.296  1.00  0.00     0.211 HD
ENDBRANCH  69  74
ENDBRANCH  63  64
ENDBRANCH  54  63
ENDBRANCH  48  49
ENDBRANCH  19  48
TORSDOF 19
ENDMDL
MODEL 4
REMARK VINA RESULT:   -12.268      3.467      5.078
REMARK INTER + INTRA:         -24.444
REMARK INTER:                 -22.275
REMARK INTRA:                  -2.169
REMARK UNBOUND:                -2.135
REMARK SMILES CC1(C)CC[C@]2(C(=O)O[C@@H]3O[C@H](CO)[C@@H](O)[C@H](O)[C@H]3O)CC[C@]3(C)C(=CC[C@@H]4[C@@]5(C)CC[C@H](O[C@@H]6O[C@H](C(=O)O)[C@@H](O[C@@H]7OC[C@@H](O)[C@H](O)[C@H]7O)[C@H](O)[C@H]6O)C(C)(C)[C@@H]5CC[C@]43C)[C@@H]2C1
REMARK SMILES IDX 1 1 2 2 3 3 4 4 5 5 6 6 21 7 22 8 23 9 24 10 25 11 26 12
REMARK SMILES IDX 27 13 28 14 29 15 30 16 31 17 32 18 33 19 56 20 57 21 58 22
REMARK SMILES IDX 59 23 60 24 61 25 62 26 63 27 64 28 65 29 7 30 8 31 9 32
REMARK SMILES IDX 10 33 11 34 19 35 12 36 17 37 15 38 20 39 13 41 14 42 18 44
REMARK SMILES IDX 16 46 34 48 35 49 36 50 54 51 37 52 52 53 41 54 55 55 38 57
REMARK SMILES IDX 39 58 40 59 53 61 42 63 43 64 44 65 50 66 45 67 48 68 46 69
REMARK SMILES IDX 51 70 49 72 47 74
REMARK H PARENT 20 40 14 43 18 45 16 47 55 56 40 60 53 62 51 71 49 73 47 75
ROOT
ATOM      1  C   UNL     1      28.390  51.886  50.348  1.00  0.00     0.011 C 
ATOM      2  C   UNL     1      27.758  53.139  49.702  1.00  0.00    -0.035 C 
ATOM      3  C   UNL     1      26.312  53.219  50.260  1.00  0.00     0.011 C 
ATOM      4  C   UNL     1      28.513  54.410  50.108  1.00  0.00     0.007 C 
ATOM      5  C   UNL     1      29.946  54.530  49.522  1.00  0.00     0.020 C 
ATOM      6  C   UNL     1      30.224  53.819  48.135  1.00  0.00     0.075 C 
ATOM      7  C   UNL     1      31.223  54.609  47.247  1.00  0.00     0.020 C 
ATOM      8  C   UNL     1      30.717  55.998  46.841  1.00  0.00     0.013 C 
ATOM      9  C   UNL     1      29.260  56.036  46.227  1.00  0.00    -0.006 C 
ATOM     10  C   UNL     1      28.407  56.879  47.237  1.00  0.00     0.017 C 
ATOM     11  C   UNL     1      28.586  54.643  46.240  1.00  0.00    -0.063 C 
ATOM     12  C   UNL     1      27.702  54.288  45.267  1.00  0.00    -0.027 C 
ATOM     13  C   UNL     1      27.268  55.154  44.104  1.00  0.00     0.032 C 
ATOM     14  C   UNL     1      27.748  56.622  44.211  1.00  0.00     0.006 C 
ATOM     15  C   UNL     1      27.337  57.562  42.981  1.00  0.00    -0.025 C 
ATOM     16  C   UNL     1      27.843  57.046  41.600  1.00  0.00     0.012 C 
ATOM     17  C   UNL     1      25.753  57.643  42.893  1.00  0.00     0.010 C 
ATOM     18  C   UNL     1      25.156  59.069  42.991  1.00  0.00     0.033 C 
ATOM     19  C   UNL     1      25.872  60.033  42.032  1.00  0.00     0.127 C 
ATOM     20  C   UNL     1      27.392  60.209  42.440  1.00  0.00    -0.006 C 
ATOM     21  C   UNL     1      28.272  60.489  41.197  1.00  0.00     0.014 C 
ATOM     22  C   UNL     1      27.485  61.483  43.340  1.00  0.00     0.014 C 
ATOM     23  C   UNL     1      27.906  58.988  43.315  1.00  0.00     0.003 C 
ATOM     24  C   UNL     1      29.446  58.952  43.519  1.00  0.00     0.005 C 
ATOM     25  C   UNL     1      29.768  58.133  44.765  1.00  0.00     0.008 C 
ATOM     26  C   UNL     1      29.246  56.660  44.732  1.00  0.00    -0.020 C 
ATOM     27  C   UNL     1      30.196  55.827  43.807  1.00  0.00     0.012 C 
ATOM     28  C   UNL     1      28.926  53.561  47.294  1.00  0.00     0.033 C 
ATOM     29  C   UNL     1      27.671  53.117  48.135  1.00  0.00     0.015 C 
ENDROOT
BRANCH   6  30
ATOM     30  C   UNL     1      30.954  52.494  48.410  1.00  0.00     0.315 C 
ATOM     31  O   UNL     1      31.956  52.447  49.111  1.00  0.00    -0.252 OA
BRANCH  30  32
ATOM     32  O   UNL     1      30.438  51.348  47.881  1.00  0.00    -0.432 OA
BRANCH  32  33
ATOM     33  C   UNL     1      31.036  50.547  46.929  1.00  0.00     0.342 C 
ATOM     34  O   UNL     1      31.952  51.312  46.178  1.00  0.00    -0.332 OA
ATOM     35  C   UNL     1      29.942  49.958  45.999  1.00  0.00     0.214 C 
ATOM     36  C   UNL     1      32.779  50.485  45.349  1.00  0.00     0.179 C 
ATOM     37  C   UNL     1      30.547  49.513  44.624  1.00  0.00     0.180 C 
ATOM     38  C   UNL     1      32.048  49.205  44.789  1.00  0.00     0.177 C 
BRANCH  35  39
ATOM     39  O   UNL     1      29.275  48.906  46.653  1.00  0.00    -0.384 OA
ATOM     40  H   UNL     1      28.335  49.182  46.798  1.00  0.00     0.211 HD
ENDBRANCH  35  39
BRANCH  36  41
ATOM     41  C   UNL     1      33.327  51.355  44.202  1.00  0.00     0.191 C 
BRANCH  41  42
ATOM     42  O   UNL     1      33.332  50.633  43.000  1.00  0.00    -0.394 OA
ATOM     43  H   UNL     1      33.823  49.789  43.175  1.00  0.00     0.210 HD
ENDBRANCH  41  42
ENDBRANCH  36  41
BRANCH  37  44
ATOM     44  O   UNL     1      30.372  50.497  43.629  1.00  0.00    -0.387 OA
ATOM     45  H   UNL     1      30.873  51.316  43.878  1.00  0.00     0.211 HD
ENDBRANCH  37  44
BRANCH  38  46
ATOM     46  O   UNL     1      32.183  48.134  45.690  1.00  0.00    -0.387 OA
ATOM     47  H   UNL     1      33.088  47.751  45.552  1.00  0.00     0.211 HD
ENDBRANCH  38  46
ENDBRANCH  32  33
ENDBRANCH  30  32
ENDBRANCH   6  30
BRANCH  19  48
ATOM     48  O   UNL     1      25.730  59.537  40.703  1.00  0.00    -0.346 OA
BRANCH  48  49
ATOM     49  C   UNL     1      24.822  60.293  39.900  1.00  0.00     0.282 C 
ATOM     50  O   UNL     1      24.712  59.683  38.632  1.00  0.00    -0.332 OA
ATOM     51  C   UNL     1      25.359  61.746  39.746  1.00  0.00     0.202 C 
ATOM     52  C   UNL     1      23.644  60.257  37.856  1.00  0.00     0.262 C 
ATOM     53  C   UNL     1      24.884  62.394  38.408  1.00  0.00     0.180 C 
ATOM     54  C   UNL     1      23.516  61.820  38.003  1.00  0.00     0.193 C 
BRANCH  51  55
ATOM     55  O   UNL     1      24.991  62.524  40.860  1.00  0.00    -0.385 OA
ATOM     56  H   UNL     1      24.401  63.259  40.553  1.00  0.00     0.211 HD
ENDBRANCH  51  55
BRANCH  52  57
ATOM     57  C   UNL     1      23.857  59.883  36.403  1.00  0.00     0.335 C 
ATOM     58  O   UNL     1      22.925  59.890  35.617  1.00  0.00    -0.249 OA
BRANCH  57  59
ATOM     59  O   UNL     1      25.094  59.569  35.955  1.00  0.00    -0.479 OA
ATOM     60  H   UNL     1      25.229  59.026  35.166  1.00  0.00     0.296 HD
ENDBRANCH  57  59
ENDBRANCH  52  57
BRANCH  53  61
ATOM     61  O   UNL     1      25.809  62.172  37.363  1.00  0.00    -0.387 OA
ATOM     62  H   UNL     1      26.707  61.998  37.743  1.00  0.00     0.211 HD
ENDBRANCH  53  61
BRANCH  54  63
ATOM     63  O   UNL     1      22.559  62.120  39.011  1.00  0.00    -0.340 OA
BRANCH  63  64
ATOM     64  C   UNL     1      21.298  62.535  38.495  1.00  0.00     0.282 C 
ATOM     65  O   UNL     1      20.352  61.462  38.590  1.00  0.00    -0.347 OA
ATOM     66  C   UNL     1      21.511  63.113  37.058  1.00  0.00     0.202 C 
ATOM     67  C   UNL     1      20.167  60.802  37.355  1.00  0.00     0.198 C 
ATOM     68  C   UNL     1      20.134  63.175  36.379  1.00  0.00     0.179 C 
ATOM     69  C   UNL     1      19.546  61.742  36.287  1.00  0.00     0.171 C 
BRANCH  66  70
ATOM     70  O   UNL     1      22.144  64.368  37.106  1.00  0.00    -0.385 OA
ATOM     71  H   UNL     1      22.016  64.807  36.225  1.00  0.00     0.211 HD
ENDBRANCH  66  70
BRANCH  68  72
ATOM     72  O   UNL     1      20.166  63.796  35.120  1.00  0.00    -0.387 OA
ATOM     73  H   UNL     1      19.262  64.169  34.951  1.00  0.00     0.211 HD
ENDBRANCH  68  72
BRANCH  69  74
ATOM     74  O   UNL     1      18.144  61.788  36.363  1.00  0.00    -0.388 OA
ATOM     75  H   UNL     1      17.842  62.565  35.824  1.00  0.00     0.211 HD
ENDBRANCH  69  74
ENDBRANCH  63  64
ENDBRANCH  54  63
ENDBRANCH  48  49
ENDBRANCH  19  48
TORSDOF 19
ENDMDL
MODEL 5
REMARK VINA RESULT:   -12.206      3.952      6.045
REMARK INTER + INTRA:         -24.330
REMARK INTER:                 -21.637
REMARK INTRA:                  -2.693
REMARK UNBOUND:                -2.135
REMARK SMILES CC1(C)CC[C@]2(C(=O)O[C@@H]3O[C@H](CO)[C@@H](O)[C@H](O)[C@H]3O)CC[C@]3(C)C(=CC[C@@H]4[C@@]5(C)CC[C@H](O[C@@H]6O[C@H](C(=O)O)[C@@H](O[C@@H]7OC[C@@H](O)[C@H](O)[C@H]7O)[C@H](O)[C@H]6O)C(C)(C)[C@@H]5CC[C@]43C)[C@@H]2C1
REMARK SMILES IDX 1 1 2 2 3 3 4 4 5 5 6 6 21 7 22 8 23 9 24 10 25 11 26 12
REMARK SMILES IDX 27 13 28 14 29 15 30 16 31 17 32 18 33 19 56 20 57 21 58 22
REMARK SMILES IDX 59 23 60 24 61 25 62 26 63 27 64 28 65 29 7 30 8 31 9 32
REMARK SMILES IDX 10 33 11 34 19 35 12 36 17 37 15 38 20 39 13 41 14 42 18 44
REMARK SMILES IDX 16 46 34 48 35 49 36 50 54 51 37 52 52 53 41 54 55 55 38 57
REMARK SMILES IDX 39 58 40 59 53 61 42 63 43 64 44 65 50 66 45 67 48 68 46 69
REMARK SMILES IDX 51 70 49 72 47 74
REMARK H PARENT 20 40 14 43 18 45 16 47 55 56 40 60 53 62 51 71 49 73 47 75
ROOT
ATOM      1  C   UNL     1      33.293  50.848  45.249  1.00  0.00     0.011 C 
ATOM      2  C   UNL     1      31.950  51.438  44.766  1.00  0.00    -0.035 C 
ATOM      3  C   UNL     1      31.333  50.371  43.823  1.00  0.00     0.011 C 
ATOM      4  C   UNL     1      30.992  51.668  45.942  1.00  0.00     0.007 C 
ATOM      5  C   UNL     1      31.419  52.799  46.916  1.00  0.00     0.020 C 
ATOM      6  C   UNL     1      32.281  53.984  46.318  1.00  0.00     0.075 C 
ATOM      7  C   UNL     1      31.953  55.353  46.973  1.00  0.00     0.020 C 
ATOM      8  C   UNL     1      30.508  55.811  46.744  1.00  0.00     0.013 C 
ATOM      9  C   UNL     1      30.014  55.768  45.242  1.00  0.00    -0.006 C 
ATOM     10  C   UNL     1      28.856  54.711  45.218  1.00  0.00     0.017 C 
ATOM     11  C   UNL     1      31.082  55.174  44.294  1.00  0.00    -0.063 C 
ATOM     12  C   UNL     1      31.179  55.597  43.003  1.00  0.00    -0.027 C 
ATOM     13  C   UNL     1      30.304  56.640  42.343  1.00  0.00     0.032 C 
ATOM     14  C   UNL     1      29.089  57.065  43.204  1.00  0.00     0.006 C 
ATOM     15  C   UNL     1      28.158  58.194  42.552  1.00  0.00    -0.025 C 
ATOM     16  C   UNL     1      28.916  59.510  42.203  1.00  0.00     0.012 C 
ATOM     17  C   UNL     1      27.539  57.642  41.197  1.00  0.00     0.010 C 
ATOM     18  C   UNL     1      25.992  57.626  41.132  1.00  0.00     0.033 C 
ATOM     19  C   UNL     1      25.408  58.980  41.564  1.00  0.00     0.127 C 
ATOM     20  C   UNL     1      25.740  59.279  43.083  1.00  0.00    -0.006 C 
ATOM     21  C   UNL     1      25.874  60.801  43.334  1.00  0.00     0.014 C 
ATOM     22  C   UNL     1      24.515  58.800  43.927  1.00  0.00     0.014 C 
ATOM     23  C   UNL     1      26.996  58.445  43.581  1.00  0.00     0.003 C 
ATOM     24  C   UNL     1      27.548  58.885  44.965  1.00  0.00     0.005 C 
ATOM     25  C   UNL     1      28.334  57.733  45.581  1.00  0.00     0.008 C 
ATOM     26  C   UNL     1      29.534  57.224  44.718  1.00  0.00    -0.020 C 
ATOM     27  C   UNL     1      30.710  58.248  44.865  1.00  0.00     0.012 C 
ATOM     28  C   UNL     1      32.135  54.141  44.764  1.00  0.00     0.033 C 
ATOM     29  C   UNL     1      32.054  52.786  43.968  1.00  0.00     0.015 C 
ENDROOT
BRANCH   6  30
ATOM     30  C   UNL     1      33.753  53.746  46.694  1.00  0.00     0.315 C 
ATOM     31  O   UNL     1      34.066  53.162  47.723  1.00  0.00    -0.252 OA
BRANCH  30  32
ATOM     32  O   UNL     1      34.720  54.173  45.831  1.00  0.00    -0.432 OA
BRANCH  32  33
ATOM     33  C   UNL     1      35.479  55.318  45.958  1.00  0.00     0.342 C 
ATOM     34  O   UNL     1      34.689  56.444  45.648  1.00  0.00    -0.332 OA
ATOM     35  C   UNL     1      36.692  55.234  44.992  1.00  0.00     0.214 C 
ATOM     36  C   UNL     1      35.346  57.668  46.002  1.00  0.00     0.179 C 
ATOM     37  C   UNL     1      37.266  56.658  44.679  1.00  0.00     0.180 C 
ATOM     38  C   UNL     1      36.913  57.627  45.824  1.00  0.00     0.177 C 
BRANCH  35  39
ATOM     39  O   UNL     1      37.667  54.373  45.527  1.00  0.00    -0.384 OA
ATOM     40  H   UNL     1      37.369  53.440  45.374  1.00  0.00     0.211 HD
ENDBRANCH  35  39
BRANCH  36  41
ATOM     41  C   UNL     1      34.724  58.803  45.167  1.00  0.00     0.191 C 
BRANCH  41  42
ATOM     42  O   UNL     1      35.669  59.814  44.936  1.00  0.00    -0.394 OA
ATOM     43  H   UNL     1      36.110  59.601  44.073  1.00  0.00     0.210 HD
ENDBRANCH  41  42
ENDBRANCH  36  41
BRANCH  37  44
ATOM     44  O   UNL     1      36.773  57.167  43.459  1.00  0.00    -0.387 OA
ATOM     45  H   UNL     1      37.509  57.214  42.796  1.00  0.00     0.211 HD
ENDBRANCH  37  44
BRANCH  38  46
ATOM     46  O   UNL     1      37.524  57.162  47.002  1.00  0.00    -0.387 OA
ATOM     47  H   UNL     1      36.797  56.918  47.630  1.00  0.00     0.211 HD
ENDBRANCH  38  46
ENDBRANCH  32  33
ENDBRANCH  30  32
ENDBRANCH   6  30
BRANCH  19  48
ATOM     48  O   UNL     1      25.920  59.990  40.698  1.00  0.00    -0.346 OA
BRANCH  48  49
ATOM     49  C   UNL     1      24.925  60.602  39.875  1.00  0.00     0.282 C 
ATOM     50  O   UNL     1      24.808  59.870  38.673  1.00  0.00    -0.332 OA
ATOM     51  C   UNL     1      25.344  62.069  39.567  1.00  0.00     0.202 C 
ATOM     52  C   UNL     1      23.670  60.293  37.901  1.00  0.00     0.262 C 
ATOM     53  C   UNL     1      24.766  62.555  38.201  1.00  0.00     0.180 C 
ATOM     54  C   UNL     1      23.431  61.850  37.915  1.00  0.00     0.193 C 
BRANCH  51  55
ATOM     55  O   UNL     1      24.965  62.918  40.624  1.00  0.00    -0.385 OA
ATOM     56  H   UNL     1      25.769  63.400  40.947  1.00  0.00     0.211 HD
ENDBRANCH  51  55
BRANCH  52  57
ATOM     57  C   UNL     1      23.849  59.803  36.479  1.00  0.00     0.335 C 
ATOM     58  O   UNL     1      22.883  59.612  35.760  1.00  0.00    -0.249 OA
BRANCH  57  59
ATOM     59  O   UNL     1      25.091  59.603  35.980  1.00  0.00    -0.479 OA
ATOM     60  H   UNL     1      25.250  59.506  35.031  1.00  0.00     0.296 HD
ENDBRANCH  57  59
ENDBRANCH  52  57
BRANCH  53  61
ATOM     61  O   UNL     1      25.662  62.304  37.137  1.00  0.00    -0.387 OA
ATOM     62  H   UNL     1      25.661  61.337  36.920  1.00  0.00     0.211 HD
ENDBRANCH  53  61
BRANCH  54  63
ATOM     63  O   UNL     1      22.496  62.173  38.937  1.00  0.00    -0.340 OA
BRANCH  63  64
ATOM     64  C   UNL     1      21.221  62.568  38.441  1.00  0.00     0.282 C 
ATOM     65  O   UNL     1      20.311  61.462  38.490  1.00  0.00    -0.347 OA
ATOM     66  C   UNL     1      21.411  63.214  37.029  1.00  0.00     0.202 C 
ATOM     67  C   UNL     1      20.144  60.850  37.229  1.00  0.00     0.198 C 
ATOM     68  C   UNL     1      20.032  63.260  36.355  1.00  0.00     0.179 C 
ATOM     69  C   UNL     1      19.491  61.813  36.202  1.00  0.00     0.171 C 
BRANCH  66  70
ATOM     70  O   UNL     1      22.004  64.485  37.130  1.00  0.00    -0.385 OA
ATOM     71  H   UNL     1      22.258  64.627  38.079  1.00  0.00     0.211 HD
ENDBRANCH  66  70
BRANCH  68  72
ATOM     72  O   UNL     1      20.041  63.935  35.123  1.00  0.00    -0.387 OA
ATOM     73  H   UNL     1      19.800  63.275  34.423  1.00  0.00     0.211 HD
ENDBRANCH  68  72
BRANCH  69  74
ATOM     74  O   UNL     1      18.088  61.811  36.281  1.00  0.00    -0.388 OA
ATOM     75  H   UNL     1      17.773  62.710  36.003  1.00  0.00     0.211 HD
ENDBRANCH  69  74
ENDBRANCH  63  64
ENDBRANCH  54  63
ENDBRANCH  48  49
ENDBRANCH  19  48
TORSDOF 19
ENDMDL
MODEL 6
REMARK VINA RESULT:   -11.051      3.934      6.242
REMARK INTER + INTRA:         -22.230
REMARK INTER:                 -20.141
REMARK INTRA:                  -2.089
REMARK UNBOUND:                -2.135
REMARK SMILES CC1(C)CC[C@]2(C(=O)O[C@@H]3O[C@H](CO)[C@@H](O)[C@H](O)[C@H]3O)CC[C@]3(C)C(=CC[C@@H]4[C@@]5(C)CC[C@H](O[C@@H]6O[C@H](C(=O)O)[C@@H](O[C@@H]7OC[C@@H](O)[C@H](O)[C@H]7O)[C@H](O)[C@H]6O)C(C)(C)[C@@H]5CC[C@]43C)[C@@H]2C1
REMARK SMILES IDX 1 1 2 2 3 3 4 4 5 5 6 6 21 7 22 8 23 9 24 10 25 11 26 12
REMARK SMILES IDX 27 13 28 14 29 15 30 16 31 17 32 18 33 19 56 20 57 21 58 22
REMARK SMILES IDX 59 23 60 24 61 25 62 26 63 27 64 28 65 29 7 30 8 31 9 32
REMARK SMILES IDX 10 33 11 34 19 35 12 36 17 37 15 38 20 39 13 41 14 42 18 44
REMARK SMILES IDX 16 46 34 48 35 49 36 50 54 51 37 52 52 53 41 54 55 55 38 57
REMARK SMILES IDX 39 58 40 59 53 61 42 63 43 64 44 65 50 66 45 67 48 68 46 69
REMARK SMILES IDX 51 70 49 72 47 74
REMARK H PARENT 20 40 14 43 18 45 16 47 55 56 40 60 53 62 51 71 49 73 47 75
ROOT
ATOM      1  C   UNL     1      32.554  51.479  45.451  1.00  0.00     0.011 C 
ATOM      2  C   UNL     1      31.235  52.154  45.012  1.00  0.00    -0.035 C 
ATOM      3  C   UNL     1      30.321  51.007  44.504  1.00  0.00     0.011 C 
ATOM      4  C   UNL     1      30.547  52.844  46.196  1.00  0.00     0.007 C 
ATOM      5  C   UNL     1      31.291  54.093  46.742  1.00  0.00     0.020 C 
ATOM      6  C   UNL     1      32.180  54.912  45.719  1.00  0.00     0.075 C 
ATOM      7  C   UNL     1      32.162  56.439  45.999  1.00  0.00     0.020 C 
ATOM      8  C   UNL     1      30.773  57.073  45.853  1.00  0.00     0.013 C 
ATOM      9  C   UNL     1      30.012  56.733  44.508  1.00  0.00    -0.006 C 
ATOM     10  C   UNL     1      28.740  55.929  44.945  1.00  0.00     0.017 C 
ATOM     11  C   UNL     1      30.801  55.735  43.628  1.00  0.00    -0.063 C 
ATOM     12  C   UNL     1      30.717  55.788  42.270  1.00  0.00    -0.027 C 
ATOM     13  C   UNL     1      29.883  56.765  41.470  1.00  0.00     0.032 C 
ATOM     14  C   UNL     1      28.912  57.606  42.335  1.00  0.00     0.006 C 
ATOM     15  C   UNL     1      28.037  58.676  41.526  1.00  0.00    -0.025 C 
ATOM     16  C   UNL     1      28.887  59.702  40.718  1.00  0.00     0.012 C 
ATOM     17  C   UNL     1      27.114  57.913  40.482  1.00  0.00     0.010 C 
ATOM     18  C   UNL     1      25.593  58.157  40.640  1.00  0.00     0.033 C 
ATOM     19  C   UNL     1      25.283  59.657  40.748  1.00  0.00     0.127 C 
ATOM     20  C   UNL     1      25.923  60.273  42.059  1.00  0.00    -0.006 C 
ATOM     21  C   UNL     1      26.301  61.759  41.848  1.00  0.00     0.014 C 
ATOM     22  C   UNL     1      24.819  60.253  43.166  1.00  0.00     0.014 C 
ATOM     23  C   UNL     1      27.126  59.386  42.593  1.00  0.00     0.003 C 
ATOM     24  C   UNL     1      27.974  60.061  43.706  1.00  0.00     0.005 C 
ATOM     25  C   UNL     1      28.699  58.986  44.507  1.00  0.00     0.008 C 
ATOM     26  C   UNL     1      29.643  58.067  43.666  1.00  0.00    -0.020 C 
ATOM     27  C   UNL     1      30.952  58.869  43.353  1.00  0.00     0.012 C 
ATOM     28  C   UNL     1      31.775  54.688  44.220  1.00  0.00     0.033 C 
ATOM     29  C   UNL     1      31.371  53.211  43.859  1.00  0.00     0.015 C 
ENDROOT
BRANCH   6  30
ATOM     30  C   UNL     1      33.650  54.521  45.939  1.00  0.00     0.315 C 
ATOM     31  O   UNL     1      34.015  53.938  46.951  1.00  0.00    -0.252 OA
BRANCH  30  32
ATOM     32  O   UNL     1      34.552  54.809  44.956  1.00  0.00    -0.432 OA
BRANCH  32  33
ATOM     33  C   UNL     1      35.625  55.671  45.060  1.00  0.00     0.342 C 
ATOM     34  O   UNL     1      35.760  56.096  46.397  1.00  0.00    -0.332 OA
ATOM     35  C   UNL     1      35.388  56.892  44.131  1.00  0.00     0.214 C 
ATOM     36  C   UNL     1      36.997  56.788  46.612  1.00  0.00     0.179 C 
ATOM     37  C   UNL     1      36.246  58.123  44.585  1.00  0.00     0.180 C 
ATOM     38  C   UNL     1      37.478  57.638  45.374  1.00  0.00     0.177 C 
BRANCH  35  39
ATOM     39  O   UNL     1      35.641  56.531  42.795  1.00  0.00    -0.384 OA
ATOM     40  H   UNL     1      35.977  55.598  42.788  1.00  0.00     0.211 HD
ENDBRANCH  35  39
BRANCH  36  41
ATOM     41  C   UNL     1      36.839  57.672  47.863  1.00  0.00     0.191 C 
BRANCH  41  42
ATOM     42  O   UNL     1      38.011  58.408  48.093  1.00  0.00    -0.394 OA
ATOM     43  H   UNL     1      38.772  57.812  47.871  1.00  0.00     0.210 HD
ENDBRANCH  41  42
ENDBRANCH  36  41
BRANCH  37  44
ATOM     44  O   UNL     1      35.499  59.020  45.377  1.00  0.00    -0.387 OA
ATOM     45  H   UNL     1      36.026  59.846  45.532  1.00  0.00     0.211 HD
ENDBRANCH  37  44
BRANCH  38  46
ATOM     46  O   UNL     1      38.269  56.850  44.520  1.00  0.00    -0.387 OA
ATOM     47  H   UNL     1      38.167  55.909  44.816  1.00  0.00     0.211 HD
ENDBRANCH  38  46
ENDBRANCH  32  33
ENDBRANCH  30  32
ENDBRANCH   6  30
BRANCH  19  48
ATOM     48  O   UNL     1      25.758  60.303  39.569  1.00  0.00    -0.346 OA
BRANCH  48  49
ATOM     49  C   UNL     1      24.720  60.846  38.751  1.00  0.00     0.282 C 
ATOM     50  O   UNL     1      23.638  61.226  39.574  1.00  0.00    -0.332 OA
ATOM     51  C   UNL     1      24.257  59.769  37.727  1.00  0.00     0.202 C 
ATOM     52  C   UNL     1      22.657  61.987  38.845  1.00  0.00     0.262 C 
ATOM     53  C   UNL     1      22.765  59.972  37.316  1.00  0.00     0.180 C 
ATOM     54  C   UNL     1      22.402  61.465  37.381  1.00  0.00     0.193 C 
BRANCH  51  55
ATOM     55  O   UNL     1      25.109  59.760  36.607  1.00  0.00    -0.385 OA
ATOM     56  H   UNL     1      25.263  58.821  36.333  1.00  0.00     0.211 HD
ENDBRANCH  51  55
BRANCH  52  57
ATOM     57  C   UNL     1      21.364  61.981  39.636  1.00  0.00     0.335 C 
ATOM     58  O   UNL     1      21.075  61.034  40.347  1.00  0.00    -0.249 OA
BRANCH  57  59
ATOM     59  O   UNL     1      20.530  63.045  39.584  1.00  0.00    -0.479 OA
ATOM     60  H   UNL     1      20.656  63.762  38.947  1.00  0.00     0.296 HD
ENDBRANCH  57  59
ENDBRANCH  52  57
BRANCH  53  61
ATOM     61  O   UNL     1      21.889  59.244  38.151  1.00  0.00    -0.387 OA
ATOM     62  H   UNL     1      20.960  59.331  37.820  1.00  0.00     0.211 HD
ENDBRANCH  53  61
BRANCH  54  63
ATOM     63  O   UNL     1      23.220  62.192  36.474  1.00  0.00    -0.340 OA
BRANCH  63  64
ATOM     64  C   UNL     1      22.483  62.920  35.497  1.00  0.00     0.282 C 
ATOM     65  O   UNL     1      21.677  63.919  36.134  1.00  0.00    -0.347 OA
ATOM     66  C   UNL     1      21.702  61.904  34.600  1.00  0.00     0.202 C 
ATOM     67  C   UNL     1      20.326  63.523  36.249  1.00  0.00     0.198 C 
ATOM     68  C   UNL     1      20.627  62.694  33.839  1.00  0.00     0.179 C 
ATOM     69  C   UNL     1      19.657  63.347  34.859  1.00  0.00     0.171 C 
BRANCH  66  70
ATOM     70  O   UNL     1      22.575  61.215  33.739  1.00  0.00    -0.385 OA
ATOM     71  H   UNL     1      22.884  61.853  33.044  1.00  0.00     0.211 HD
ENDBRANCH  66  70
BRANCH  68  72
ATOM     72  O   UNL     1      19.932  61.917  32.899  1.00  0.00    -0.387 OA
ATOM     73  H   UNL     1      19.261  61.381  33.396  1.00  0.00     0.211 HD
ENDBRANCH  68  72
BRANCH  69  74
ATOM     74  O   UNL     1      19.159  64.557  34.346  1.00  0.00    -0.388 OA
ATOM     75  H   UNL     1      19.455  64.624  33.401  1.00  0.00     0.211 HD
ENDBRANCH  69  74
ENDBRANCH  63  64
ENDBRANCH  54  63
ENDBRANCH  48  49
ENDBRANCH  19  48
TORSDOF 19
ENDMDL
MODEL 7
REMARK VINA RESULT:   -10.959      3.137      5.330
REMARK INTER + INTRA:         -22.063
REMARK INTER:                 -20.064
REMARK INTRA:                  -1.999
REMARK UNBOUND:                -2.135
REMARK SMILES CC1(C)CC[C@]2(C(=O)O[C@@H]3O[C@H](CO)[C@@H](O)[C@H](O)[C@H]3O)CC[C@]3(C)C(=CC[C@@H]4[C@@]5(C)CC[C@H](O[C@@H]6O[C@H](C(=O)O)[C@@H](O[C@@H]7OC[C@@H](O)[C@H](O)[C@H]7O)[C@H](O)[C@H]6O)C(C)(C)[C@@H]5CC[C@]43C)[C@@H]2C1
REMARK SMILES IDX 1 1 2 2 3 3 4 4 5 5 6 6 21 7 22 8 23 9 24 10 25 11 26 12
REMARK SMILES IDX 27 13 28 14 29 15 30 16 31 17 32 18 33 19 56 20 57 21 58 22
REMARK SMILES IDX 59 23 60 24 61 25 62 26 63 27 64 28 65 29 7 30 8 31 9 32
REMARK SMILES IDX 10 33 11 34 19 35 12 36 17 37 15 38 20 39 13 41 14 42 18 44
REMARK SMILES IDX 16 46 34 48 35 49 36 50 54 51 37 52 52 53 41 54 55 55 38 57
REMARK SMILES IDX 39 58 40 59 53 61 42 63 43 64 44 65 50 66 45 67 48 68 46 69
REMARK SMILES IDX 51 70 49 72 47 74
REMARK H PARENT 20 40 14 43 18 45 16 47 55 56 40 60 53 62 51 71 49 73 47 75
ROOT
ATOM      1  C   UNL     1      37.009  56.935  47.593  1.00  0.00     0.011 C 
ATOM      2  C   UNL     1      35.884  56.763  46.549  1.00  0.00    -0.035 C 
ATOM      3  C   UNL     1      36.583  56.289  45.247  1.00  0.00     0.011 C 
ATOM      4  C   UNL     1      34.881  55.690  46.987  1.00  0.00     0.007 C 
ATOM      5  C   UNL     1      34.015  56.074  48.218  1.00  0.00     0.020 C 
ATOM      6  C   UNL     1      33.721  57.613  48.446  1.00  0.00     0.075 C 
ATOM      7  C   UNL     1      32.308  57.872  49.034  1.00  0.00     0.020 C 
ATOM      8  C   UNL     1      31.168  57.423  48.111  1.00  0.00     0.013 C 
ATOM      9  C   UNL     1      31.264  57.935  46.618  1.00  0.00    -0.006 C 
ATOM     10  C   UNL     1      31.431  56.643  45.747  1.00  0.00     0.017 C 
ATOM     11  C   UNL     1      32.564  58.732  46.358  1.00  0.00    -0.063 C 
ATOM     12  C   UNL     1      32.587  59.752  45.456  1.00  0.00    -0.027 C 
ATOM     13  C   UNL     1      31.417  60.223  44.619  1.00  0.00     0.032 C 
ATOM     14  C   UNL     1      30.185  59.288  44.695  1.00  0.00     0.006 C 
ATOM     15  C   UNL     1      28.914  59.771  43.848  1.00  0.00    -0.025 C 
ATOM     16  C   UNL     1      28.400  61.189  44.240  1.00  0.00     0.012 C 
ATOM     17  C   UNL     1      29.303  59.829  42.309  1.00  0.00     0.010 C 
ATOM     18  C   UNL     1      28.439  58.948  41.373  1.00  0.00     0.033 C 
ATOM     19  C   UNL     1      26.941  59.171  41.634  1.00  0.00     0.127 C 
ATOM     20  C   UNL     1      26.548  58.705  43.095  1.00  0.00    -0.006 C 
ATOM     21  C   UNL     1      25.373  59.548  43.650  1.00  0.00     0.014 C 
ATOM     22  C   UNL     1      26.022  57.237  42.987  1.00  0.00     0.014 C 
ATOM     23  C   UNL     1      27.810  58.672  44.057  1.00  0.00     0.003 C 
ATOM     24  C   UNL     1      27.463  58.493  45.561  1.00  0.00     0.005 C 
ATOM     25  C   UNL     1      28.677  57.930  46.292  1.00  0.00     0.008 C 
ATOM     26  C   UNL     1      29.967  58.808  46.191  1.00  0.00    -0.020 C 
ATOM     27  C   UNL     1      29.808  60.024  47.166  1.00  0.00     0.012 C 
ATOM     28  C   UNL     1      33.872  58.478  47.146  1.00  0.00     0.033 C 
ATOM     29  C   UNL     1      35.072  58.065  46.214  1.00  0.00     0.015 C 
ENDROOT
BRANCH   6  30
ATOM     30  C   UNL     1      34.669  58.127  49.542  1.00  0.00     0.315 C 
ATOM     31  O   UNL     1      35.070  57.397  50.438  1.00  0.00    -0.252 OA
BRANCH  30  32
ATOM     32  O   UNL     1      35.090  59.423  49.479  1.00  0.00    -0.432 OA
BRANCH  32  33
ATOM     33  C   UNL     1      34.537  60.495  50.150  1.00  0.00     0.342 C 
ATOM     34  O   UNL     1      33.604  60.026  51.098  1.00  0.00    -0.332 OA
ATOM     35  C   UNL     1      33.838  61.430  49.128  1.00  0.00     0.214 C 
ATOM     36  C   UNL     1      33.186  61.067  51.991  1.00  0.00     0.179 C 
ATOM     37  C   UNL     1      32.761  62.328  49.826  1.00  0.00     0.180 C 
ATOM     38  C   UNL     1      33.106  62.492  51.319  1.00  0.00     0.177 C 
BRANCH  35  39
ATOM     39  O   UNL     1      34.801  62.191  48.441  1.00  0.00    -0.384 OA
ATOM     40  H   UNL     1      34.797  63.106  48.821  1.00  0.00     0.211 HD
ENDBRANCH  35  39
BRANCH  36  41
ATOM     41  C   UNL     1      31.827  60.662  52.593  1.00  0.00     0.191 C 
BRANCH  41  42
ATOM     42  O   UNL     1      30.945  61.753  52.585  1.00  0.00    -0.394 OA
ATOM     43  H   UNL     1      30.071  61.416  52.913  1.00  0.00     0.210 HD
ENDBRANCH  41  42
ENDBRANCH  36  41
BRANCH  37  44
ATOM     44  O   UNL     1      31.463  61.791  49.697  1.00  0.00    -0.387 OA
ATOM     45  H   UNL     1      31.519  60.807  49.584  1.00  0.00     0.211 HD
ENDBRANCH  37  44
BRANCH  38  46
ATOM     46  O   UNL     1      34.347  63.146  51.417  1.00  0.00    -0.387 OA
ATOM     47  H   UNL     1      34.187  64.104  51.215  1.00  0.00     0.211 HD
ENDBRANCH  38  46
ENDBRANCH  32  33
ENDBRANCH  30  32
ENDBRANCH   6  30
BRANCH  19  48
ATOM     48  O   UNL     1      26.644  60.548  41.415  1.00  0.00    -0.346 OA
BRANCH  48  49
ATOM     49  C   UNL     1      25.773  60.780  40.308  1.00  0.00     0.282 C 
ATOM     50  O   UNL     1      24.670  61.548  40.743  1.00  0.00    -0.332 OA
ATOM     51  C   UNL     1      25.281  59.415  39.745  1.00  0.00     0.202 C 
ATOM     52  C   UNL     1      23.874  62.011  39.637  1.00  0.00     0.262 C 
ATOM     53  C   UNL     1      23.877  59.543  39.075  1.00  0.00     0.180 C 
ATOM     54  C   UNL     1      23.704  60.952  38.484  1.00  0.00     0.193 C 
BRANCH  51  55
ATOM     55  O   UNL     1      26.234  58.880  38.858  1.00  0.00    -0.385 OA
ATOM     56  H   UNL     1      27.069  58.699  39.360  1.00  0.00     0.211 HD
ENDBRANCH  51  55
BRANCH  52  57
ATOM     57  C   UNL     1      22.519  62.430  40.168  1.00  0.00     0.335 C 
ATOM     58  O   UNL     1      21.696  62.949  39.433  1.00  0.00    -0.249 OA
BRANCH  57  59
ATOM     59  O   UNL     1      22.194  62.203  41.462  1.00  0.00    -0.479 OA
ATOM     60  H   UNL     1      22.453  61.390  41.918  1.00  0.00     0.296 HD
ENDBRANCH  57  59
ENDBRANCH  52  57
BRANCH  53  61
ATOM     61  O   UNL     1      22.835  59.293  39.996  1.00  0.00    -0.387 OA
ATOM     62  H   UNL     1      21.989  59.126  39.507  1.00  0.00     0.211 HD
ENDBRANCH  53  61
BRANCH  54  63
ATOM     63  O   UNL     1      24.696  61.175  37.491  1.00  0.00    -0.340 OA
BRANCH  63  64
ATOM     64  C   UNL     1      24.167  61.602  36.240  1.00  0.00     0.282 C 
ATOM     65  O   UNL     1      23.933  63.016  36.264  1.00  0.00    -0.347 OA
ATOM     66  C   UNL     1      22.917  60.725  35.899  1.00  0.00     0.202 C 
ATOM     67  C   UNL     1      22.572  63.330  36.471  1.00  0.00     0.198 C 
ATOM     68  C   UNL     1      22.141  61.443  34.786  1.00  0.00     0.179 C 
ATOM     69  C   UNL     1      21.681  62.833  35.300  1.00  0.00     0.171 C 
BRANCH  66  70
ATOM     70  O   UNL     1      23.300  59.421  35.535  1.00  0.00    -0.385 OA
ATOM     71  H   UNL     1      23.067  59.292  34.578  1.00  0.00     0.211 HD
ENDBRANCH  66  70
BRANCH  68  72
ATOM     72  O   UNL     1      21.058  60.695  34.297  1.00  0.00    -0.387 OA
ATOM     73  H   UNL     1      21.126  59.786  34.688  1.00  0.00     0.211 HD
ENDBRANCH  68  72
BRANCH  69  74
ATOM     74  O   UNL     1      21.632  63.750  34.237  1.00  0.00    -0.388 OA
ATOM     75  H   UNL     1      20.769  64.236  34.303  1.00  0.00     0.211 HD
ENDBRANCH  69  74
ENDBRANCH  63  64
ENDBRANCH  54  63
ENDBRANCH  48  49
ENDBRANCH  19  48
TORSDOF 19
ENDMDL
MODEL 8
REMARK VINA RESULT:   -10.928      3.466      5.253
REMARK INTER + INTRA:         -22.007
REMARK INTER:                 -19.869
REMARK INTRA:                  -2.138
REMARK UNBOUND:                -2.135
REMARK SMILES CC1(C)CC[C@]2(C(=O)O[C@@H]3O[C@H](CO)[C@@H](O)[C@H](O)[C@H]3O)CC[C@]3(C)C(=CC[C@@H]4[C@@]5(C)CC[C@H](O[C@@H]6O[C@H](C(=O)O)[C@@H](O[C@@H]7OC[C@@H](O)[C@H](O)[C@H]7O)[C@H](O)[C@H]6O)C(C)(C)[C@@H]5CC[C@]43C)[C@@H]2C1
REMARK SMILES IDX 1 1 2 2 3 3 4 4 5 5 6 6 21 7 22 8 23 9 24 10 25 11 26 12
REMARK SMILES IDX 27 13 28 14 29 15 30 16 31 17 32 18 33 19 56 20 57 21 58 22
REMARK SMILES IDX 59 23 60 24 61 25 62 26 63 27 64 28 65 29 7 30 8 31 9 32
REMARK SMILES IDX 10 33 11 34 19 35 12 36 17 37 15 38 20 39 13 41 14 42 18 44
REMARK SMILES IDX 16 46 34 48 35 49 36 50 54 51 37 52 52 53 41 54 55 55 38 57
REMARK SMILES IDX 39 58 40 59 53 61 42 63 43 64 44 65 50 66 45 67 48 68 46 69
REMARK SMILES IDX 51 70 49 72 47 74
REMARK H PARENT 20 40 14 43 18 45 16 47 55 56 40 60 53 62 51 71 49 73 47 75
ROOT
ATOM      1  C   UNL     1      28.402  52.718  49.816  1.00  0.00     0.011 C 
ATOM      2  C   UNL     1      27.667  53.873  49.101  1.00  0.00    -0.035 C 
ATOM      3  C   UNL     1      26.227  53.882  49.680  1.00  0.00     0.011 C 
ATOM      4  C   UNL     1      28.329  55.223  49.406  1.00  0.00     0.007 C 
ATOM      5  C   UNL     1      29.740  55.410  48.786  1.00  0.00     0.020 C 
ATOM      6  C   UNL     1      30.051  54.629  47.444  1.00  0.00     0.075 C 
ATOM      7  C   UNL     1      30.975  55.430  46.486  1.00  0.00     0.020 C 
ATOM      8  C   UNL     1      30.358  56.746  45.999  1.00  0.00     0.013 C 
ATOM      9  C   UNL     1      28.894  56.633  45.412  1.00  0.00    -0.006 C 
ATOM     10  C   UNL     1      27.994  57.476  46.380  1.00  0.00     0.017 C 
ATOM     11  C   UNL     1      28.328  55.198  45.531  1.00  0.00    -0.063 C 
ATOM     12  C   UNL     1      27.460  54.712  44.601  1.00  0.00    -0.027 C 
ATOM     13  C   UNL     1      26.945  55.462  43.392  1.00  0.00     0.032 C 
ATOM     14  C   UNL     1      27.313  56.967  43.391  1.00  0.00     0.006 C 
ATOM     15  C   UNL     1      26.814  57.786  42.110  1.00  0.00    -0.025 C 
ATOM     16  C   UNL     1      27.338  57.218  40.756  1.00  0.00     0.012 C 
ATOM     17  C   UNL     1      25.227  57.743  42.048  1.00  0.00     0.010 C 
ATOM     18  C   UNL     1      24.525  59.123  42.062  1.00  0.00     0.033 C 
ATOM     19  C   UNL     1      25.152  60.071  41.027  1.00  0.00     0.127 C 
ATOM     20  C   UNL     1      26.659  60.388  41.393  1.00  0.00    -0.006 C 
ATOM     21  C   UNL     1      27.498  60.648  40.117  1.00  0.00     0.014 C 
ATOM     22  C   UNL     1      26.668  61.723  42.205  1.00  0.00     0.014 C 
ATOM     23  C   UNL     1      27.278  59.271  42.337  1.00  0.00     0.003 C 
ATOM     24  C   UNL     1      28.819  59.365  42.514  1.00  0.00     0.005 C 
ATOM     25  C   UNL     1      29.220  58.659  43.804  1.00  0.00     0.008 C 
ATOM     26  C   UNL     1      28.812  57.151  43.880  1.00  0.00    -0.020 C 
ATOM     27  C   UNL     1      29.809  56.331  42.993  1.00  0.00     0.012 C 
ATOM     28  C   UNL     1      28.764  54.218  46.647  1.00  0.00     0.033 C 
ATOM     29  C   UNL     1      27.560  53.739  47.540  1.00  0.00     0.015 C 
ENDROOT
BRANCH   6  30
ATOM     30  C   UNL     1      30.883  53.385  47.793  1.00  0.00     0.315 C 
ATOM     31  O   UNL     1      31.850  53.448  48.541  1.00  0.00    -0.252 OA
BRANCH  30  32
ATOM     32  O   UNL     1      30.501  52.182  47.274  1.00  0.00    -0.432 OA
BRANCH  32  33
ATOM     33  C   UNL     1      31.299  51.310  46.561  1.00  0.00     0.342 C 
ATOM     34  O   UNL     1      32.318  52.031  45.907  1.00  0.00    -0.332 OA
ATOM     35  C   UNL     1      30.426  50.555  45.523  1.00  0.00     0.214 C 
ATOM     36  C   UNL     1      33.317  51.161  45.360  1.00  0.00     0.179 C 
ATOM     37  C   UNL     1      31.301  49.985  44.355  1.00  0.00     0.180 C 
ATOM     38  C   UNL     1      32.750  49.784  44.839  1.00  0.00     0.177 C 
BRANCH  35  39
ATOM     39  O   UNL     1      29.680  49.551  46.167  1.00  0.00    -0.384 OA
ATOM     40  H   UNL     1      30.268  49.111  46.833  1.00  0.00     0.211 HD
ENDBRANCH  35  39
BRANCH  36  41
ATOM     41  C   UNL     1      34.048  51.919  44.236  1.00  0.00     0.191 C 
BRANCH  41  42
ATOM     42  O   UNL     1      34.170  51.108  43.098  1.00  0.00    -0.394 OA
ATOM     43  H   UNL     1      35.084  50.722  43.118  1.00  0.00     0.210 HD
ENDBRANCH  41  42
ENDBRANCH  36  41
BRANCH  37  44
ATOM     44  O   UNL     1      31.291  50.834  43.228  1.00  0.00    -0.387 OA
ATOM     45  H   UNL     1      31.985  50.541  42.584  1.00  0.00     0.211 HD
ENDBRANCH  37  44
BRANCH  38  46
ATOM     46  O   UNL     1      32.743  48.836  45.877  1.00  0.00    -0.387 OA
ATOM     47  H   UNL     1      33.173  49.263  46.663  1.00  0.00     0.211 HD
ENDBRANCH  38  46
ENDBRANCH  32  33
ENDBRANCH  30  32
ENDBRANCH   6  30
BRANCH  19  48
ATOM     48  O   UNL     1      25.029  59.477  39.737  1.00  0.00    -0.346 OA
BRANCH  48  49
ATOM     49  C   UNL     1      24.168  60.195  38.852  1.00  0.00     0.282 C 
ATOM     50  O   UNL     1      22.857  60.184  39.377  1.00  0.00    -0.332 OA
ATOM     51  C   UNL     1      24.186  59.515  37.452  1.00  0.00     0.202 C 
ATOM     52  C   UNL     1      21.988  61.078  38.658  1.00  0.00     0.262 C 
ATOM     53  C   UNL     1      22.845  59.741  36.686  1.00  0.00     0.180 C 
ATOM     54  C   UNL     1      22.225  61.085  37.100  1.00  0.00     0.193 C 
BRANCH  51  55
ATOM     55  O   UNL     1      25.293  59.961  36.706  1.00  0.00    -0.385 OA
ATOM     56  H   UNL     1      25.116  60.886  36.398  1.00  0.00     0.211 HD
ENDBRANCH  51  55
BRANCH  52  57
ATOM     57  C   UNL     1      20.554  60.702  38.968  1.00  0.00     0.335 C 
ATOM     58  O   UNL     1      20.259  60.203  40.040  1.00  0.00    -0.249 OA
BRANCH  57  59
ATOM     59  O   UNL     1      19.576  60.946  38.065  1.00  0.00    -0.479 OA
ATOM     60  H   UNL     1      18.764  61.414  38.306  1.00  0.00     0.296 HD
ENDBRANCH  57  59
ENDBRANCH  52  57
BRANCH  53  61
ATOM     61  O   UNL     1      21.919  58.704  36.939  1.00  0.00    -0.387 OA
ATOM     62  H   UNL     1      21.867  58.532  37.913  1.00  0.00     0.211 HD
ENDBRANCH  53  61
BRANCH  54  63
ATOM     63  O   UNL     1      23.116  62.142  36.766  1.00  0.00    -0.340 OA
BRANCH  63  64
ATOM     64  C   UNL     1      22.550  63.110  35.888  1.00  0.00     0.282 C 
ATOM     65  O   UNL     1      21.829  64.093  36.642  1.00  0.00    -0.347 OA
ATOM     66  C   UNL     1      21.717  62.366  34.792  1.00  0.00     0.202 C 
ATOM     67  C   UNL     1      20.435  63.870  36.616  1.00  0.00     0.198 C 
ATOM     68  C   UNL     1      20.809  63.407  34.121  1.00  0.00     0.179 C 
ATOM     69  C   UNL     1      19.855  64.013  35.183  1.00  0.00     0.171 C 
BRANCH  66  70
ATOM     70  O   UNL     1      22.559  61.713  33.874  1.00  0.00    -0.385 OA
ATOM     71  H   UNL     1      23.431  62.189  33.869  1.00  0.00     0.211 HD
ENDBRANCH  66  70
BRANCH  68  72
ATOM     72  O   UNL     1      20.095  62.892  33.026  1.00  0.00    -0.387 OA
ATOM     73  H   UNL     1      20.682  62.964  32.229  1.00  0.00     0.211 HD
ENDBRANCH  68  72
BRANCH  69  74
ATOM     74  O   UNL     1      19.551  65.345  34.857  1.00  0.00    -0.388 OA
ATOM     75  H   UNL     1      19.606  65.430  33.870  1.00  0.00     0.211 HD
ENDBRANCH  69  74
ENDBRANCH  63  64
ENDBRANCH  54  63
ENDBRANCH  48  49
ENDBRANCH  19  48
TORSDOF 19
ENDMDL
MODEL 9
REMARK VINA RESULT:   -10.135      3.708      5.532
REMARK INTER + INTRA:         -20.565
REMARK INTER:                 -18.446
REMARK INTRA:                  -2.119
REMARK UNBOUND:                -2.135
REMARK SMILES CC1(C)CC[C@]2(C(=O)O[C@@H]3O[C@H](CO)[C@@H](O)[C@H](O)[C@H]3O)CC[C@]3(C)C(=CC[C@@H]4[C@@]5(C)CC[C@H](O[C@@H]6O[C@H](C(=O)O)[C@@H](O[C@@H]7OC[C@@H](O)[C@H](O)[C@H]7O)[C@H](O)[C@H]6O)C(C)(C)[C@@H]5CC[C@]43C)[C@@H]2C1
REMARK SMILES IDX 1 1 2 2 3 3 4 4 5 5 6 6 21 7 22 8 23 9 24 10 25 11 26 12
REMARK SMILES IDX 27 13 28 14 29 15 30 16 31 17 32 18 33 19 56 20 57 21 58 22
REMARK SMILES IDX 59 23 60 24 61 25 62 26 63 27 64 28 65 29 7 30 8 31 9 32
REMARK SMILES IDX 10 33 11 34 19 35 12 36 17 37 15 38 20 39 13 41 14 42 18 44
REMARK SMILES IDX 16 46 34 48 35 49 36 50 54 51 37 52 52 53 41 54 55 55 38 57
REMARK SMILES IDX 39 58 40 59 53 61 42 63 43 64 44 65 50 66 45 67 48 68 46 69
REMARK SMILES IDX 51 70 49 72 47 74
REMARK H PARENT 20 40 14 43 18 45 16 47 55 56 40 60 53 62 51 71 49 73 47 75
ROOT
ATOM      1  C   UNL     1      32.657  51.375  45.445  1.00  0.00     0.011 C 
ATOM      2  C   UNL     1      31.354  52.105  45.052  1.00  0.00    -0.035 C 
ATOM      3  C   UNL     1      30.370  50.997  44.591  1.00  0.00     0.011 C 
ATOM      4  C   UNL     1      30.745  52.835  46.255  1.00  0.00     0.007 C 
ATOM      5  C   UNL     1      31.565  54.054  46.759  1.00  0.00     0.020 C 
ATOM      6  C   UNL     1      32.448  54.824  45.694  1.00  0.00     0.075 C 
ATOM      7  C   UNL     1      32.509  56.352  45.960  1.00  0.00     0.020 C 
ATOM      8  C   UNL     1      31.146  57.047  45.862  1.00  0.00     0.013 C 
ATOM      9  C   UNL     1      30.317  56.731  44.552  1.00  0.00    -0.006 C 
ATOM     10  C   UNL     1      29.029  55.988  45.046  1.00  0.00     0.017 C 
ATOM     11  C   UNL     1      31.025  55.692  43.651  1.00  0.00    -0.063 C 
ATOM     12  C   UNL     1      30.889  55.737  42.297  1.00  0.00    -0.027 C 
ATOM     13  C   UNL     1      30.069  56.744  41.521  1.00  0.00     0.032 C 
ATOM     14  C   UNL     1      29.172  57.635  42.415  1.00  0.00     0.006 C 
ATOM     15  C   UNL     1      28.314  58.737  41.632  1.00  0.00    -0.025 C 
ATOM     16  C   UNL     1      29.176  59.717  40.781  1.00  0.00     0.012 C 
ATOM     17  C   UNL     1      27.317  58.008  40.632  1.00  0.00     0.010 C 
ATOM     18  C   UNL     1      25.816  58.321  40.847  1.00  0.00     0.033 C 
ATOM     19  C   UNL     1      25.578  59.835  40.953  1.00  0.00     0.127 C 
ATOM     20  C   UNL     1      26.296  60.431  42.232  1.00  0.00    -0.006 C 
ATOM     21  C   UNL     1      26.732  61.898  41.992  1.00  0.00     0.014 C 
ATOM     22  C   UNL     1      25.238  60.470  43.381  1.00  0.00     0.014 C 
ATOM     23  C   UNL     1      27.479  59.495  42.726  1.00  0.00     0.003 C 
ATOM     24  C   UNL     1      28.400  60.141  43.798  1.00  0.00     0.005 C 
ATOM     25  C   UNL     1      29.107  59.040  44.581  1.00  0.00     0.008 C 
ATOM     26  C   UNL     1      29.975  58.073  43.712  1.00  0.00    -0.020 C 
ATOM     27  C   UNL     1      31.305  58.813  43.340  1.00  0.00     0.012 C 
ATOM     28  C   UNL     1      31.975  54.606  44.215  1.00  0.00     0.033 C 
ATOM     29  C   UNL     1      31.491  53.146  43.884  1.00  0.00     0.015 C 
ENDROOT
BRANCH   6  30
ATOM     30  C   UNL     1      33.907  54.369  45.859  1.00  0.00     0.315 C 
ATOM     31  O   UNL     1      34.657  54.256  44.899  1.00  0.00    -0.252 OA
BRANCH  30  32
ATOM     32  O   UNL     1      34.371  54.122  47.119  1.00  0.00    -0.432 OA
BRANCH  32  33
ATOM     33  C   UNL     1      35.096  53.018  47.520  1.00  0.00     0.342 C 
ATOM     34  O   UNL     1      34.555  52.510  48.719  1.00  0.00    -0.332 OA
ATOM     35  C   UNL     1      36.576  53.433  47.735  1.00  0.00     0.214 C 
ATOM     36  C   UNL     1      35.104  51.228  49.048  1.00  0.00     0.179 C 
ATOM     37  C   UNL     1      37.315  52.425  48.681  1.00  0.00     0.180 C 
ATOM     38  C   UNL     1      36.615  51.053  48.630  1.00  0.00     0.177 C 
BRANCH  35  39
ATOM     39  O   UNL     1      37.220  53.564  46.490  1.00  0.00    -0.384 OA
ATOM     40  H   UNL     1      38.004  54.157  46.612  1.00  0.00     0.211 HD
ENDBRANCH  35  39
BRANCH  36  41
ATOM     41  C   UNL     1      34.918  51.002  50.560  1.00  0.00     0.191 C 
BRANCH  41  42
ATOM     42  O   UNL     1      35.570  49.827  50.963  1.00  0.00    -0.394 OA
ATOM     43  H   UNL     1      35.441  49.164  50.235  1.00  0.00     0.210 HD
ENDBRANCH  41  42
ENDBRANCH  36  41
BRANCH  37  44
ATOM     44  O   UNL     1      37.355  52.887  50.012  1.00  0.00    -0.387 OA
ATOM     45  H   UNL     1      37.941  52.298  50.553  1.00  0.00     0.211 HD
ENDBRANCH  37  44
BRANCH  38  46
ATOM     46  O   UNL     1      36.703  50.559  47.317  1.00  0.00    -0.387 OA
ATOM     47  H   UNL     1      35.776  50.371  47.014  1.00  0.00     0.211 HD
ENDBRANCH  38  46
ENDBRANCH  32  33
ENDBRANCH  30  32
ENDBRANCH   6  30
BRANCH  19  48
ATOM     48  O   UNL     1      26.034  60.450  39.750  1.00  0.00    -0.346 OA
BRANCH  48  49
ATOM     49  C   UNL     1      24.987  61.018  38.961  1.00  0.00     0.282 C 
ATOM     50  O   UNL     1      24.019  61.583  39.819  1.00  0.00    -0.332 OA
ATOM     51  C   UNL     1      24.339  59.905  38.088  1.00  0.00     0.202 C 
ATOM     52  C   UNL     1      23.058  62.370  39.092  1.00  0.00     0.262 C 
ATOM     53  C   UNL     1      22.844  60.222  37.770  1.00  0.00     0.180 C 
ATOM     54  C   UNL     1      22.632  61.744  37.711  1.00  0.00     0.193 C 
BRANCH  51  55
ATOM     55  O   UNL     1      25.090  59.704  36.914  1.00  0.00    -0.385 OA
ATOM     56  H   UNL     1      25.721  60.460  36.808  1.00  0.00     0.211 HD
ENDBRANCH  51  55
BRANCH  52  57
ATOM     57  C   UNL     1      21.842  62.572  39.973  1.00  0.00     0.335 C 
ATOM     58  O   UNL     1      20.785  62.947  39.497  1.00  0.00    -0.249 OA
BRANCH  57  59
ATOM     59  O   UNL     1      21.909  62.304  41.298  1.00  0.00    -0.479 OA
ATOM     60  H   UNL     1      22.750  62.120  41.740  1.00  0.00     0.296 HD
ENDBRANCH  57  59
ENDBRANCH  52  57
BRANCH  53  61
ATOM     61  O   UNL     1      21.976  59.669  38.737  1.00  0.00    -0.387 OA
ATOM     62  H   UNL     1      21.034  59.821  38.468  1.00  0.00     0.211 HD
ENDBRANCH  53  61
BRANCH  54  63
ATOM     63  O   UNL     1      23.438  62.296  36.677  1.00  0.00    -0.340 OA
BRANCH  63  64
ATOM     64  C   UNL     1      22.687  62.815  35.584  1.00  0.00     0.282 C 
ATOM     65  O   UNL     1      21.752  63.795  36.054  1.00  0.00    -0.347 OA
ATOM     66  C   UNL     1      22.061  61.620  34.793  1.00  0.00     0.202 C 
ATOM     67  C   UNL     1      20.443  63.277  36.161  1.00  0.00     0.198 C 
ATOM     68  C   UNL     1      20.958  62.193  33.893  1.00  0.00     0.179 C 
ATOM     69  C   UNL     1      19.872  62.862  34.778  1.00  0.00     0.171 C 
BRANCH  66  70
ATOM     70  O   UNL     1      23.044  60.926  34.066  1.00  0.00    -0.385 OA
ATOM     71  H   UNL     1      23.326  61.503  33.308  1.00  0.00     0.211 HD
ENDBRANCH  66  70
BRANCH  68  72
ATOM     72  O   UNL     1      20.396  61.237  33.031  1.00  0.00    -0.387 OA
ATOM     73  H   UNL     1      19.754  60.699  33.564  1.00  0.00     0.211 HD
ENDBRANCH  68  72
BRANCH  69  74
ATOM     74  O   UNL     1      19.286  63.939  34.094  1.00  0.00    -0.388 OA
ATOM     75  H   UNL     1      19.626  63.920  33.161  1.00  0.00     0.211 HD
ENDBRANCH  69  74
ENDBRANCH  63  64
ENDBRANCH  54  63
ENDBRANCH  48  49
ENDBRANCH  19  48
TORSDOF 19
ENDMDL
