MODEL 1
REMARK VINA RESULT:    -9.638      0.000      0.000
REMARK INTER + INTRA:         -19.036
REMARK INTER:                 -17.807
REMARK INTRA:                  -1.228
REMARK UNBOUND:                -1.228
REMARK SMILES CO[C@@H]1C[C@H](O[C@@H]2[C@@H](C)O[C@@H](O[C@H]3[C@@H](O)C[C@H](O[C@H]4[C@H](O)C[C@H](O[C@H]5CC[C@@]6(C)[C@@H](CC[C@@]78O[C@@H](C)[C@@H]9CCC(=O)[C@]9(C)[C@@H](C[C@@H]76)O8)C5)O[C@@H]4C)O[C@@H]3C)C[C@H]2OC)O[C@H](C)[C@H]1O
REMARK SMILES IDX 18 1 17 2 13 3 14 4 53 5 16 6 52 7 54 8 12 9 11 10 7 11 8 12
REMARK SMILES IDX 56 13 10 14 55 15 9 16 6 17 5 18 3 19 4 20 62 21 60 22 59 23
REMARK SMILES IDX 61 24 2 25 1 26 63 27 57 29 58 30 15 31 19 33 20 34 50 35
REMARK SMILES IDX 22 36 49 37 23 38 51 39 21 40 24 42 25 43 26 44 48 45 27 46
REMARK SMILES IDX 30 47 28 48 31 49 46 50 32 51 45 52 33 53 44 54 47 55 29 56
REMARK SMILES IDX 34 58 35 59 36 60 37 61 38 62 42 63 39 64 40 65 41 66 43 67
REMARK H PARENT 63 28 15 32 21 41
REMARK Flexibility Score:  337.900
ROOT
ATOM      1  O   UNL     1      27.868  59.685  44.005  1.00  0.00    -0.344 OA
ENDROOT
BRANCH   1   2
ATOM      2  C   UNL     1      28.516  58.607  44.645  1.00  0.00     0.253 C 
ATOM      3  C   UNL     1      27.630  55.878  45.197  1.00  0.00     0.179 C 
ATOM      4  C   UNL     1      26.756  57.104  45.554  1.00  0.00     0.151 C 
ATOM      5  C   UNL     1      28.851  56.315  44.335  1.00  0.00     0.150 C 
ATOM      6  C   UNL     1      27.693  58.250  45.913  1.00  0.00     0.096 C 
ATOM      7  O   UNL     1      28.605  57.544  43.691  1.00  0.00    -0.347 OA
ATOM      8  C   UNL     1      29.222  55.251  43.304  1.00  0.00     0.041 C 
BRANCH   3   9
ATOM      9  O   UNL     1      28.159  55.315  46.392  1.00  0.00    -0.344 OA
BRANCH   9  10
ATOM     10  C   UNL     1      27.520  54.119  46.780  1.00  0.00     0.253 C 
ATOM     11  C   UNL     1      28.172  52.420  49.086  1.00  0.00     0.179 C 
ATOM     12  C   UNL     1      26.820  53.112  48.770  1.00  0.00     0.150 C 
ATOM     13  C   UNL     1      29.252  52.762  48.022  1.00  0.00     0.154 C 
ATOM     14  O   UNL     1      27.023  54.334  48.103  1.00  0.00    -0.347 OA
ATOM     15  C   UNL     1      28.559  52.957  46.676  1.00  0.00     0.097 C 
ATOM     16  C   UNL     1      26.023  53.347  50.052  1.00  0.00     0.041 C 
BRANCH  11  17
ATOM     17  O   UNL     1      27.910  51.020  49.119  1.00  0.00    -0.344 OA
BRANCH  17  18
ATOM     18  C   UNL     1      29.074  50.239  48.886  1.00  0.00     0.253 C 
ATOM     19  C   UNL     1      29.995  47.992  49.687  1.00  0.00     0.154 C 
ATOM     20  C   UNL     1      29.409  49.359  50.116  1.00  0.00     0.097 C 
ATOM     21  C   UNL     1      30.820  48.055  48.369  1.00  0.00     0.172 C 
ATOM     22  C   UNL     1      30.166  48.994  47.304  1.00  0.00     0.149 C 
ATOM     23  O   UNL     1      28.881  49.437  47.733  1.00  0.00    -0.347 OA
ATOM     24  C   UNL     1      30.078  48.376  45.911  1.00  0.00     0.041 C 
BRANCH  19  25
ATOM     25  O   UNL     1      28.900  47.102  49.480  1.00  0.00    -0.378 OA
ATOM     26  C   UNL     1      29.319  45.754  49.616  1.00  0.00     0.195 C 
ENDBRANCH  19  25
BRANCH  21  27
ATOM     27  O   UNL     1      32.150  48.445  48.601  1.00  0.00    -0.388 OA
ATOM     28  H   UNL     1      32.191  48.809  49.525  1.00  0.00     0.211 HD
ENDBRANCH  21  27
ENDBRANCH  17  18
ENDBRANCH  11  17
BRANCH  13  29
ATOM     29  O   UNL     1      29.901  53.980  48.372  1.00  0.00    -0.378 OA
ATOM     30  C   UNL     1      31.251  53.971  47.957  1.00  0.00     0.195 C 
ENDBRANCH  13  29
ENDBRANCH   9  10
ENDBRANCH   3   9
BRANCH   4  31
ATOM     31  O   UNL     1      25.833  56.803  46.572  1.00  0.00    -0.390 OA
ATOM     32  H   UNL     1      24.922  56.845  46.184  1.00  0.00     0.211 HD
ENDBRANCH   4  31
ENDBRANCH   1   2
BRANCH   1  33
ATOM     33  C   UNL     1      27.594  59.419  42.638  1.00  0.00     0.179 C 
ATOM     34  C   UNL     1      26.056  59.446  42.417  1.00  0.00     0.151 C 
ATOM     35  C   UNL     1      28.304  60.524  41.786  1.00  0.00     0.150 C 
ATOM     36  C   UNL     1      25.649  60.881  42.092  1.00  0.00     0.096 C 
ATOM     37  O   UNL     1      27.637  60.726  40.561  1.00  0.00    -0.347 OA
ATOM     38  C   UNL     1      26.327  61.282  40.753  1.00  0.00     0.253 C 
ATOM     39  C   UNL     1      29.780  60.204  41.540  1.00  0.00     0.041 C 
BRANCH  34  40
ATOM     40  O   UNL     1      25.625  58.581  41.389  1.00  0.00    -0.390 OA
ATOM     41  H   UNL     1      25.284  59.122  40.624  1.00  0.00     0.211 HD
ENDBRANCH  34  40
BRANCH  38  42
ATOM     42  O   UNL     1      25.516  60.814  39.691  1.00  0.00    -0.349 OA
BRANCH  42  43
ATOM     43  C   UNL     1      24.153  61.114  39.915  1.00  0.00     0.121 C 
ATOM     44  C   UNL     1      23.823  62.576  39.493  1.00  0.00     0.033 C 
ATOM     45  C   UNL     1      23.235  60.047  39.236  1.00  0.00     0.036 C 
ATOM     46  C   UNL     1      23.590  62.814  37.985  1.00  0.00     0.010 C 
ATOM     47  C   UNL     1      22.174  60.723  38.344  1.00  0.00    -0.002 C 
ATOM     48  C   UNL     1      22.857  61.624  37.258  1.00  0.00    -0.022 C 
ATOM     49  C   UNL     1      21.132  59.779  37.729  1.00  0.00     0.010 C 
ATOM     50  C   UNL     1      21.776  62.147  36.189  1.00  0.00     0.058 C 
ATOM     51  C   UNL     1      19.928  60.661  37.361  1.00  0.00     0.066 C 
ATOM     52  C   UNL     1      21.958  61.605  34.799  1.00  0.00     0.043 C 
ATOM     53  C   UNL     1      20.240  61.811  36.368  1.00  0.00     0.172 C 
ATOM     54  C   UNL     1      20.625  61.864  34.154  1.00  0.00     0.136 CG0
ATOM     55  O   UNL     1      19.709  61.410  35.101  1.00  0.00    -0.345 OA
ATOM     56  C   UNL     1      24.009  60.833  36.527  1.00  0.00     0.012 C 
ATOM     57  G   UNL     1      20.268  63.320  33.673  1.00  0.00     0.000 G0
BRANCH  53  58
ATOM     58  O   UNL     1      19.590  62.982  36.846  1.00  0.00    -0.346 OA
BRANCH  58  59
ATOM     59  C   UNL     1      18.821  63.687  35.878  1.00  0.00     0.123 C 
ATOM     60  C   UNL     1      18.021  64.727  36.677  1.00  0.00     0.039 C 
BRANCH  59  61
ATOM     61  C   UNL     1      19.740  64.343  34.766  1.00  0.00     0.034 C 
ATOM     62  C   UNL     1      18.926  65.327  33.899  1.00  0.00     0.015 C 
ATOM     63  C   UNL     1      20.262  63.328  33.659  1.00  0.00     0.058 CG0
ATOM     64  C   UNL     1      18.124  64.434  32.959  1.00  0.00     0.077 C 
ATOM     65  C   UNL     1      19.079  63.319  32.717  1.00  0.00     0.141 C 
ATOM     66  O   UNL     1      18.943  62.523  31.799  1.00  0.00    -0.299 OA
ATOM     67  C   UNL     1      21.479  63.885  32.878  1.00  0.00     0.023 C 
ATOM     68  G   UNL     1      20.587  61.856  34.117  1.00  0.00     0.000 G0
ENDBRANCH  59  61
ENDBRANCH  58  59
ENDBRANCH  53  58
ENDBRANCH  42  43
ENDBRANCH  38  42
ENDBRANCH   1  33
TORSDOF 13
ENDMDL
MODEL 2
REMARK VINA RESULT:    -8.791      4.298      5.495
REMARK INTER + INTRA:         -17.471
REMARK INTER:                 -16.542
REMARK INTRA:                  -0.928
REMARK UNBOUND:                -1.228
REMARK SMILES CO[C@@H]1C[C@H](O[C@@H]2[C@@H](C)O[C@@H](O[C@H]3[C@@H](O)C[C@H](O[C@H]4[C@H](O)C[C@H](O[C@H]5CC[C@@]6(C)[C@@H](CC[C@@]78O[C@@H](C)[C@@H]9CCC(=O)[C@]9(C)[C@@H](C[C@@H]76)O8)C5)O[C@@H]4C)O[C@@H]3C)C[C@H]2OC)O[C@H](C)[C@H]1O
REMARK SMILES IDX 18 1 17 2 13 3 14 4 53 5 16 6 52 7 54 8 12 9 11 10 7 11 8 12
REMARK SMILES IDX 56 13 10 14 55 15 9 16 6 17 5 18 3 19 4 20 62 21 60 22 59 23
REMARK SMILES IDX 61 24 2 25 1 26 63 27 57 29 58 30 15 31 19 33 20 34 50 35
REMARK SMILES IDX 22 36 49 37 23 38 51 39 21 40 24 42 25 43 26 44 48 45 27 46
REMARK SMILES IDX 30 47 28 48 31 49 46 50 32 51 45 52 33 53 44 54 47 55 29 56
REMARK SMILES IDX 34 58 35 59 36 60 37 61 38 62 42 63 39 64 40 65 41 66 43 67
REMARK H PARENT 63 28 15 32 21 41
REMARK Flexibility Score:  337.900
ROOT
ATOM      1  O   UNL     1      27.796  58.404  43.869  1.00  0.00    -0.344 OA
ENDROOT
BRANCH   1   2
ATOM      2  C   UNL     1      28.789  57.412  43.720  1.00  0.00     0.253 C 
ATOM      3  C   UNL     1      31.215  56.868  45.257  1.00  0.00     0.179 C 
ATOM      4  C   UNL     1      30.883  58.287  44.737  1.00  0.00     0.151 C 
ATOM      5  C   UNL     1      30.000  55.917  45.046  1.00  0.00     0.150 C 
ATOM      6  C   UNL     1      30.132  58.134  43.421  1.00  0.00     0.096 C 
ATOM      7  O   UNL     1      28.799  56.643  44.928  1.00  0.00    -0.347 OA
ATOM      8  C   UNL     1      29.883  54.895  46.176  1.00  0.00     0.041 C 
BRANCH   3   9
ATOM      9  O   UNL     1      32.288  56.328  44.494  1.00  0.00    -0.344 OA
BRANCH   9  10
ATOM     10  C   UNL     1      32.817  55.138  45.034  1.00  0.00     0.253 C 
ATOM     11  C   UNL     1      35.609  54.607  45.779  1.00  0.00     0.179 C 
ATOM     12  C   UNL     1      34.355  54.536  46.690  1.00  0.00     0.150 C 
ATOM     13  C   UNL     1      35.245  55.061  44.338  1.00  0.00     0.154 C 
ATOM     14  O   UNL     1      33.392  55.484  46.296  1.00  0.00    -0.347 OA
ATOM     15  C   UNL     1      33.843  54.554  44.012  1.00  0.00     0.097 C 
ATOM     16  C   UNL     1      34.737  54.759  48.151  1.00  0.00     0.041 C 
BRANCH  11  17
ATOM     17  O   UNL     1      36.180  53.301  45.776  1.00  0.00    -0.344 OA
BRANCH  17  18
ATOM     18  C   UNL     1      37.505  53.284  45.265  1.00  0.00     0.253 C 
ATOM     19  C   UNL     1      39.745  52.253  45.942  1.00  0.00     0.154 C 
ATOM     20  C   UNL     1      38.539  53.107  46.404  1.00  0.00     0.097 C 
ATOM     21  C   UNL     1      40.083  52.420  44.433  1.00  0.00     0.172 C 
ATOM     22  C   UNL     1      38.800  52.507  43.543  1.00  0.00     0.149 C 
ATOM     23  O   UNL     1      37.628  52.244  44.309  1.00  0.00    -0.347 OA
ATOM     24  C   UNL     1      38.845  51.607  42.311  1.00  0.00     0.041 C 
BRANCH  19  25
ATOM     25  O   UNL     1      39.414  50.885  46.172  1.00  0.00    -0.378 OA
ATOM     26  C   UNL     1      40.576  50.137  46.491  1.00  0.00     0.195 C 
ENDBRANCH  19  25
BRANCH  21  27
ATOM     27  O   UNL     1      40.906  53.535  44.200  1.00  0.00    -0.388 OA
ATOM     28  H   UNL     1      40.322  54.265  43.861  1.00  0.00     0.211 HD
ENDBRANCH  21  27
ENDBRANCH  17  18
ENDBRANCH  11  17
BRANCH  13  29
ATOM     29  O   UNL     1      35.232  56.483  44.273  1.00  0.00    -0.378 OA
ATOM     30  C   UNL     1      36.519  56.988  43.980  1.00  0.00     0.195 C 
ENDBRANCH  13  29
ENDBRANCH   9  10
ENDBRANCH   3   9
BRANCH   4  31
ATOM     31  O   UNL     1      32.039  59.081  44.626  1.00  0.00    -0.390 OA
ATOM     32  H   UNL     1      32.700  58.759  45.290  1.00  0.00     0.211 HD
ENDBRANCH   4  31
ENDBRANCH   1   2
BRANCH   1  33
ATOM     33  C   UNL     1      27.709  59.258  42.738  1.00  0.00     0.179 C 
ATOM     34  C   UNL     1      26.622  58.707  41.773  1.00  0.00     0.151 C 
ATOM     35  C   UNL     1      27.333  60.689  43.250  1.00  0.00     0.150 C 
ATOM     36  C   UNL     1      25.280  59.309  42.178  1.00  0.00     0.096 C 
ATOM     37  O   UNL     1      26.647  61.418  42.258  1.00  0.00    -0.347 OA
ATOM     38  C   UNL     1      25.360  60.847  41.972  1.00  0.00     0.253 C 
ATOM     39  C   UNL     1      28.558  61.471  43.730  1.00  0.00     0.041 C 
BRANCH  34  40
ATOM     40  O   UNL     1      26.886  58.992  40.416  1.00  0.00    -0.390 OA
ATOM     41  H   UNL     1      27.790  58.645  40.176  1.00  0.00     0.211 HD
ENDBRANCH  34  40
BRANCH  38  42
ATOM     42  O   UNL     1      25.074  61.126  40.614  1.00  0.00    -0.349 OA
BRANCH  42  43
ATOM     43  C   UNL     1      23.878  60.495  40.202  1.00  0.00     0.121 C 
ATOM     44  C   UNL     1      22.657  61.449  40.355  1.00  0.00     0.033 C 
ATOM     45  C   UNL     1      24.033  59.908  38.762  1.00  0.00     0.036 C 
ATOM     46  C   UNL     1      22.456  62.485  39.228  1.00  0.00     0.010 C 
ATOM     47  C   UNL     1      22.885  60.383  37.848  1.00  0.00    -0.002 C 
ATOM     48  C   UNL     1      22.832  61.949  37.795  1.00  0.00    -0.022 C 
ATOM     49  C   UNL     1      22.860  59.763  36.445  1.00  0.00     0.010 C 
ATOM     50  C   UNL     1      21.792  62.446  36.675  1.00  0.00     0.058 C 
ATOM     51  C   UNL     1      21.421  59.935  35.932  1.00  0.00     0.066 C 
ATOM     52  C   UNL     1      22.421  63.160  35.510  1.00  0.00     0.043 C 
ATOM     53  C   UNL     1      20.923  61.403  35.862  1.00  0.00     0.172 C 
ATOM     54  C   UNL     1      21.351  63.102  34.456  1.00  0.00     0.136 CG0
ATOM     55  O   UNL     1      20.937  61.772  34.480  1.00  0.00    -0.345 OA
ATOM     56  C   UNL     1      24.266  62.541  37.511  1.00  0.00     0.012 C 
ATOM     57  G   UNL     1      20.120  64.080  34.550  1.00  0.00     0.000 G0
BRANCH  53  58
ATOM     58  O   UNL     1      19.601  61.435  36.386  1.00  0.00    -0.346 OA
BRANCH  58  59
ATOM     59  C   UNL     1      18.646  62.115  35.580  1.00  0.00     0.123 C 
ATOM     60  C   UNL     1      17.282  61.777  36.199  1.00  0.00     0.039 C 
BRANCH  59  61
ATOM     61  C   UNL     1      18.928  63.674  35.530  1.00  0.00     0.034 C 
ATOM     62  C   UNL     1      17.733  64.422  34.902  1.00  0.00     0.015 C 
ATOM     63  C   UNL     1      20.101  64.101  34.547  1.00  0.00     0.058 CG0
ATOM     64  C   UNL     1      17.870  64.172  33.404  1.00  0.00     0.077 C 
ATOM     65  C   UNL     1      19.349  64.166  33.236  1.00  0.00     0.141 C 
ATOM     66  O   UNL     1      19.888  64.274  32.144  1.00  0.00    -0.299 OA
ATOM     67  C   UNL     1      20.635  65.523  34.852  1.00  0.00     0.023 C 
ATOM     68  G   UNL     1      21.327  63.122  34.408  1.00  0.00     0.000 G0
ENDBRANCH  59  61
ENDBRANCH  58  59
ENDBRANCH  53  58
ENDBRANCH  42  43
ENDBRANCH  38  42
ENDBRANCH   1  33
TORSDOF 13
ENDMDL
MODEL 3
REMARK VINA RESULT:    -8.686      9.071     16.824
REMARK INTER + INTRA:         -17.278
REMARK INTER:                 -16.178
REMARK INTRA:                  -1.100
REMARK UNBOUND:                -1.228
REMARK SMILES CO[C@@H]1C[C@H](O[C@@H]2[C@@H](C)O[C@@H](O[C@H]3[C@@H](O)C[C@H](O[C@H]4[C@H](O)C[C@H](O[C@H]5CC[C@@]6(C)[C@@H](CC[C@@]78O[C@@H](C)[C@@H]9CCC(=O)[C@]9(C)[C@@H](C[C@@H]76)O8)C5)O[C@@H]4C)O[C@@H]3C)C[C@H]2OC)O[C@H](C)[C@H]1O
REMARK SMILES IDX 18 1 17 2 13 3 14 4 53 5 16 6 52 7 54 8 12 9 11 10 7 11 8 12
REMARK SMILES IDX 56 13 10 14 55 15 9 16 6 17 5 18 3 19 4 20 62 21 60 22 59 23
REMARK SMILES IDX 61 24 2 25 1 26 63 27 57 29 58 30 15 31 19 33 20 34 50 35
REMARK SMILES IDX 22 36 49 37 23 38 51 39 21 40 24 42 25 43 26 44 48 45 27 46
REMARK SMILES IDX 30 47 28 48 31 49 46 50 32 51 45 52 33 53 44 54 47 55 29 56
REMARK SMILES IDX 34 58 35 59 36 60 37 61 38 62 42 63 39 64 40 65 41 66 43 67
REMARK H PARENT 63 28 15 32 21 41
REMARK Flexibility Score:  337.900
ROOT
ATOM      1  O   UNL     1      30.917  56.072  47.800  1.00  0.00    -0.344 OA
ENDROOT
BRANCH   1   2
ATOM      2  C   UNL     1      29.759  55.805  47.040  1.00  0.00     0.253 C 
ATOM      3  C   UNL     1      29.136  56.321  44.231  1.00  0.00     0.179 C 
ATOM      4  C   UNL     1      29.709  57.424  45.152  1.00  0.00     0.151 C 
ATOM      5  C   UNL     1      29.184  54.939  44.947  1.00  0.00     0.150 C 
ATOM      6  C   UNL     1      29.188  57.168  46.560  1.00  0.00     0.096 C 
ATOM      7  O   UNL     1      30.148  54.931  45.974  1.00  0.00    -0.347 OA
ATOM      8  C   UNL     1      29.463  53.804  43.961  1.00  0.00     0.041 C 
BRANCH   3   9
ATOM      9  O   UNL     1      27.764  56.594  43.971  1.00  0.00    -0.344 OA
BRANCH   9  10
ATOM     10  C   UNL     1      27.487  56.830  42.609  1.00  0.00     0.253 C 
ATOM     11  C   UNL     1      26.423  59.292  41.409  1.00  0.00     0.179 C 
ATOM     12  C   UNL     1      27.759  58.576  41.077  1.00  0.00     0.150 C 
ATOM     13  C   UNL     1      25.653  58.568  42.549  1.00  0.00     0.154 C 
ATOM     14  O   UNL     1      28.290  57.947  42.218  1.00  0.00    -0.347 OA
ATOM     15  C   UNL     1      25.951  57.074  42.460  1.00  0.00     0.097 C 
ATOM     16  C   UNL     1      28.773  59.566  40.511  1.00  0.00     0.041 C 
BRANCH  11  17
ATOM     17  O   UNL     1      25.662  59.304  40.204  1.00  0.00    -0.344 OA
BRANCH  17  18
ATOM     18  C   UNL     1      24.538  60.171  40.275  1.00  0.00     0.253 C 
ATOM     19  C   UNL     1      23.943  62.512  39.434  1.00  0.00     0.154 C 
ATOM     20  C   UNL     1      24.977  61.655  40.206  1.00  0.00     0.097 C 
ATOM     21  C   UNL     1      22.479  62.008  39.588  1.00  0.00     0.172 C 
ATOM     22  C   UNL     1      22.382  60.448  39.555  1.00  0.00     0.149 C 
ATOM     23  O   UNL     1      23.639  59.864  39.223  1.00  0.00    -0.347 OA
ATOM     24  C   UNL     1      21.289  59.920  38.629  1.00  0.00     0.041 C 
BRANCH  19  25
ATOM     25  O   UNL     1      24.287  62.455  38.051  1.00  0.00    -0.378 OA
ATOM     26  C   UNL     1      23.302  63.107  37.265  1.00  0.00     0.195 C 
ENDBRANCH  19  25
BRANCH  21  27
ATOM     27  O   UNL     1      21.874  62.502  40.756  1.00  0.00    -0.388 OA
ATOM     28  H   UNL     1      21.072  63.017  40.475  1.00  0.00     0.211 HD
ENDBRANCH  21  27
ENDBRANCH  17  18
ENDBRANCH  11  17
BRANCH  13  29
ATOM     29  O   UNL     1      26.112  59.040  43.812  1.00  0.00    -0.378 OA
ATOM     30  C   UNL     1      26.236  60.448  43.810  1.00  0.00     0.195 C 
ENDBRANCH  13  29
ENDBRANCH   9  10
ENDBRANCH   3   9
BRANCH   4  31
ATOM     31  O   UNL     1      29.402  58.710  44.673  1.00  0.00    -0.390 OA
ATOM     32  H   UNL     1      29.208  59.291  45.452  1.00  0.00     0.211 HD
ENDBRANCH   4  31
ENDBRANCH   1   2
BRANCH   1  33
ATOM     33  C   UNL     1      31.233  57.455  47.841  1.00  0.00     0.179 C 
ATOM     34  C   UNL     1      30.894  58.008  49.253  1.00  0.00     0.151 C 
ATOM     35  C   UNL     1      32.760  57.605  47.529  1.00  0.00     0.150 C 
ATOM     36  C   UNL     1      32.123  57.827  50.140  1.00  0.00     0.096 C 
ATOM     37  O   UNL     1      33.285  58.772  48.120  1.00  0.00    -0.347 OA
ATOM     38  C   UNL     1      33.271  58.695  49.554  1.00  0.00     0.253 C 
ATOM     39  C   UNL     1      33.046  57.598  46.027  1.00  0.00     0.041 C 
BRANCH  34  40
ATOM     40  O   UNL     1      30.506  59.364  49.243  1.00  0.00    -0.390 OA
ATOM     41  H   UNL     1      29.607  59.447  48.817  1.00  0.00     0.211 HD
ENDBRANCH  34  40
BRANCH  38  42
ATOM     42  O   UNL     1      33.116  60.016  50.041  1.00  0.00    -0.349 OA
BRANCH  42  43
ATOM     43  C   UNL     1      34.297  60.772  49.859  1.00  0.00     0.121 C 
ATOM     44  C   UNL     1      33.975  62.196  49.317  1.00  0.00     0.033 C 
ATOM     45  C   UNL     1      35.152  60.782  51.167  1.00  0.00     0.036 C 
ATOM     46  C   UNL     1      33.514  63.235  50.363  1.00  0.00     0.010 C 
ATOM     47  C   UNL     1      35.519  62.223  51.573  1.00  0.00    -0.002 C 
ATOM     48  C   UNL     1      34.227  63.092  51.760  1.00  0.00    -0.022 C 
ATOM     49  C   UNL     1      36.469  62.349  52.771  1.00  0.00     0.010 C 
ATOM     50  C   UNL     1      34.589  64.521  52.400  1.00  0.00     0.058 C 
ATOM     51  C   UNL     1      37.104  63.745  52.663  1.00  0.00     0.066 C 
ATOM     52  C   UNL     1      34.050  64.740  53.787  1.00  0.00     0.043 C 
ATOM     53  C   UNL     1      36.095  64.924  52.672  1.00  0.00     0.172 C 
ATOM     54  C   UNL     1      34.877  65.887  54.297  1.00  0.00     0.136 CG0
ATOM     55  O   UNL     1      36.182  65.523  53.969  1.00  0.00    -0.345 OA
ATOM     56  C   UNL     1      33.180  62.336  52.667  1.00  0.00     0.012 C 
ATOM     57  G   UNL     1      34.557  67.349  53.808  1.00  0.00     0.000 G0
BRANCH  53  58
ATOM     58  O   UNL     1      36.492  65.839  51.659  1.00  0.00    -0.346 OA
BRANCH  58  59
ATOM     59  C   UNL     1      36.598  67.196  52.075  1.00  0.00     0.123 C 
ATOM     60  C   UNL     1      37.314  67.916  50.923  1.00  0.00     0.039 C 
BRANCH  59  61
ATOM     61  C   UNL     1      35.178  67.820  52.402  1.00  0.00     0.034 C 
ATOM     62  C   UNL     1      35.287  69.349  52.586  1.00  0.00     0.015 C 
ATOM     63  C   UNL     1      34.576  67.389  53.809  1.00  0.00     0.058 CG0
ATOM     64  C   UNL     1      35.880  69.524  53.980  1.00  0.00     0.077 C 
ATOM     65  C   UNL     1      35.257  68.390  54.715  1.00  0.00     0.141 C 
ATOM     66  O   UNL     1      35.245  68.324  55.936  1.00  0.00    -0.299 OA
ATOM     67  C   UNL     1      33.050  67.640  53.896  1.00  0.00     0.023 C 
ATOM     68  G   UNL     1      34.876  65.927  54.311  1.00  0.00     0.000 G0
ENDBRANCH  59  61
ENDBRANCH  58  59
ENDBRANCH  53  58
ENDBRANCH  42  43
ENDBRANCH  38  42
ENDBRANCH   1  33
TORSDOF 13
ENDMDL
MODEL 4
REMARK VINA RESULT:    -8.466      6.569     17.601
REMARK INTER + INTRA:         -16.872
REMARK INTER:                 -15.350
REMARK INTRA:                  -1.522
REMARK UNBOUND:                -1.228
REMARK SMILES CO[C@@H]1C[C@H](O[C@@H]2[C@@H](C)O[C@@H](O[C@H]3[C@@H](O)C[C@H](O[C@H]4[C@H](O)C[C@H](O[C@H]5CC[C@@]6(C)[C@@H](CC[C@@]78O[C@@H](C)[C@@H]9CCC(=O)[C@]9(C)[C@@H](C[C@@H]76)O8)C5)O[C@@H]4C)O[C@@H]3C)C[C@H]2OC)O[C@H](C)[C@H]1O
REMARK SMILES IDX 18 1 17 2 13 3 14 4 53 5 16 6 52 7 54 8 12 9 11 10 7 11 8 12
REMARK SMILES IDX 56 13 10 14 55 15 9 16 6 17 5 18 3 19 4 20 62 21 60 22 59 23
REMARK SMILES IDX 61 24 2 25 1 26 63 27 57 29 58 30 15 31 19 33 20 34 50 35
REMARK SMILES IDX 22 36 49 37 23 38 51 39 21 40 24 42 25 43 26 44 48 45 27 46
REMARK SMILES IDX 30 47 28 48 31 49 46 50 32 51 45 52 33 53 44 54 47 55 29 56
REMARK SMILES IDX 34 58 35 59 36 60 37 61 38 62 42 63 39 64 40 65 41 66 43 67
REMARK H PARENT 63 28 15 32 21 41
REMARK Flexibility Score:  337.900
ROOT
ATOM      1  O   UNL     1      32.942  57.071  45.366  1.00  0.00    -0.344 OA
ENDROOT
BRANCH   1   2
ATOM      2  C   UNL     1      32.383  58.258  44.846  1.00  0.00     0.253 C 
ATOM      3  C   UNL     1      29.603  59.107  44.544  1.00  0.00     0.179 C 
ATOM      4  C   UNL     1      30.088  57.722  44.053  1.00  0.00     0.151 C 
ATOM      5  C   UNL     1      30.715  59.803  45.383  1.00  0.00     0.150 C 
ATOM      6  C   UNL     1      31.535  57.872  43.603  1.00  0.00     0.096 C 
ATOM      7  O   UNL     1      31.626  58.862  45.901  1.00  0.00    -0.347 OA
ATOM      8  C   UNL     1      30.123  60.636  46.521  1.00  0.00     0.041 C 
BRANCH   3   9
ATOM      9  O   UNL     1      29.360  59.945  43.420  1.00  0.00    -0.344 OA
BRANCH   9  10
ATOM     10  C   UNL     1      28.066  60.505  43.407  1.00  0.00     0.253 C 
ATOM     11  C   UNL     1      25.781  59.667  41.760  1.00  0.00     0.179 C 
ATOM     12  C   UNL     1      25.861  59.733  43.309  1.00  0.00     0.150 C 
ATOM     13  C   UNL     1      27.130  60.069  41.101  1.00  0.00     0.154 C 
ATOM     14  O   UNL     1      27.164  59.452  43.758  1.00  0.00    -0.347 OA
ATOM     15  C   UNL     1      27.811  61.107  41.988  1.00  0.00     0.097 C 
ATOM     16  C   UNL     1      24.872  58.757  43.941  1.00  0.00     0.041 C 
BRANCH  11  17
ATOM     17  O   UNL     1      24.736  60.554  41.372  1.00  0.00    -0.344 OA
BRANCH  17  18
ATOM     18  C   UNL     1      24.299  60.335  40.037  1.00  0.00     0.253 C 
ATOM     19  C   UNL     1      22.118  60.600  38.729  1.00  0.00     0.154 C 
ATOM     20  C   UNL     1      22.786  60.007  39.994  1.00  0.00     0.097 C 
ATOM     21  C   UNL     1      23.066  60.662  37.497  1.00  0.00     0.172 C 
ATOM     22  C   UNL     1      24.519  61.088  37.886  1.00  0.00     0.149 C 
ATOM     23  O   UNL     1      24.588  61.481  39.254  1.00  0.00    -0.347 OA
ATOM     24  C   UNL     1      25.101  62.178  36.989  1.00  0.00     0.041 C 
BRANCH  19  25
ATOM     25  O   UNL     1      21.714  61.931  39.042  1.00  0.00    -0.378 OA
ATOM     26  C   UNL     1      21.296  62.614  37.872  1.00  0.00     0.195 C 
ENDBRANCH  19  25
BRANCH  21  27
ATOM     27  O   UNL     1      23.094  59.445  36.795  1.00  0.00    -0.388 OA
ATOM     28  H   UNL     1      23.287  59.659  35.844  1.00  0.00     0.211 HD
ENDBRANCH  21  27
ENDBRANCH  17  18
ENDBRANCH  11  17
BRANCH  13  29
ATOM     29  O   UNL     1      27.979  58.929  41.012  1.00  0.00    -0.378 OA
ATOM     30  C   UNL     1      27.421  57.948  40.162  1.00  0.00     0.195 C 
ENDBRANCH  13  29
ENDBRANCH   9  10
ENDBRANCH   3   9
BRANCH   4  31
ATOM     31  O   UNL     1      29.247  57.205  43.051  1.00  0.00    -0.390 OA
ATOM     32  H   UNL     1      29.377  57.745  42.230  1.00  0.00     0.211 HD
ENDBRANCH   4  31
ENDBRANCH   1   2
BRANCH   1  33
ATOM     33  C   UNL     1      33.611  56.307  44.374  1.00  0.00     0.179 C 
ATOM     34  C   UNL     1      35.099  56.751  44.312  1.00  0.00     0.151 C 
ATOM     35  C   UNL     1      33.490  54.797  44.773  1.00  0.00     0.150 C 
ATOM     36  C   UNL     1      35.886  55.911  45.314  1.00  0.00     0.096 C 
ATOM     37  O   UNL     1      34.568  54.050  44.257  1.00  0.00    -0.347 OA
ATOM     38  C   UNL     1      35.816  54.427  44.859  1.00  0.00     0.253 C 
ATOM     39  C   UNL     1      32.160  54.187  44.329  1.00  0.00     0.041 C 
BRANCH  34  40
ATOM     40  O   UNL     1      35.667  56.622  43.027  1.00  0.00    -0.390 OA
ATOM     41  H   UNL     1      34.950  56.401  42.370  1.00  0.00     0.211 HD
ENDBRANCH  34  40
BRANCH  38  42
ATOM     42  O   UNL     1      36.826  54.216  43.891  1.00  0.00    -0.349 OA
BRANCH  42  43
ATOM     43  C   UNL     1      37.826  53.341  44.374  1.00  0.00     0.121 C 
ATOM     44  C   UNL     1      37.436  52.751  45.760  1.00  0.00     0.033 C 
ATOM     45  C   UNL     1      38.167  52.251  43.307  1.00  0.00     0.036 C 
ATOM     46  C   UNL     1      36.453  51.560  45.743  1.00  0.00     0.010 C 
ATOM     47  C   UNL     1      38.084  50.838  43.919  1.00  0.00    -0.002 C 
ATOM     48  C   UNL     1      36.662  50.580  44.527  1.00  0.00    -0.022 C 
ATOM     49  C   UNL     1      38.527  49.694  42.998  1.00  0.00     0.010 C 
ATOM     50  C   UNL     1      36.498  49.041  44.959  1.00  0.00     0.058 C 
ATOM     51  C   UNL     1      38.875  48.516  43.923  1.00  0.00     0.066 C 
ATOM     52  C   UNL     1      35.489  48.269  44.155  1.00  0.00     0.043 C 
ATOM     53  C   UNL     1      37.713  48.034  44.831  1.00  0.00     0.172 C 
ATOM     54  C   UNL     1      35.852  46.838  44.435  1.00  0.00     0.136 CG0
ATOM     55  O   UNL     1      37.235  46.810  44.265  1.00  0.00    -0.345 OA
ATOM     56  C   UNL     1      35.539  50.980  43.494  1.00  0.00     0.012 C 
ATOM     57  G   UNL     1      35.438  46.189  45.809  1.00  0.00     0.000 G0
BRANCH  53  58
ATOM     58  O   UNL     1      38.243  47.821  46.134  1.00  0.00    -0.346 OA
BRANCH  58  59
ATOM     59  C   UNL     1      37.929  46.563  46.718  1.00  0.00     0.123 C 
ATOM     60  C   UNL     1      38.831  46.458  47.957  1.00  0.00     0.039 C 
BRANCH  59  61
ATOM     61  C   UNL     1      36.388  46.449  47.069  1.00  0.00     0.034 C 
ATOM     62  C   UNL     1      36.120  45.204  47.941  1.00  0.00     0.015 C 
ATOM     63  C   UNL     1      35.447  46.152  45.823  1.00  0.00     0.058 CG0
ATOM     64  C   UNL     1      36.163  44.036  46.962  1.00  0.00     0.077 C 
ATOM     65  C   UNL     1      35.570  44.646  45.741  1.00  0.00     0.141 C 
ATOM     66  O   UNL     1      35.162  43.978  44.803  1.00  0.00    -0.299 OA
ATOM     67  C   UNL     1      33.963  46.486  46.114  1.00  0.00     0.023 C 
ATOM     68  G   UNL     1      35.847  46.792  44.440  1.00  0.00     0.000 G0
ENDBRANCH  59  61
ENDBRANCH  58  59
ENDBRANCH  53  58
ENDBRANCH  42  43
ENDBRANCH  38  42
ENDBRANCH   1  33
TORSDOF 13
ENDMDL
MODEL 5
REMARK VINA RESULT:    -8.454      5.395     18.438
REMARK INTER + INTRA:         -16.848
REMARK INTER:                 -15.620
REMARK INTRA:                  -1.227
REMARK UNBOUND:                -1.228
REMARK SMILES CO[C@@H]1C[C@H](O[C@@H]2[C@@H](C)O[C@@H](O[C@H]3[C@@H](O)C[C@H](O[C@H]4[C@H](O)C[C@H](O[C@H]5CC[C@@]6(C)[C@@H](CC[C@@]78O[C@@H](C)[C@@H]9CCC(=O)[C@]9(C)[C@@H](C[C@@H]76)O8)C5)O[C@@H]4C)O[C@@H]3C)C[C@H]2OC)O[C@H](C)[C@H]1O
REMARK SMILES IDX 18 1 17 2 13 3 14 4 53 5 16 6 52 7 54 8 12 9 11 10 7 11 8 12
REMARK SMILES IDX 56 13 10 14 55 15 9 16 6 17 5 18 3 19 4 20 62 21 60 22 59 23
REMARK SMILES IDX 61 24 2 25 1 26 63 27 57 29 58 30 15 31 19 33 20 34 50 35
REMARK SMILES IDX 22 36 49 37 23 38 51 39 21 40 24 42 25 43 26 44 48 45 27 46
REMARK SMILES IDX 30 47 28 48 31 49 46 50 32 51 45 52 33 53 44 54 47 55 29 56
REMARK SMILES IDX 34 58 35 59 36 60 37 61 38 62 42 63 39 64 40 65 41 66 43 67
REMARK H PARENT 63 28 15 32 21 41
REMARK Flexibility Score:  337.900
ROOT
ATOM      1  O   UNL     1      28.598  54.792  47.696  1.00  0.00    -0.344 OA
ENDROOT
BRANCH   1   2
ATOM      2  C   UNL     1      27.896  54.689  46.476  1.00  0.00     0.253 C 
ATOM      3  C   UNL     1      27.802  56.458  44.151  1.00  0.00     0.179 C 
ATOM      4  C   UNL     1      27.590  56.992  45.588  1.00  0.00     0.151 C 
ATOM      5  C   UNL     1      28.283  54.978  44.189  1.00  0.00     0.150 C 
ATOM      6  C   UNL     1      26.915  55.891  46.396  1.00  0.00     0.096 C 
ATOM      7  O   UNL     1      28.874  54.666  45.430  1.00  0.00    -0.347 OA
ATOM      8  C   UNL     1      29.262  54.674  43.055  1.00  0.00     0.041 C 
BRANCH   3   9
ATOM      9  O   UNL     1      26.557  56.461  43.462  1.00  0.00    -0.344 OA
BRANCH   9  10
ATOM     10  C   UNL     1      26.651  56.938  42.138  1.00  0.00     0.253 C 
ATOM     11  C   UNL     1      25.963  59.622  41.159  1.00  0.00     0.179 C 
ATOM     12  C   UNL     1      27.332  58.898  41.061  1.00  0.00     0.150 C 
ATOM     13  C   UNL     1      24.914  58.760  41.917  1.00  0.00     0.154 C 
ATOM     14  O   UNL     1      27.539  58.058  42.170  1.00  0.00    -0.347 OA
ATOM     15  C   UNL     1      25.211  57.288  41.644  1.00  0.00     0.097 C 
ATOM     16  C   UNL     1      28.470  59.911  40.958  1.00  0.00     0.041 C 
BRANCH  11  17
ATOM     17  O   UNL     1      25.546  59.878  39.821  1.00  0.00    -0.344 OA
BRANCH  17  18
ATOM     18  C   UNL     1      24.349  60.642  39.757  1.00  0.00     0.253 C 
ATOM     19  C   UNL     1      23.577  62.793  38.611  1.00  0.00     0.154 C 
ATOM     20  C   UNL     1      24.658  62.139  39.506  1.00  0.00     0.097 C 
ATOM     21  C   UNL     1      22.159  62.182  38.801  1.00  0.00     0.172 C 
ATOM     22  C   UNL     1      22.200  60.628  38.967  1.00  0.00     0.149 C 
ATOM     23  O   UNL     1      23.512  60.123  38.737  1.00  0.00    -0.347 OA
ATOM     24  C   UNL     1      21.186  59.890  38.097  1.00  0.00     0.041 C 
BRANCH  19  25
ATOM     25  O   UNL     1      23.966  62.592  37.254  1.00  0.00    -0.378 OA
ATOM     26  C   UNL     1      22.880  62.854  36.379  1.00  0.00     0.195 C 
ENDBRANCH  19  25
BRANCH  21  27
ATOM     27  O   UNL     1      21.478  62.763  39.884  1.00  0.00    -0.388 OA
ATOM     28  H   UNL     1      20.931  63.509  39.519  1.00  0.00     0.211 HD
ENDBRANCH  21  27
ENDBRANCH  17  18
ENDBRANCH  11  17
BRANCH  13  29
ATOM     29  O   UNL     1      25.029  58.988  43.318  1.00  0.00    -0.378 OA
ATOM     30  C   UNL     1      25.283  60.351  43.589  1.00  0.00     0.195 C 
ENDBRANCH  13  29
ENDBRANCH   9  10
ENDBRANCH   3   9
BRANCH   4  31
ATOM     31  O   UNL     1      26.871  58.201  45.590  1.00  0.00    -0.390 OA
ATOM     32  H   UNL     1      26.015  58.051  45.116  1.00  0.00     0.211 HD
ENDBRANCH   4  31
ENDBRANCH   1   2
BRANCH   1  33
ATOM     33  C   UNL     1      28.365  53.684  48.552  1.00  0.00     0.179 C 
ATOM     34  C   UNL     1      27.849  52.490  47.701  1.00  0.00     0.151 C 
ATOM     35  C   UNL     1      29.719  53.331  49.254  1.00  0.00     0.150 C 
ATOM     36  C   UNL     1      29.058  51.700  47.211  1.00  0.00     0.096 C 
ATOM     37  O   UNL     1      29.764  51.968  49.609  1.00  0.00    -0.347 OA
ATOM     38  C   UNL     1      29.788  51.116  48.453  1.00  0.00     0.253 C 
ATOM     39  C   UNL     1      29.979  54.207  50.481  1.00  0.00     0.041 C 
BRANCH  34  40
ATOM     40  O   UNL     1      26.974  51.639  48.409  1.00  0.00    -0.390 OA
ATOM     41  H   UNL     1      26.570  52.139  49.171  1.00  0.00     0.211 HD
ENDBRANCH  34  40
BRANCH  38  42
ATOM     42  O   UNL     1      29.146  49.907  48.813  1.00  0.00    -0.349 OA
BRANCH  42  43
ATOM     43  C   UNL     1      29.918  49.171  49.739  1.00  0.00     0.121 C 
ATOM     44  C   UNL     1      29.189  47.864  50.168  1.00  0.00     0.033 C 
ATOM     45  C   UNL     1      31.359  48.926  49.184  1.00  0.00     0.036 C 
ATOM     46  C   UNL     1      29.293  46.673  49.191  1.00  0.00     0.010 C 
ATOM     47  C   UNL     1      31.727  47.431  49.253  1.00  0.00    -0.002 C 
ATOM     48  C   UNL     1      30.685  46.567  48.462  1.00  0.00    -0.022 C 
ATOM     49  C   UNL     1      33.169  47.089  48.856  1.00  0.00     0.010 C 
ATOM     50  C   UNL     1      31.184  45.044  48.337  1.00  0.00     0.058 C 
ATOM     51  C   UNL     1      33.468  45.719  49.487  1.00  0.00     0.066 C 
ATOM     52  C   UNL     1      31.511  44.606  46.937  1.00  0.00     0.043 C 
ATOM     53  C   UNL     1      32.520  44.574  49.043  1.00  0.00     0.172 C 
ATOM     54  C   UNL     1      32.346  43.374  47.151  1.00  0.00     0.136 CG0
ATOM     55  O   UNL     1      33.262  43.764  48.126  1.00  0.00    -0.345 OA
ATOM     56  C   UNL     1      30.434  47.178  47.030  1.00  0.00     0.012 C 
ATOM     57  G   UNL     1      31.643  42.021  47.543  1.00  0.00     0.000 G0
BRANCH  53  58
ATOM     58  O   UNL     1      32.164  43.834  50.204  1.00  0.00    -0.346 OA
BRANCH  58  59
ATOM     59  C   UNL     1      32.345  42.427  50.105  1.00  0.00     0.123 C 
ATOM     60  C   UNL     1      32.182  41.898  51.538  1.00  0.00     0.039 C 
BRANCH  59  61
ATOM     61  C   UNL     1      31.319  41.774  49.090  1.00  0.00     0.034 C 
ATOM     62  C   UNL     1      31.374  40.234  49.176  1.00  0.00     0.015 C 
ATOM     63  C   UNL     1      31.672  42.003  47.557  1.00  0.00     0.058 CG0
ATOM     64  C   UNL     1      32.639  39.854  48.413  1.00  0.00     0.077 C 
ATOM     65  C   UNL     1      32.655  40.877  47.332  1.00  0.00     0.141 C 
ATOM     66  O   UNL     1      33.350  40.766  46.332  1.00  0.00    -0.299 OA
ATOM     67  C   UNL     1      30.455  41.756  46.631  1.00  0.00     0.023 C 
ATOM     68  G   UNL     1      32.336  43.375  47.160  1.00  0.00     0.000 G0
ENDBRANCH  59  61
ENDBRANCH  58  59
ENDBRANCH  53  58
ENDBRANCH  42  43
ENDBRANCH  38  42
ENDBRANCH   1  33
TORSDOF 13
ENDMDL
MODEL 6
REMARK VINA RESULT:    -8.315      8.160     17.915
REMARK INTER + INTRA:         -16.592
REMARK INTER:                 -15.252
REMARK INTRA:                  -1.339
REMARK UNBOUND:                -1.228
REMARK SMILES CO[C@@H]1C[C@H](O[C@@H]2[C@@H](C)O[C@@H](O[C@H]3[C@@H](O)C[C@H](O[C@H]4[C@H](O)C[C@H](O[C@H]5CC[C@@]6(C)[C@@H](CC[C@@]78O[C@@H](C)[C@@H]9CCC(=O)[C@]9(C)[C@@H](C[C@@H]76)O8)C5)O[C@@H]4C)O[C@@H]3C)C[C@H]2OC)O[C@H](C)[C@H]1O
REMARK SMILES IDX 18 1 17 2 13 3 14 4 53 5 16 6 52 7 54 8 12 9 11 10 7 11 8 12
REMARK SMILES IDX 56 13 10 14 55 15 9 16 6 17 5 18 3 19 4 20 62 21 60 22 59 23
REMARK SMILES IDX 61 24 2 25 1 26 63 27 57 29 58 30 15 31 19 33 20 34 50 35
REMARK SMILES IDX 22 36 49 37 23 38 51 39 21 40 24 42 25 43 26 44 48 45 27 46
REMARK SMILES IDX 30 47 28 48 31 49 46 50 32 51 45 52 33 53 44 54 47 55 29 56
REMARK SMILES IDX 34 58 35 59 36 60 37 61 38 62 42 63 39 64 40 65 41 66 43 67
REMARK H PARENT 63 28 15 32 21 41
REMARK Flexibility Score:  337.900
ROOT
ATOM      1  O   UNL     1      30.975  56.311  46.191  1.00  0.00    -0.344 OA
ENDROOT
BRANCH   1   2
ATOM      2  C   UNL     1      30.528  57.624  45.931  1.00  0.00     0.253 C 
ATOM      3  C   UNL     1      28.036  58.617  44.769  1.00  0.00     0.179 C 
ATOM      4  C   UNL     1      28.862  57.499  44.089  1.00  0.00     0.151 C 
ATOM      5  C   UNL     1      28.596  58.914  46.192  1.00  0.00     0.150 C 
ATOM      6  C   UNL     1      30.331  57.757  44.395  1.00  0.00     0.096 C 
ATOM      7  O   UNL     1      29.329  57.818  46.689  1.00  0.00    -0.347 OA
ATOM      8  C   UNL     1      27.482  59.282  47.170  1.00  0.00     0.041 C 
BRANCH   3   9
ATOM      9  O   UNL     1      28.171  59.821  44.023  1.00  0.00    -0.344 OA
BRANCH   9  10
ATOM     10  C   UNL     1      26.937  60.415  43.689  1.00  0.00     0.253 C 
ATOM     11  C   UNL     1      25.572  60.343  41.088  1.00  0.00     0.179 C 
ATOM     12  C   UNL     1      25.033  59.846  42.456  1.00  0.00     0.150 C 
ATOM     13  C   UNL     1      27.024  60.884  41.208  1.00  0.00     0.154 C 
ATOM     14  O   UNL     1      26.078  59.355  43.260  1.00  0.00    -0.347 OA
ATOM     15  C   UNL     1      27.198  61.497  42.594  1.00  0.00     0.097 C 
ATOM     16  C   UNL     1      23.977  58.761  42.257  1.00  0.00     0.041 C 
BRANCH  11  17
ATOM     17  O   UNL     1      24.679  61.364  40.650  1.00  0.00    -0.344 OA
BRANCH  17  18
ATOM     18  C   UNL     1      23.662  60.870  39.789  1.00  0.00     0.253 C 
ATOM     19  C   UNL     1      21.539  61.791  38.701  1.00  0.00     0.154 C 
ATOM     20  C   UNL     1      22.324  61.614  40.024  1.00  0.00     0.097 C 
ATOM     21  C   UNL     1      21.764  60.634  37.685  1.00  0.00     0.172 C 
ATOM     22  C   UNL     1      23.251  60.153  37.654  1.00  0.00     0.149 C 
ATOM     23  O   UNL     1      24.081  61.002  38.441  1.00  0.00    -0.347 OA
ATOM     24  C   UNL     1      23.821  60.010  36.244  1.00  0.00     0.041 C 
BRANCH  19  25
ATOM     25  O   UNL     1      21.987  63.003  38.096  1.00  0.00    -0.378 OA
ATOM     26  C   UNL     1      21.489  63.114  36.772  1.00  0.00     0.195 C 
ENDBRANCH  19  25
BRANCH  21  27
ATOM     27  O   UNL     1      20.912  59.545  37.934  1.00  0.00    -0.388 OA
ATOM     28  H   UNL     1      19.983  59.855  37.761  1.00  0.00     0.211 HD
ENDBRANCH  21  27
ENDBRANCH  17  18
ENDBRANCH  11  17
BRANCH  13  29
ATOM     29  O   UNL     1      27.948  59.809  41.075  1.00  0.00    -0.378 OA
ATOM     30  C   UNL     1      29.258  60.291  40.860  1.00  0.00     0.195 C 
ENDBRANCH  13  29
ENDBRANCH   9  10
ENDBRANCH   3   9
BRANCH   4  31
ATOM     31  O   UNL     1      28.589  57.420  42.711  1.00  0.00    -0.390 OA
ATOM     32  H   UNL     1      27.793  56.843  42.587  1.00  0.00     0.211 HD
ENDBRANCH   4  31
ENDBRANCH   1   2
BRANCH   1  33
ATOM     33  C   UNL     1      32.131  55.973  45.440  1.00  0.00     0.179 C 
ATOM     34  C   UNL     1      33.381  56.091  46.356  1.00  0.00     0.151 C 
ATOM     35  C   UNL     1      31.950  54.507  44.922  1.00  0.00     0.150 C 
ATOM     36  C   UNL     1      33.589  54.749  47.049  1.00  0.00     0.096 C 
ATOM     37  O   UNL     1      33.198  53.883  44.721  1.00  0.00    -0.347 OA
ATOM     38  C   UNL     1      33.900  53.686  45.958  1.00  0.00     0.253 C 
ATOM     39  C   UNL     1      31.116  54.445  43.641  1.00  0.00     0.041 C 
BRANCH  34  40
ATOM     40  O   UNL     1      34.551  56.458  45.658  1.00  0.00    -0.390 OA
ATOM     41  H   UNL     1      35.143  56.987  46.261  1.00  0.00     0.211 HD
ENDBRANCH  34  40
BRANCH  38  42
ATOM     42  O   UNL     1      35.284  53.748  45.667  1.00  0.00    -0.349 OA
BRANCH  42  43
ATOM     43  C   UNL     1      35.557  53.271  44.365  1.00  0.00     0.121 C 
ATOM     44  C   UNL     1      36.840  53.930  43.780  1.00  0.00     0.033 C 
ATOM     45  C   UNL     1      35.597  51.708  44.348  1.00  0.00     0.036 C 
ATOM     46  C   UNL     1      38.186  53.331  44.242  1.00  0.00     0.010 C 
ATOM     47  C   UNL     1      36.897  51.199  43.694  1.00  0.00    -0.002 C 
ATOM     48  C   UNL     1      38.153  51.768  44.441  1.00  0.00    -0.022 C 
ATOM     49  C   UNL     1      36.988  49.679  43.504  1.00  0.00     0.010 C 
ATOM     50  C   UNL     1      39.498  51.066  43.912  1.00  0.00     0.058 C 
ATOM     51  C   UNL     1      38.040  49.453  42.406  1.00  0.00     0.066 C 
ATOM     52  C   UNL     1      40.196  50.206  44.928  1.00  0.00     0.043 C 
ATOM     53  C   UNL     1      39.448  50.023  42.723  1.00  0.00     0.172 C 
ATOM     54  C   UNL     1      41.103  49.351  44.087  1.00  0.00     0.136 CG0
ATOM     55  O   UNL     1      40.273  48.904  43.060  1.00  0.00    -0.345 OA
ATOM     56  C   UNL     1      38.008  51.567  45.998  1.00  0.00     0.012 C 
ATOM     57  G   UNL     1      42.433  49.968  43.512  1.00  0.00     0.000 G0
BRANCH  53  58
ATOM     58  O   UNL     1      39.924  50.673  41.551  1.00  0.00    -0.346 OA
BRANCH  58  59
ATOM     59  C   UNL     1      41.239  50.310  41.148  1.00  0.00     0.123 C 
ATOM     60  C   UNL     1      41.408  50.903  39.741  1.00  0.00     0.039 C 
BRANCH  59  61
ATOM     61  C   UNL     1      42.330  50.836  42.170  1.00  0.00     0.034 C 
ATOM     62  C   UNL     1      43.748  50.677  41.581  1.00  0.00     0.015 C 
ATOM     63  C   UNL     1      42.457  49.975  43.500  1.00  0.00     0.058 CG0
ATOM     64  C   UNL     1      44.062  49.193  41.740  1.00  0.00     0.077 C 
ATOM     65  C   UNL     1      43.386  48.879  43.028  1.00  0.00     0.141 C 
ATOM     66  O   UNL     1      43.623  47.864  43.665  1.00  0.00    -0.299 OA
ATOM     67  C   UNL     1      43.180  50.747  44.633  1.00  0.00     0.023 C 
ATOM     68  G   UNL     1      41.140  49.339  44.084  1.00  0.00     0.000 G0
ENDBRANCH  59  61
ENDBRANCH  58  59
ENDBRANCH  53  58
ENDBRANCH  42  43
ENDBRANCH  38  42
ENDBRANCH   1  33
TORSDOF 13
ENDMDL
MODEL 7
REMARK VINA RESULT:    -8.306      7.513     17.785
REMARK INTER + INTRA:         -16.575
REMARK INTER:                 -14.973
REMARK INTRA:                  -1.602
REMARK UNBOUND:                -1.228
REMARK SMILES CO[C@@H]1C[C@H](O[C@@H]2[C@@H](C)O[C@@H](O[C@H]3[C@@H](O)C[C@H](O[C@H]4[C@H](O)C[C@H](O[C@H]5CC[C@@]6(C)[C@@H](CC[C@@]78O[C@@H](C)[C@@H]9CCC(=O)[C@]9(C)[C@@H](C[C@@H]76)O8)C5)O[C@@H]4C)O[C@@H]3C)C[C@H]2OC)O[C@H](C)[C@H]1O
REMARK SMILES IDX 18 1 17 2 13 3 14 4 53 5 16 6 52 7 54 8 12 9 11 10 7 11 8 12
REMARK SMILES IDX 56 13 10 14 55 15 9 16 6 17 5 18 3 19 4 20 62 21 60 22 59 23
REMARK SMILES IDX 61 24 2 25 1 26 63 27 57 29 58 30 15 31 19 33 20 34 50 35
REMARK SMILES IDX 22 36 49 37 23 38 51 39 21 40 24 42 25 43 26 44 48 45 27 46
REMARK SMILES IDX 30 47 28 48 31 49 46 50 32 51 45 52 33 53 44 54 47 55 29 56
REMARK SMILES IDX 34 58 35 59 36 60 37 61 38 62 42 63 39 64 40 65 41 66 43 67
REMARK H PARENT 63 28 15 32 21 41
REMARK Flexibility Score:  337.900
ROOT
ATOM      1  O   UNL     1      32.698  57.261  44.521  1.00  0.00    -0.344 OA
ENDROOT
BRANCH   1   2
ATOM      2  C   UNL     1      31.540  57.875  45.042  1.00  0.00     0.253 C 
ATOM      3  C   UNL     1      28.736  57.701  44.237  1.00  0.00     0.179 C 
ATOM      4  C   UNL     1      29.860  57.987  43.212  1.00  0.00     0.151 C 
ATOM      5  C   UNL     1      29.347  57.307  45.614  1.00  0.00     0.150 C 
ATOM      6  C   UNL     1      30.946  58.780  43.927  1.00  0.00     0.096 C 
ATOM      7  O   UNL     1      30.663  56.827  45.469  1.00  0.00    -0.347 OA
ATOM      8  C   UNL     1      28.489  56.266  46.333  1.00  0.00     0.041 C 
BRANCH   3   9
ATOM      9  O   UNL     1      27.984  58.889  44.452  1.00  0.00    -0.344 OA
BRANCH   9  10
ATOM     10  C   UNL     1      26.652  58.801  43.999  1.00  0.00     0.253 C 
ATOM     11  C   UNL     1      25.557  59.840  41.478  1.00  0.00     0.179 C 
ATOM     12  C   UNL     1      25.548  58.373  41.983  1.00  0.00     0.150 C 
ATOM     13  C   UNL     1      26.290  60.783  42.474  1.00  0.00     0.154 C 
ATOM     14  O   UNL     1      26.692  58.098  42.754  1.00  0.00    -0.347 OA
ATOM     15  C   UNL     1      26.079  60.249  43.888  1.00  0.00     0.097 C 
ATOM     16  C   UNL     1      25.469  57.401  40.808  1.00  0.00     0.041 C 
BRANCH  11  17
ATOM     17  O   UNL     1      24.193  60.221  41.322  1.00  0.00    -0.344 OA
BRANCH  17  18
ATOM     18  C   UNL     1      23.991  61.094  40.219  1.00  0.00     0.253 C 
ATOM     19  C   UNL     1      24.131  60.931  37.671  1.00  0.00     0.154 C 
ATOM     20  C   UNL     1      24.864  60.674  39.010  1.00  0.00     0.097 C 
ATOM     21  C   UNL     1      23.173  62.157  37.712  1.00  0.00     0.172 C 
ATOM     22  C   UNL     1      22.391  62.254  39.062  1.00  0.00     0.149 C 
ATOM     23  O   UNL     1      22.617  61.101  39.868  1.00  0.00    -0.347 OA
ATOM     24  C   UNL     1      20.894  62.497  38.889  1.00  0.00     0.041 C 
BRANCH  19  25
ATOM     25  O   UNL     1      23.352  59.772  37.379  1.00  0.00    -0.378 OA
ATOM     26  C   UNL     1      23.141  59.652  35.981  1.00  0.00     0.195 C 
ENDBRANCH  19  25
BRANCH  21  27
ATOM     27  O   UNL     1      23.852  63.361  37.462  1.00  0.00    -0.388 OA
ATOM     28  H   UNL     1      24.600  63.417  38.114  1.00  0.00     0.211 HD
ENDBRANCH  21  27
ENDBRANCH  17  18
ENDBRANCH  11  17
BRANCH  13  29
ATOM     29  O   UNL     1      27.687  60.778  42.198  1.00  0.00    -0.378 OA
ATOM     30  C   UNL     1      28.273  62.018  42.536  1.00  0.00     0.195 C 
ENDBRANCH  13  29
ENDBRANCH   9  10
ENDBRANCH   3   9
BRANCH   4  31
ATOM     31  O   UNL     1      29.363  58.636  42.067  1.00  0.00    -0.390 OA
ATOM     32  H   UNL     1      28.421  58.358  41.940  1.00  0.00     0.211 HD
ENDBRANCH   4  31
ENDBRANCH   1   2
BRANCH   1  33
ATOM     33  C   UNL     1      33.487  56.646  45.529  1.00  0.00     0.179 C 
ATOM     34  C   UNL     1      33.488  55.109  45.302  1.00  0.00     0.151 C 
ATOM     35  C   UNL     1      34.935  57.231  45.422  1.00  0.00     0.150 C 
ATOM     36  C   UNL     1      34.642  54.768  44.364  1.00  0.00     0.096 C 
ATOM     37  O   UNL     1      35.889  56.313  45.906  1.00  0.00    -0.347 OA
ATOM     38  C   UNL     1      35.970  55.142  45.079  1.00  0.00     0.253 C 
ATOM     39  C   UNL     1      35.073  58.570  46.149  1.00  0.00     0.041 C 
BRANCH  34  40
ATOM     40  O   UNL     1      33.607  54.369  46.497  1.00  0.00    -0.390 OA
ATOM     41  H   UNL     1      33.263  54.913  47.259  1.00  0.00     0.211 HD
ENDBRANCH  34  40
BRANCH  38  42
ATOM     42  O   UNL     1      36.336  54.063  45.918  1.00  0.00    -0.349 OA
BRANCH  42  43
ATOM     43  C   UNL     1      37.670  53.658  45.683  1.00  0.00     0.121 C 
ATOM     44  C   UNL     1      38.024  52.382  46.500  1.00  0.00     0.033 C 
ATOM     45  C   UNL     1      37.939  53.511  44.150  1.00  0.00     0.036 C 
ATOM     46  C   UNL     1      37.550  51.038  45.904  1.00  0.00     0.010 C 
ATOM     47  C   UNL     1      38.551  52.133  43.830  1.00  0.00    -0.002 C 
ATOM     48  C   UNL     1      37.614  50.981  44.331  1.00  0.00    -0.022 C 
ATOM     49  C   UNL     1      38.980  51.926  42.371  1.00  0.00     0.010 C 
ATOM     50  C   UNL     1      38.132  49.554  43.801  1.00  0.00     0.058 C 
ATOM     51  C   UNL     1      40.004  50.779  42.390  1.00  0.00     0.066 C 
ATOM     52  C   UNL     1      37.213  48.880  42.820  1.00  0.00     0.043 C 
ATOM     53  C   UNL     1      39.475  49.442  42.973  1.00  0.00     0.172 C 
ATOM     54  C   UNL     1      38.101  47.856  42.170  1.00  0.00     0.136 CG0
ATOM     55  O   UNL     1      39.255  48.571  41.859  1.00  0.00    -0.345 OA
ATOM     56  C   UNL     1      36.130  51.232  43.861  1.00  0.00     0.012 C 
ATOM     57  G   UNL     1      38.448  46.529  42.946  1.00  0.00     0.000 G0
BRANCH  53  58
ATOM     58  O   UNL     1      40.479  48.921  43.837  1.00  0.00    -0.346 OA
BRANCH  58  59
ATOM     59  C   UNL     1      40.825  47.560  43.613  1.00  0.00     0.123 C 
ATOM     60  C   UNL     1      42.088  47.322  44.454  1.00  0.00     0.039 C 
BRANCH  59  61
ATOM     61  C   UNL     1      39.638  46.584  43.998  1.00  0.00     0.034 C 
ATOM     62  C   UNL     1      40.119  45.117  43.996  1.00  0.00     0.015 C 
ATOM     63  C   UNL     1      38.465  46.517  42.927  1.00  0.00     0.058 CG0
ATOM     64  C   UNL     1      40.184  44.738  42.520  1.00  0.00     0.077 C 
ATOM     65  C   UNL     1      39.030  45.497  41.965  1.00  0.00     0.141 C 
ATOM     66  O   UNL     1      38.554  45.258  40.865  1.00  0.00    -0.299 OA
ATOM     67  C   UNL     1      37.160  45.929  43.521  1.00  0.00     0.023 C 
ATOM     68  G   UNL     1      38.113  47.841  42.150  1.00  0.00     0.000 G0
ENDBRANCH  59  61
ENDBRANCH  58  59
ENDBRANCH  53  58
ENDBRANCH  42  43
ENDBRANCH  38  42
ENDBRANCH   1  33
TORSDOF 13
ENDMDL
MODEL 8
REMARK VINA RESULT:    -8.146      5.234     17.620
REMARK INTER + INTRA:         -16.281
REMARK INTER:                 -15.983
REMARK INTRA:                  -0.298
REMARK UNBOUND:                -1.228
REMARK SMILES CO[C@@H]1C[C@H](O[C@@H]2[C@@H](C)O[C@@H](O[C@H]3[C@@H](O)C[C@H](O[C@H]4[C@H](O)C[C@H](O[C@H]5CC[C@@]6(C)[C@@H](CC[C@@]78O[C@@H](C)[C@@H]9CCC(=O)[C@]9(C)[C@@H](C[C@@H]76)O8)C5)O[C@@H]4C)O[C@@H]3C)C[C@H]2OC)O[C@H](C)[C@H]1O
REMARK SMILES IDX 18 1 17 2 13 3 14 4 53 5 16 6 52 7 54 8 12 9 11 10 7 11 8 12
REMARK SMILES IDX 56 13 10 14 55 15 9 16 6 17 5 18 3 19 4 20 62 21 60 22 59 23
REMARK SMILES IDX 61 24 2 25 1 26 63 27 57 29 58 30 15 31 19 33 20 34 50 35
REMARK SMILES IDX 22 36 49 37 23 38 51 39 21 40 24 42 25 43 26 44 48 45 27 46
REMARK SMILES IDX 30 47 28 48 31 49 46 50 32 51 45 52 33 53 44 54 47 55 29 56
REMARK SMILES IDX 34 58 35 59 36 60 37 61 38 62 42 63 39 64 40 65 41 66 43 67
REMARK H PARENT 63 28 15 32 21 41
REMARK Flexibility Score:  337.900
ROOT
ATOM      1  O   UNL     1      30.105  56.392  48.074  1.00  0.00    -0.344 OA
ENDROOT
BRANCH   1   2
ATOM      2  C   UNL     1      29.656  57.469  47.280  1.00  0.00     0.253 C 
ATOM      3  C   UNL     1      27.163  57.868  45.807  1.00  0.00     0.179 C 
ATOM      4  C   UNL     1      27.990  56.568  45.667  1.00  0.00     0.151 C 
ATOM      5  C   UNL     1      27.723  58.744  46.967  1.00  0.00     0.150 C 
ATOM      6  C   UNL     1      29.459  56.934  45.834  1.00  0.00     0.096 C 
ATOM      7  O   UNL     1      28.457  57.965  47.884  1.00  0.00    -0.347 OA
ATOM      8  C   UNL     1      26.607  59.493  47.695  1.00  0.00     0.041 C 
BRANCH   3   9
ATOM      9  O   UNL     1      27.296  58.639  44.618  1.00  0.00    -0.344 OA
BRANCH   9  10
ATOM     10  C   UNL     1      26.068  58.899  43.978  1.00  0.00     0.253 C 
ATOM     11  C   UNL     1      25.660  59.861  41.232  1.00  0.00     0.179 C 
ATOM     12  C   UNL     1      25.122  58.552  41.868  1.00  0.00     0.150 C 
ATOM     13  C   UNL     1      26.539  60.664  42.232  1.00  0.00     0.154 C 
ATOM     14  O   UNL     1      26.021  58.052  42.827  1.00  0.00    -0.347 OA
ATOM     15  C   UNL     1      26.007  60.424  43.642  1.00  0.00     0.097 C 
ATOM     16  C   UNL     1      24.868  57.497  40.794  1.00  0.00     0.041 C 
BRANCH  11  17
ATOM     17  O   UNL     1      24.518  60.615  40.833  1.00  0.00    -0.344 OA
BRANCH  17  18
ATOM     18  C   UNL     1      24.155  60.384  39.479  1.00  0.00     0.253 C 
ATOM     19  C   UNL     1      22.018  60.515  38.080  1.00  0.00     0.154 C 
ATOM     20  C   UNL     1      22.671  59.954  39.367  1.00  0.00     0.097 C 
ATOM     21  C   UNL     1      23.011  60.657  36.890  1.00  0.00     0.172 C 
ATOM     22  C   UNL     1      24.414  61.176  37.346  1.00  0.00     0.149 C 
ATOM     23  O   UNL     1      24.397  61.556  38.719  1.00  0.00    -0.347 OA
ATOM     24  C   UNL     1      24.958  62.313  36.485  1.00  0.00     0.041 C 
BRANCH  19  25
ATOM     25  O   UNL     1      21.511  61.812  38.388  1.00  0.00    -0.378 OA
ATOM     26  C   UNL     1      20.926  62.405  37.239  1.00  0.00     0.195 C 
ENDBRANCH  19  25
BRANCH  21  27
ATOM     27  O   UNL     1      23.152  59.453  36.179  1.00  0.00    -0.388 OA
ATOM     28  H   UNL     1      22.866  58.719  36.786  1.00  0.00     0.211 HD
ENDBRANCH  21  27
ENDBRANCH  17  18
ENDBRANCH  11  17
BRANCH  13  29
ATOM     29  O   UNL     1      27.882  60.194  42.173  1.00  0.00    -0.378 OA
ATOM     30  C   UNL     1      28.462  60.478  40.917  1.00  0.00     0.195 C 
ENDBRANCH  13  29
ENDBRANCH   9  10
ENDBRANCH   3   9
BRANCH   4  31
ATOM     31  O   UNL     1      27.718  55.909  44.455  1.00  0.00    -0.390 OA
ATOM     32  H   UNL     1      28.113  55.002  44.501  1.00  0.00     0.211 HD
ENDBRANCH   4  31
ENDBRANCH   1   2
BRANCH   1  33
ATOM     33  C   UNL     1      29.691  55.133  47.566  1.00  0.00     0.179 C 
ATOM     34  C   UNL     1      30.936  54.369  47.035  1.00  0.00     0.151 C 
ATOM     35  C   UNL     1      29.007  54.349  48.736  1.00  0.00     0.150 C 
ATOM     36  C   UNL     1      31.530  53.570  48.191  1.00  0.00     0.096 C 
ATOM     37  O   UNL     1      29.118  52.957  48.545  1.00  0.00    -0.347 OA
ATOM     38  C   UNL     1      30.480  52.513  48.635  1.00  0.00     0.253 C 
ATOM     39  C   UNL     1      27.540  54.744  48.915  1.00  0.00     0.041 C 
BRANCH  34  40
ATOM     40  O   UNL     1      30.644  53.508  45.956  1.00  0.00    -0.390 OA
ATOM     41  H   UNL     1      29.656  53.409  45.871  1.00  0.00     0.211 HD
ENDBRANCH  34  40
BRANCH  38  42
ATOM     42  O   UNL     1      30.608  51.384  47.791  1.00  0.00    -0.349 OA
BRANCH  42  43
ATOM     43  C   UNL     1      29.501  50.516  47.922  1.00  0.00     0.121 C 
ATOM     44  C   UNL     1      29.443  49.496  46.748  1.00  0.00     0.033 C 
ATOM     45  C   UNL     1      29.493  49.843  49.333  1.00  0.00     0.036 C 
ATOM     46  C   UNL     1      30.372  48.268  46.865  1.00  0.00     0.010 C 
ATOM     47  C   UNL     1      29.370  48.311  49.210  1.00  0.00    -0.002 C 
ATOM     48  C   UNL     1      30.536  47.731  48.337  1.00  0.00    -0.022 C 
ATOM     49  C   UNL     1      29.220  47.554  50.536  1.00  0.00     0.010 C 
ATOM     50  C   UNL     1      30.545  46.125  48.394  1.00  0.00     0.058 C 
ATOM     51  C   UNL     1      28.595  46.196  50.179  1.00  0.00     0.066 C 
ATOM     52  C   UNL     1      31.745  45.530  49.078  1.00  0.00     0.043 C 
ATOM     53  C   UNL     1      29.419  45.340  49.181  1.00  0.00     0.172 C 
ATOM     54  C   UNL     1      31.300  44.128  49.389  1.00  0.00     0.136 CG0
ATOM     55  O   UNL     1      30.036  44.301  49.948  1.00  0.00    -0.345 OA
ATOM     56  C   UNL     1      31.925  48.303  48.819  1.00  0.00     0.012 C 
ATOM     57  G   UNL     1      31.269  43.053  48.239  1.00  0.00     0.000 G0
BRANCH  53  58
ATOM     58  O   UNL     1      28.514  44.800  48.226  1.00  0.00    -0.346 OA
BRANCH  58  59
ATOM     59  C   UNL     1      28.650  43.405  47.982  1.00  0.00     0.123 C 
ATOM     60  C   UNL     1      27.430  43.024  47.131  1.00  0.00     0.039 C 
BRANCH  59  61
ATOM     61  C   UNL     1      30.025  43.067  47.270  1.00  0.00     0.034 C 
ATOM     62  C   UNL     1      30.035  41.606  46.775  1.00  0.00     0.015 C 
ATOM     63  C   UNL     1      31.286  43.066  48.238  1.00  0.00     0.058 CG0
ATOM     64  C   UNL     1      30.281  40.778  48.031  1.00  0.00     0.077 C 
ATOM     65  C   UNL     1      31.198  41.664  48.799  1.00  0.00     0.141 C 
ATOM     66  O   UNL     1      31.862  41.263  49.744  1.00  0.00    -0.299 OA
ATOM     67  C   UNL     1      32.622  43.178  47.463  1.00  0.00     0.023 C 
ATOM     68  G   UNL     1      31.299  44.109  49.418  1.00  0.00     0.000 G0
ENDBRANCH  59  61
ENDBRANCH  58  59
ENDBRANCH  53  58
ENDBRANCH  42  43
ENDBRANCH  38  42
ENDBRANCH   1  33
TORSDOF 13
ENDMDL
MODEL 9
REMARK VINA RESULT:    -7.959      7.045     16.892
REMARK INTER + INTRA:         -15.935
REMARK INTER:                 -14.987
REMARK INTRA:                  -0.948
REMARK UNBOUND:                -1.228
REMARK SMILES CO[C@@H]1C[C@H](O[C@@H]2[C@@H](C)O[C@@H](O[C@H]3[C@@H](O)C[C@H](O[C@H]4[C@H](O)C[C@H](O[C@H]5CC[C@@]6(C)[C@@H](CC[C@@]78O[C@@H](C)[C@@H]9CCC(=O)[C@]9(C)[C@@H](C[C@@H]76)O8)C5)O[C@@H]4C)O[C@@H]3C)C[C@H]2OC)O[C@H](C)[C@H]1O
REMARK SMILES IDX 18 1 17 2 13 3 14 4 53 5 16 6 52 7 54 8 12 9 11 10 7 11 8 12
REMARK SMILES IDX 56 13 10 14 55 15 9 16 6 17 5 18 3 19 4 20 62 21 60 22 59 23
REMARK SMILES IDX 61 24 2 25 1 26 63 27 57 29 58 30 15 31 19 33 20 34 50 35
REMARK SMILES IDX 22 36 49 37 23 38 51 39 21 40 24 42 25 43 26 44 48 45 27 46
REMARK SMILES IDX 30 47 28 48 31 49 46 50 32 51 45 52 33 53 44 54 47 55 29 56
REMARK SMILES IDX 34 58 35 59 36 60 37 61 38 62 42 63 39 64 40 65 41 66 43 67
REMARK H PARENT 63 28 15 32 21 41
REMARK Flexibility Score:  337.900
ROOT
ATOM      1  O   UNL     1      32.860  57.828  44.035  1.00  0.00    -0.344 OA
ENDROOT
BRANCH   1   2
ATOM      2  C   UNL     1      31.679  58.372  44.583  1.00  0.00     0.253 C 
ATOM      3  C   UNL     1      28.881  58.107  43.780  1.00  0.00     0.179 C 
ATOM      4  C   UNL     1      29.986  58.481  42.764  1.00  0.00     0.151 C 
ATOM      5  C   UNL     1      29.515  57.687  45.139  1.00  0.00     0.150 C 
ATOM      6  C   UNL     1      31.041  59.292  43.505  1.00  0.00     0.096 C 
ATOM      7  O   UNL     1      30.850  57.271  44.971  1.00  0.00    -0.347 OA
ATOM      8  C   UNL     1      28.706  56.583  45.820  1.00  0.00     0.041 C 
BRANCH   3   9
ATOM      9  O   UNL     1      28.079  59.253  44.044  1.00  0.00    -0.344 OA
BRANCH   9  10
ATOM     10  C   UNL     1      26.727  59.086  43.682  1.00  0.00     0.253 C 
ATOM     11  C   UNL     1      25.418  60.000  41.215  1.00  0.00     0.179 C 
ATOM     12  C   UNL     1      25.516  58.549  41.755  1.00  0.00     0.150 C 
ATOM     13  C   UNL     1      26.166  61.005  42.136  1.00  0.00     0.154 C 
ATOM     14  O   UNL     1      26.721  58.352  42.456  1.00  0.00    -0.347 OA
ATOM     15  C   UNL     1      26.075  60.502  43.574  1.00  0.00     0.097 C 
ATOM     16  C   UNL     1      25.410  57.541  40.613  1.00  0.00     0.041 C 
BRANCH  11  17
ATOM     17  O   UNL     1      24.029  60.310  41.141  1.00  0.00    -0.344 OA
BRANCH  17  18
ATOM     18  C   UNL     1      23.511  60.189  39.823  1.00  0.00     0.253 C 
ATOM     19  C   UNL     1      21.392  60.908  38.586  1.00  0.00     0.154 C 
ATOM     20  C   UNL     1      21.963  60.187  39.832  1.00  0.00     0.097 C 
ATOM     21  C   UNL     1      22.289  60.769  37.323  1.00  0.00     0.172 C 
ATOM     22  C   UNL     1      23.812  60.879  37.660  1.00  0.00     0.149 C 
ATOM     23  O   UNL     1      24.008  61.248  39.022  1.00  0.00    -0.347 OA
ATOM     24  C   UNL     1      24.579  61.821  36.737  1.00  0.00     0.041 C 
BRANCH  19  25
ATOM     25  O   UNL     1      21.289  62.295  38.904  1.00  0.00    -0.378 OA
ATOM     26  C   UNL     1      21.016  63.055  37.738  1.00  0.00     0.195 C 
ENDBRANCH  19  25
BRANCH  21  27
ATOM     27  O   UNL     1      22.035  59.574  36.629  1.00  0.00    -0.388 OA
ATOM     28  H   UNL     1      22.746  58.929  36.887  1.00  0.00     0.211 HD
ENDBRANCH  21  27
ENDBRANCH  17  18
ENDBRANCH  11  17
BRANCH  13  29
ATOM     29  O   UNL     1      27.540  61.061  41.768  1.00  0.00    -0.378 OA
ATOM     30  C   UNL     1      28.186  62.155  42.386  1.00  0.00     0.195 C 
ENDBRANCH  13  29
ENDBRANCH   9  10
ENDBRANCH   3   9
BRANCH   4  31
ATOM     31  O   UNL     1      29.457  59.151  41.646  1.00  0.00    -0.390 OA
ATOM     32  H   UNL     1      29.871  58.768  40.832  1.00  0.00     0.211 HD
ENDBRANCH   4  31
ENDBRANCH   1   2
BRANCH   1  33
ATOM     33  C   UNL     1      34.031  58.348  44.646  1.00  0.00     0.179 C 
ATOM     34  C   UNL     1      33.617  59.310  45.794  1.00  0.00     0.151 C 
ATOM     35  C   UNL     1      34.857  57.137  45.197  1.00  0.00     0.150 C 
ATOM     36  C   UNL     1      33.464  58.487  47.070  1.00  0.00     0.096 C 
ATOM     37  O   UNL     1      35.653  57.525  46.294  1.00  0.00    -0.347 OA
ATOM     38  C   UNL     1      34.854  57.893  47.429  1.00  0.00     0.253 C 
ATOM     39  C   UNL     1      35.724  56.490  44.116  1.00  0.00     0.041 C 
BRANCH  34  40
ATOM     40  O   UNL     1      34.539  60.356  46.005  1.00  0.00    -0.390 OA
ATOM     41  H   UNL     1      35.429  59.970  46.238  1.00  0.00     0.211 HD
ENDBRANCH  34  40
BRANCH  38  42
ATOM     42  O   UNL     1      35.579  58.873  48.149  1.00  0.00    -0.349 OA
BRANCH  42  43
ATOM     43  C   UNL     1      36.046  58.363  49.382  1.00  0.00     0.121 C 
ATOM     44  C   UNL     1      36.172  59.492  50.446  1.00  0.00     0.033 C 
ATOM     45  C   UNL     1      35.164  57.161  49.851  1.00  0.00     0.036 C 
ATOM     46  C   UNL     1      34.865  59.909  51.156  1.00  0.00     0.010 C 
ATOM     47  C   UNL     1      34.675  57.370  51.298  1.00  0.00    -0.002 C 
ATOM     48  C   UNL     1      33.876  58.712  51.425  1.00  0.00    -0.022 C 
ATOM     49  C   UNL     1      33.909  56.190  51.911  1.00  0.00     0.010 C 
ATOM     50  C   UNL     1      33.174  58.824  52.866  1.00  0.00     0.058 C 
ATOM     51  C   UNL     1      33.996  56.375  53.435  1.00  0.00     0.066 C 
ATOM     52  C   UNL     1      31.671  58.787  52.834  1.00  0.00     0.043 C 
ATOM     53  C   UNL     1      33.409  57.710  53.965  1.00  0.00     0.172 C 
ATOM     54  C   UNL     1      31.308  58.454  54.254  1.00  0.00     0.136 CG0
ATOM     55  O   UNL     1      32.151  57.391  54.569  1.00  0.00    -0.345 OA
ATOM     56  C   UNL     1      32.796  58.823  50.281  1.00  0.00     0.012 C 
ATOM     57  G   UNL     1      31.380  59.579  55.355  1.00  0.00     0.000 G0
BRANCH  53  58
ATOM     58  O   UNL     1      34.319  58.230  54.926  1.00  0.00    -0.346 OA
BRANCH  58  59
ATOM     59  C   UNL     1      33.740  58.602  56.171  1.00  0.00     0.123 C 
ATOM     60  C   UNL     1      34.929  58.843  57.113  1.00  0.00     0.039 C 
BRANCH  59  61
ATOM     61  C   UNL     1      32.806  59.874  56.025  1.00  0.00     0.034 C 
ATOM     62  C   UNL     1      32.392  60.406  57.413  1.00  0.00     0.015 C 
ATOM     63  C   UNL     1      31.384  59.577  55.380  1.00  0.00     0.058 CG0
ATOM     64  C   UNL     1      31.305  59.445  57.883  1.00  0.00     0.077 C 
ATOM     65  C   UNL     1      30.619  59.120  56.602  1.00  0.00     0.141 C 
ATOM     66  O   UNL     1      29.514  58.599  56.561  1.00  0.00    -0.299 OA
ATOM     67  C   UNL     1      30.699  60.862  54.851  1.00  0.00     0.023 C 
ATOM     68  G   UNL     1      31.308  58.470  54.262  1.00  0.00     0.000 G0
ENDBRANCH  59  61
ENDBRANCH  58  59
ENDBRANCH  53  58
ENDBRANCH  42  43
ENDBRANCH  38  42
ENDBRANCH   1  33
TORSDOF 13
ENDMDL
