REMARK  Name = 
REMARK  11 active torsions:
REMARK  status: ('A' for Active; 'I' for Inactive)
REMARK    1  A    between atoms: C_1  and  C_2
REMARK    2  A    between atoms: C_7  and  O_8
REMARK    3  A    between atoms: C_15  and  C_16
REMARK    4  A    between atoms: C_15  and  C_17
REMARK    5  A    between atoms: C_24  and  O_25
REMARK    6  A    between atoms: C_30  and  C_31
REMARK    7  A    between atoms: C_31  and  C_32
REMARK    8  A    between atoms: C_32  and  C_33
REMARK    9  A    between atoms: C_38  and  C_39
REMARK   10  A    between atoms: C_44  and  C_45
REMARK   11  A    between atoms: C_45  and  N_46
REMARK                            x       y       z     vdW  Elec       q    Type
REMARK                         _______ _______ _______ _____ _____    ______ ____
ROOT
ATOM      1  C   UNL     1      32.289  58.892  55.625  0.00  0.00    +0.000 C 
ATOM      2  C   UNL     1      31.430  59.017  54.407  0.00  0.00    +0.000 A 
ATOM      3  C   UNL     1      30.044  59.128  54.509  0.00  0.00    +0.000 A 
ATOM      4  C   UNL     1      29.277  59.246  53.349  0.00  0.00    +0.000 A 
ATOM      5  O   UNL     1      28.073  59.343  53.478  0.00  0.00    +0.000 OA
ATOM      6  C   UNL     1      29.911  59.253  52.073  0.00  0.00    +0.000 A 
ATOM      7  C   UNL     1      29.234  59.374  50.811  0.00  0.00    +0.000 A 
ATOM      8  C   UNL     1      29.990  59.379  49.599  0.00  0.00    +0.000 A 
ATOM      9  C   UNL     1      31.396  59.208  49.667  0.00  0.00    +0.000 A 
ATOM     10  C   UNL     1      32.041  59.106  50.889  0.00  0.00    +0.000 A 
ATOM     11  C   UNL     1      31.326  59.132  52.077  0.00  0.00    +0.000 A 
ATOM     12  O   UNL     1      32.006  59.021  53.214  0.00  0.00    +0.000 OA
ATOM     13  O   UNL     1      32.151  59.083  48.539  0.00  0.00    +0.000 OA
ATOM     14  C   UNL     1      31.671  58.766  47.270  0.00  0.00    +0.000 C 
ATOM     15  C   UNL     1      32.415  57.519  46.765  0.00  0.00    +0.000 C 
ATOM     16  C   UNL     1      31.993  59.943  46.324  0.00  0.00    +0.000 C 
ATOM     17  C   UNL     1      30.144  58.455  47.329  0.00  0.00    +0.000 C 
ATOM     18  O   UNL     1      29.594  58.354  46.067  0.00  0.00    +0.000 OA
ATOM     19  C   UNL     1      28.893  57.284  45.622  0.00  0.00    +0.000 C 
ATOM     20  O   UNL     1      29.234  56.147  45.913  0.00  0.00    +0.000 OA
ATOM     21  C   UNL     1      27.626  57.504  44.840  0.00  0.00    +0.000 C 
ATOM     22  C   UNL     1      26.353  58.001  45.596  0.00  0.00    +0.000 C 
ATOM     23  C   UNL     1      26.238  59.521  45.919  0.00  0.00    +0.000 C 
ATOM     24  C   UNL     1      27.493  60.137  46.568  0.00  0.00    +0.000 C 
ATOM     25  C   UNL     1      27.885  59.508  47.941  0.00  0.00    +0.000 C 
ATOM     26  C   UNL     1      29.428  59.551  48.174  0.00  0.00    +0.000 C 
ATOM     27  O   UNL     1      27.911  58.268  43.680  0.00  0.00    +0.000 OA
ATOM     28  C   UNL     1      27.574  56.927  43.465  0.00  0.00    +0.000 C 
ENDROOT
BRANCH   7  29
ATOM     29  O   UNL     1      27.893  59.490  50.724  0.00  0.00    +0.000 OA
ATOM     30  H   UNL     1      27.308  60.066  51.222  0.00  0.00    +0.000 HD
ENDBRANCH   7  29
BRANCH  23  31
ATOM     31  O   UNL     1      25.887  60.237  44.759  0.00  0.00    +0.000 OA
ATOM     32  H   UNL     1      24.994  59.936  44.454  0.00  0.00    +0.000 HD
ENDBRANCH  23  31
BRANCH  28  33
ATOM     33  C   UNL     1      26.275  56.831  42.668  0.00  0.00    +0.000 C 
BRANCH  33  34
ATOM     34  C   UNL     1      26.521  57.235  41.215  0.00  0.00    +0.000 C 
BRANCH  34  35
ATOM     35  C   UNL     1      25.972  58.612  40.959  0.00  0.00    +0.000 A 
ATOM     36  C   UNL     1      26.615  59.749  41.466  0.00  0.00    +0.000 A 
ATOM     37  C   UNL     1      26.085  61.013  41.198  0.00  0.00    +0.000 A 
ATOM     38  N   UNL     1      26.712  62.177  41.701  0.00  0.00    +0.000 N 
ATOM     39  N   UNL     1      24.962  61.126  40.440  0.00  0.00    +0.000 NA
ATOM     40  C   UNL     1      24.307  60.048  39.917  0.00  0.00    +0.000 A 
ATOM     41  C   UNL     1      24.812  58.763  40.187  0.00  0.00    +0.000 A 
ATOM     42  H   UNL     1      27.565  62.112  42.275  0.00  0.00    +0.000 HD
ATOM     43  H   UNL     1      26.318  63.107  41.496  0.00  0.00    +0.000 HD
BRANCH  40  44
ATOM     44  C   UNL     1      23.094  60.273  39.069  0.00  0.00    +0.000 A 
ATOM     45  C   UNL     1      21.836  60.391  39.690  0.00  0.00    +0.000 A 
ATOM     46  C   UNL     1      20.688  60.596  38.918  0.00  0.00    +0.000 A 
ATOM     47  N   UNL     1      19.421  60.718  39.533  0.00  0.00    +0.000 N 
ATOM     48  N   UNL     1      20.788  60.686  37.570  0.00  0.00    +0.000 NA
ATOM     49  C   UNL     1      21.980  60.599  36.922  0.00  0.00    +0.000 A 
ATOM     50  C   UNL     1      23.153  60.387  37.662  0.00  0.00    +0.000 A 
ATOM     51  H   UNL     1      19.322  60.661  40.558  0.00  0.00    +0.000 HD
ATOM     52  H   UNL     1      18.580  60.877  38.960  0.00  0.00    +0.000 HD
BRANCH  49  53
ATOM     53  C   UNL     1      22.000  60.732  35.422  0.00  0.00    +0.000 C 
BRANCH  53  54
ATOM     54  N   UNL     1      21.118  61.810  34.966  0.00  0.00    +0.000 N 
ATOM     55  C   UNL     1      19.925  61.691  34.305  0.00  0.00    +0.000 A 
ATOM     56  C   UNL     1      19.454  62.964  34.080  0.00  0.00    +0.000 A 
ATOM     57  C   UNL     1      18.422  63.687  33.531  0.00  0.00    +0.000 A 
ATOM     58  C   UNL     1      18.783  65.026  33.761  0.00  0.00    +0.000 A 
ATOM     59  N   UNL     1      19.971  65.095  34.419  0.00  0.00    +0.000 N 
ATOM     60  C   UNL     1      20.327  63.817  34.586  0.00  0.00    +0.000 A 
ATOM     61  C   UNL     1      21.370  63.137  35.148  0.00  0.00    +0.000 A 
ATOM     62  H   UNL     1      20.488  65.949  34.723  0.00  0.00    +0.000 HD
ENDBRANCH  53  54
ENDBRANCH  49  53
ENDBRANCH  40  44
ENDBRANCH  34  35
ENDBRANCH  33  34
ENDBRANCH  28  33
TORSDOF 8
