MODEL 1
REMARK VINA RESULT:   -13.325      0.000      0.000
REMARK INTER + INTRA:         -21.090
REMARK INTER:                 -19.557
REMARK INTRA:                  -1.533
REMARK UNBOUND:                -1.533
REMARK SMILES C[C@@H]1CC[C@@]2(NC1)O[C@H]1C[C@H]3[C@@H]4CC=C5C[C@@H](O[C@@H]6O[C@H](CO)[C@@H](O[C@@H]7O[C@@H](C)[C@H](O)[C@@H](O)[C@H]7O)[C@H](O)[C@H]6O)CC[C@]5(C)[C@H]4CC[C@]3(C)[C@H]1[C@@H]2C
REMARK SMILES IDX 19 1 20 2 21 3 24 4 36 5 38 6 18 7 17 8 2 9 3 10 7 11 4 12
REMARK SMILES IDX 6 13 5 14 8 15 50 16 9 17 49 18 10 19 47 20 11 21 46 22
REMARK SMILES IDX 12 23 45 24 13 25 44 26 14 27 42 28 15 29 41 30 16 31 40 32
REMARK SMILES IDX 1 33 51 35 48 36 43 37 39 38 22 40 23 41 37 43 25 45 26 46
REMARK SMILES IDX 27 47 34 48 28 49 32 50 30 51 29 52 35 53 33 55 31 57
REMARK H PARENT 6 34 39 39 23 42 37 44 35 54 33 56 31 58
ROOT
ATOM      1  C   UNL     1      23.817  60.074  39.441  1.00  0.00     0.282 C 
ATOM      2  O   UNL     1      23.908  60.517  38.087  1.00  0.00    -0.341 OA
ATOM      3  C   UNL     1      23.566  61.892  37.886  1.00  0.00     0.178 C 
ATOM      4  C   UNL     1      22.190  62.288  38.489  1.00  0.00     0.184 C 
ATOM      5  C   UNL     1      22.057  61.819  39.950  1.00  0.00     0.180 C 
ATOM      6  C   UNL     1      22.404  60.325  40.036  1.00  0.00     0.202 C 
ENDROOT
BRANCH   1   7
ATOM      7  O   UNL     1      24.831  60.688  40.238  1.00  0.00    -0.346 OA
BRANCH   7   8
ATOM      8  C   UNL     1      26.122  60.090  40.114  1.00  0.00     0.125 C 
ATOM      9  C   UNL     1      30.066  52.048  50.308  1.00  0.00    -0.000 C 
ATOM     10  C   UNL     1      28.630  52.538  50.648  1.00  0.00     0.009 C 
ATOM     11  C   UNL     1      31.002  53.232  49.986  1.00  0.00     0.087 C 
ATOM     12  C   UNL     1      28.463  54.048  50.441  1.00  0.00     0.053 C 
ATOM     13  N   UNL     1      30.452  54.051  48.892  1.00  0.00    -0.289 NA
ATOM     14  C   UNL     1      29.026  54.476  49.060  1.00  0.00     0.122 C 
ATOM     15  O   UNL     1      28.263  53.876  48.021  1.00  0.00    -0.357 OA
ATOM     16  C   UNL     1      28.803  55.994  48.854  1.00  0.00     0.039 C 
ATOM     17  C   UNL     1      28.531  54.676  46.884  1.00  0.00     0.125 C 
ATOM     18  C   UNL     1      28.859  56.109  47.339  1.00  0.00     0.031 C 
ATOM     19  C   UNL     1      27.391  54.788  45.856  1.00  0.00     0.037 C 
ATOM     20  C   UNL     1      27.852  57.025  46.571  1.00  0.00    -0.024 C 
ATOM     21  C   UNL     1      27.666  56.186  45.290  1.00  0.00     0.002 C 
ATOM     22  C   UNL     1      28.423  58.397  46.162  1.00  0.00     0.008 C 
ATOM     23  C   UNL     1      26.670  56.825  44.295  1.00  0.00     0.000 C 
ATOM     24  C   UNL     1      27.461  59.121  45.190  1.00  0.00     0.005 C 
ATOM     25  C   UNL     1      26.504  55.944  43.040  1.00  0.00     0.031 C 
ATOM     26  C   UNL     1      27.152  58.273  43.907  1.00  0.00     0.003 C 
ATOM     27  C   UNL     1      26.135  56.683  41.774  1.00  0.00    -0.027 C 
ATOM     28  C   UNL     1      26.076  58.921  42.933  1.00  0.00    -0.008 C 
ATOM     29  C   UNL     1      26.001  58.028  41.675  1.00  0.00    -0.065 C 
ATOM     30  C   UNL     1      26.397  60.420  42.570  1.00  0.00     0.014 C 
ATOM     31  C   UNL     1      26.017  58.567  40.247  1.00  0.00     0.063 C 
ATOM     32  C   UNL     1      27.061  60.628  41.209  1.00  0.00     0.033 C 
ATOM     33  C   UNL     1      30.036  51.057  49.132  1.00  0.00     0.009 C 
ATOM     34  H   UNL     1      31.106  54.832  48.666  1.00  0.00     0.125 HD
ATOM     35  C   UNL     1      29.698  56.988  49.605  1.00  0.00     0.012 C 
ATOM     36  C   UNL     1      26.517  57.238  47.378  1.00  0.00     0.012 C 
ATOM     37  C   UNL     1      24.652  58.929  43.572  1.00  0.00     0.016 C 
ENDBRANCH   7   8
ENDBRANCH   1   7
BRANCH   6  38
ATOM     38  O   UNL     1      21.414  59.551  39.391  1.00  0.00    -0.385 OA
ATOM     39  H   UNL     1      20.554  59.630  39.878  1.00  0.00     0.211 HD
ENDBRANCH   6  38
BRANCH   3  40
ATOM     40  C   UNL     1      24.703  62.859  38.276  1.00  0.00     0.191 C 
BRANCH  40  41
ATOM     41  O   UNL     1      25.920  62.441  37.723  1.00  0.00    -0.394 OA
ATOM     42  H   UNL     1      26.634  62.764  38.330  1.00  0.00     0.210 HD
ENDBRANCH  40  41
ENDBRANCH   3  40
BRANCH   5  43
ATOM     43  O   UNL     1      22.920  62.546  40.787  1.00  0.00    -0.387 OA
ATOM     44  H   UNL     1      22.357  63.189  41.292  1.00  0.00     0.211 HD
ENDBRANCH   5  43
BRANCH   4  45
ATOM     45  O   UNL     1      21.152  61.699  37.709  1.00  0.00    -0.341 OA
BRANCH  45  46
ATOM     46  C   UNL     1      21.087  62.220  36.385  1.00  0.00     0.282 C 
ATOM     47  O   UNL     1      19.962  63.097  36.310  1.00  0.00    -0.344 OA
ATOM     48  C   UNL     1      20.935  61.041  35.399  1.00  0.00     0.202 C 
ATOM     49  C   UNL     1      19.445  63.334  34.990  1.00  0.00     0.150 C 
ATOM     50  C   UNL     1      20.916  61.541  33.933  1.00  0.00     0.179 C 
ATOM     51  C   UNL     1      20.463  63.017  33.864  1.00  0.00     0.174 C 
ATOM     52  C   UNL     1      19.021  64.804  34.914  1.00  0.00     0.041 C 
BRANCH  48  53
ATOM     53  O   UNL     1      21.881  60.017  35.586  1.00  0.00    -0.385 OA
ATOM     54  H   UNL     1      22.345  59.872  34.723  1.00  0.00     0.211 HD
ENDBRANCH  48  53
BRANCH  50  55
ATOM     55  O   UNL     1      22.161  61.401  33.293  1.00  0.00    -0.387 OA
ATOM     56  H   UNL     1      22.124  61.908  32.440  1.00  0.00     0.211 HD
ENDBRANCH  50  55
BRANCH  51  57
ATOM     57  O   UNL     1      19.990  63.334  32.580  1.00  0.00    -0.388 OA
ATOM     58  H   UNL     1      19.127  63.811  32.694  1.00  0.00     0.211 HD
ENDBRANCH  51  57
ENDBRANCH  45  46
ENDBRANCH   4  45
TORSDOF 11
ENDMDL
MODEL 2
REMARK VINA RESULT:   -13.302      1.514      2.088
REMARK INTER + INTRA:         -21.055
REMARK INTER:                 -19.366
REMARK INTRA:                  -1.689
REMARK UNBOUND:                -1.533
REMARK SMILES C[C@@H]1CC[C@@]2(NC1)O[C@H]1C[C@H]3[C@@H]4CC=C5C[C@@H](O[C@@H]6O[C@H](CO)[C@@H](O[C@@H]7O[C@@H](C)[C@H](O)[C@@H](O)[C@H]7O)[C@H](O)[C@H]6O)CC[C@]5(C)[C@H]4CC[C@]3(C)[C@H]1[C@@H]2C
REMARK SMILES IDX 19 1 20 2 21 3 24 4 36 5 38 6 18 7 17 8 2 9 3 10 7 11 4 12
REMARK SMILES IDX 6 13 5 14 8 15 50 16 9 17 49 18 10 19 47 20 11 21 46 22
REMARK SMILES IDX 12 23 45 24 13 25 44 26 14 27 42 28 15 29 41 30 16 31 40 32
REMARK SMILES IDX 1 33 51 35 48 36 43 37 39 38 22 40 23 41 37 43 25 45 26 46
REMARK SMILES IDX 27 47 34 48 28 49 32 50 30 51 29 52 35 53 33 55 31 57
REMARK H PARENT 6 34 39 39 23 42 37 44 35 54 33 56 31 58
ROOT
ATOM      1  C   UNL     1      23.678  59.907  39.256  1.00  0.00     0.282 C 
ATOM      2  O   UNL     1      23.771  60.422  37.927  1.00  0.00    -0.341 OA
ATOM      3  C   UNL     1      23.550  61.831  37.817  1.00  0.00     0.178 C 
ATOM      4  C   UNL     1      22.232  62.311  38.487  1.00  0.00     0.184 C 
ATOM      5  C   UNL     1      22.097  61.768  39.922  1.00  0.00     0.180 C 
ATOM      6  C   UNL     1      22.310  60.247  39.910  1.00  0.00     0.202 C 
ENDROOT
BRANCH   1   7
ATOM      7  O   UNL     1      24.765  60.381  40.053  1.00  0.00    -0.346 OA
BRANCH   7   8
ATOM      8  C   UNL     1      25.933  59.561  40.004  1.00  0.00     0.125 C 
ATOM      9  C   UNL     1      31.326  55.991  51.934  1.00  0.00    -0.000 C 
ATOM     10  C   UNL     1      30.056  56.832  52.245  1.00  0.00     0.009 C 
ATOM     11  C   UNL     1      32.270  56.735  50.966  1.00  0.00     0.087 C 
ATOM     12  C   UNL     1      29.987  58.117  51.411  1.00  0.00     0.053 C 
ATOM     13  N   UNL     1      31.564  57.103  49.725  1.00  0.00    -0.289 NA
ATOM     14  C   UNL     1      30.258  57.812  49.914  1.00  0.00     0.122 C 
ATOM     15  O   UNL     1      29.228  56.981  49.396  1.00  0.00    -0.357 OA
ATOM     16  C   UNL     1      30.136  59.114  49.086  1.00  0.00     0.039 C 
ATOM     17  C   UNL     1      29.304  57.163  47.993  1.00  0.00     0.125 C 
ATOM     18  C   UNL     1      29.857  58.568  47.695  1.00  0.00     0.031 C 
ATOM     19  C   UNL     1      27.976  57.038  47.227  1.00  0.00     0.037 C 
ATOM     20  C   UNL     1      28.791  59.243  46.772  1.00  0.00    -0.024 C 
ATOM     21  C   UNL     1      28.243  57.991  46.055  1.00  0.00     0.002 C 
ATOM     22  C   UNL     1      29.379  60.184  45.702  1.00  0.00     0.008 C 
ATOM     23  C   UNL     1      27.111  58.322  45.056  1.00  0.00     0.000 C 
ATOM     24  C   UNL     1      28.293  60.594  44.680  1.00  0.00     0.005 C 
ATOM     25  C   UNL     1      26.584  57.041  44.377  1.00  0.00     0.031 C 
ATOM     26  C   UNL     1      27.625  59.356  43.985  1.00  0.00     0.003 C 
ATOM     27  C   UNL     1      26.008  57.232  42.993  1.00  0.00    -0.027 C 
ATOM     28  C   UNL     1      26.419  59.718  43.013  1.00  0.00    -0.008 C 
ATOM     29  C   UNL     1      25.979  58.409  42.322  1.00  0.00    -0.065 C 
ATOM     30  C   UNL     1      26.787  60.838  41.967  1.00  0.00     0.014 C 
ATOM     31  C   UNL     1      25.721  58.283  40.823  1.00  0.00     0.063 C 
ATOM     32  C   UNL     1      27.141  60.328  40.570  1.00  0.00     0.033 C 
ATOM     33  C   UNL     1      30.939  54.620  51.351  1.00  0.00     0.009 C 
ATOM     34  H   UNL     1      32.219  57.581  49.070  1.00  0.00     0.125 HD
ATOM     35  C   UNL     1      31.267  60.149  49.153  1.00  0.00     0.012 C 
ATOM     36  C   UNL     1      27.701  60.016  47.602  1.00  0.00     0.012 C 
ATOM     37  C   UNL     1      25.184  60.255  43.802  1.00  0.00     0.016 C 
ENDBRANCH   7   8
ENDBRANCH   1   7
BRANCH   6  38
ATOM     38  O   UNL     1      21.237  59.603  39.255  1.00  0.00    -0.385 OA
ATOM     39  H   UNL     1      21.321  58.620  39.358  1.00  0.00     0.211 HD
ENDBRANCH   6  38
BRANCH   3  40
ATOM     40  C   UNL     1      24.780  62.669  38.225  1.00  0.00     0.191 C 
BRANCH  40  41
ATOM     41  O   UNL     1      25.945  62.153  37.643  1.00  0.00    -0.394 OA
ATOM     42  H   UNL     1      25.778  62.107  36.667  1.00  0.00     0.210 HD
ENDBRANCH  40  41
ENDBRANCH   3  40
BRANCH   5  43
ATOM     43  O   UNL     1      23.045  62.364  40.770  1.00  0.00    -0.387 OA
ATOM     44  H   UNL     1      23.841  61.772  40.773  1.00  0.00     0.211 HD
ENDBRANCH   5  43
BRANCH   4  45
ATOM     45  O   UNL     1      21.124  61.863  37.709  1.00  0.00    -0.341 OA
BRANCH  45  46
ATOM     46  C   UNL     1      21.145  62.361  36.374  1.00  0.00     0.282 C 
ATOM     47  O   UNL     1      20.128  63.358  36.257  1.00  0.00    -0.344 OA
ATOM     48  C   UNL     1      20.881  61.186  35.406  1.00  0.00     0.202 C 
ATOM     49  C   UNL     1      19.668  63.624  34.922  1.00  0.00     0.150 C 
ATOM     50  C   UNL     1      20.948  61.655  33.932  1.00  0.00     0.179 C 
ATOM     51  C   UNL     1      20.666  63.171  33.825  1.00  0.00     0.174 C 
ATOM     52  C   UNL     1      19.414  65.130  34.809  1.00  0.00     0.041 C 
BRANCH  48  53
ATOM     53  O   UNL     1      21.701  60.067  35.634  1.00  0.00    -0.385 OA
ATOM     54  H   UNL     1      21.965  60.073  36.589  1.00  0.00     0.211 HD
ENDBRANCH  48  53
BRANCH  50  55
ATOM     55  O   UNL     1      22.182  61.362  33.322  1.00  0.00    -0.387 OA
ATOM     56  H   UNL     1      22.633  60.665  33.866  1.00  0.00     0.211 HD
ENDBRANCH  50  55
BRANCH  51  57
ATOM     57  O   UNL     1      20.258  63.512  32.525  1.00  0.00    -0.388 OA
ATOM     58  H   UNL     1      21.038  63.927  32.072  1.00  0.00     0.211 HD
ENDBRANCH  51  57
ENDBRANCH  45  46
ENDBRANCH   4  45
TORSDOF 11
ENDMDL
MODEL 3
REMARK VINA RESULT:   -12.414      0.912      2.165
REMARK INTER + INTRA:         -19.753
REMARK INTER:                 -18.675
REMARK INTRA:                  -1.077
REMARK UNBOUND:                -1.533
REMARK SMILES C[C@@H]1CC[C@@]2(NC1)O[C@H]1C[C@H]3[C@@H]4CC=C5C[C@@H](O[C@@H]6O[C@H](CO)[C@@H](O[C@@H]7O[C@@H](C)[C@H](O)[C@@H](O)[C@H]7O)[C@H](O)[C@H]6O)CC[C@]5(C)[C@H]4CC[C@]3(C)[C@H]1[C@@H]2C
REMARK SMILES IDX 19 1 20 2 21 3 24 4 36 5 38 6 18 7 17 8 2 9 3 10 7 11 4 12
REMARK SMILES IDX 6 13 5 14 8 15 50 16 9 17 49 18 10 19 47 20 11 21 46 22
REMARK SMILES IDX 12 23 45 24 13 25 44 26 14 27 42 28 15 29 41 30 16 31 40 32
REMARK SMILES IDX 1 33 51 35 48 36 43 37 39 38 22 40 23 41 37 43 25 45 26 46
REMARK SMILES IDX 27 47 34 48 28 49 32 50 30 51 29 52 35 53 33 55 31 57
REMARK H PARENT 6 34 39 39 23 42 37 44 35 54 33 56 31 58
ROOT
ATOM      1  C   UNL     1      24.953  61.984  39.686  1.00  0.00     0.282 C 
ATOM      2  O   UNL     1      23.645  62.507  39.920  1.00  0.00    -0.341 OA
ATOM      3  C   UNL     1      22.578  61.682  39.441  1.00  0.00     0.178 C 
ATOM      4  C   UNL     1      22.731  61.266  37.951  1.00  0.00     0.184 C 
ATOM      5  C   UNL     1      24.135  60.701  37.663  1.00  0.00     0.180 C 
ATOM      6  C   UNL     1      25.193  61.687  38.180  1.00  0.00     0.202 C 
ENDROOT
BRANCH   1   7
ATOM      7  O   UNL     1      25.177  60.821  40.485  1.00  0.00    -0.346 OA
BRANCH   7   8
ATOM      8  C   UNL     1      26.521  60.340  40.464  1.00  0.00     0.125 C 
ATOM      9  C   UNL     1      30.025  51.720  50.340  1.00  0.00    -0.000 C 
ATOM     10  C   UNL     1      28.522  52.061  50.549  1.00  0.00     0.009 C 
ATOM     11  C   UNL     1      30.882  52.998  50.230  1.00  0.00     0.087 C 
ATOM     12  C   UNL     1      28.245  53.565  50.451  1.00  0.00     0.053 C 
ATOM     13  N   UNL     1      30.384  53.871  49.151  1.00  0.00    -0.289 NA
ATOM     14  C   UNL     1      28.916  54.164  49.186  1.00  0.00     0.122 C 
ATOM     15  O   UNL     1      28.328  53.605  48.019  1.00  0.00    -0.357 OA
ATOM     16  C   UNL     1      28.583  55.672  49.084  1.00  0.00     0.039 C 
ATOM     17  C   UNL     1      28.647  54.526  46.991  1.00  0.00     0.125 C 
ATOM     18  C   UNL     1      28.793  55.932  47.600  1.00  0.00     0.031 C 
ATOM     19  C   UNL     1      27.620  54.642  45.851  1.00  0.00     0.037 C 
ATOM     20  C   UNL     1      27.799  56.833  46.799  1.00  0.00    -0.024 C 
ATOM     21  C   UNL     1      27.830  56.105  45.440  1.00  0.00     0.002 C 
ATOM     22  C   UNL     1      28.287  58.278  46.576  1.00  0.00     0.008 C 
ATOM     23  C   UNL     1      26.896  56.754  44.392  1.00  0.00     0.000 C 
ATOM     24  C   UNL     1      27.377  59.011  45.563  1.00  0.00     0.005 C 
ATOM     25  C   UNL     1      26.948  55.983  43.056  1.00  0.00     0.031 C 
ATOM     26  C   UNL     1      27.288  58.265  44.186  1.00  0.00     0.003 C 
ATOM     27  C   UNL     1      26.656  56.805  41.823  1.00  0.00    -0.027 C 
ATOM     28  C   UNL     1      26.271  58.913  43.150  1.00  0.00    -0.008 C 
ATOM     29  C   UNL     1      26.414  58.139  41.821  1.00  0.00    -0.065 C 
ATOM     30  C   UNL     1      26.494  60.461  42.953  1.00  0.00     0.014 C 
ATOM     31  C   UNL     1      26.538  58.808  40.455  1.00  0.00     0.063 C 
ATOM     32  C   UNL     1      27.283  60.846  41.701  1.00  0.00     0.033 C 
ATOM     33  C   UNL     1      30.213  50.843  49.089  1.00  0.00     0.009 C 
ATOM     34  H   UNL     1      30.987  54.718  49.070  1.00  0.00     0.125 HD
ATOM     35  C   UNL     1      29.298  56.659  50.015  1.00  0.00     0.012 C 
ATOM     36  C   UNL     1      26.371  56.864  47.460  1.00  0.00     0.012 C 
ATOM     37  C   UNL     1      24.790  58.749  43.616  1.00  0.00     0.016 C 
ENDBRANCH   7   8
ENDBRANCH   1   7
BRANCH   6  38
ATOM     38  O   UNL     1      25.190  62.867  37.403  1.00  0.00    -0.385 OA
ATOM     39  H   UNL     1      24.966  62.649  36.461  1.00  0.00     0.211 HD
ENDBRANCH   6  38
BRANCH   3  40
ATOM     40  C   UNL     1      22.268  60.494  40.376  1.00  0.00     0.191 C 
BRANCH  40  41
ATOM     41  O   UNL     1      21.438  59.565  39.736  1.00  0.00    -0.394 OA
ATOM     42  H   UNL     1      21.458  58.740  40.285  1.00  0.00     0.210 HD
ENDBRANCH  40  41
ENDBRANCH   3  40
BRANCH   5  43
ATOM     43  O   UNL     1      24.311  59.458  38.294  1.00  0.00    -0.387 OA
ATOM     44  H   UNL     1      23.408  59.063  38.407  1.00  0.00     0.211 HD
ENDBRANCH   5  43
BRANCH   4  45
ATOM     45  O   UNL     1      22.503  62.404  37.124  1.00  0.00    -0.341 OA
BRANCH  45  46
ATOM     46  C   UNL     1      21.438  62.213  36.197  1.00  0.00     0.282 C 
ATOM     47  O   UNL     1      21.966  62.370  34.878  1.00  0.00    -0.344 OA
ATOM     48  C   UNL     1      20.343  63.263  36.483  1.00  0.00     0.202 C 
ATOM     49  C   UNL     1      21.005  62.694  33.859  1.00  0.00     0.150 C 
ATOM     50  C   UNL     1      19.128  63.070  35.541  1.00  0.00     0.179 C 
ATOM     51  C   UNL     1      19.549  62.335  34.248  1.00  0.00     0.174 C 
ATOM     52  C   UNL     1      21.408  61.943  32.586  1.00  0.00     0.041 C 
BRANCH  48  53
ATOM     53  O   UNL     1      19.950  63.323  37.832  1.00  0.00    -0.385 OA
ATOM     54  H   UNL     1      19.097  63.827  37.877  1.00  0.00     0.211 HD
ENDBRANCH  48  53
BRANCH  50  55
ATOM     55  O   UNL     1      18.068  62.377  36.153  1.00  0.00    -0.387 OA
ATOM     56  H   UNL     1      17.219  62.710  35.761  1.00  0.00     0.211 HD
ENDBRANCH  50  55
BRANCH  51  57
ATOM     57  O   UNL     1      18.622  62.567  33.218  1.00  0.00    -0.388 OA
ATOM     58  H   UNL     1      18.937  63.364  32.715  1.00  0.00     0.211 HD
ENDBRANCH  51  57
ENDBRANCH  45  46
ENDBRANCH   4  45
TORSDOF 11
ENDMDL
MODEL 4
REMARK VINA RESULT:   -12.353      2.804      4.110
REMARK INTER + INTRA:         -19.662
REMARK INTER:                 -18.477
REMARK INTRA:                  -1.185
REMARK UNBOUND:                -1.533
REMARK SMILES C[C@@H]1CC[C@@]2(NC1)O[C@H]1C[C@H]3[C@@H]4CC=C5C[C@@H](O[C@@H]6O[C@H](CO)[C@@H](O[C@@H]7O[C@@H](C)[C@H](O)[C@@H](O)[C@H]7O)[C@H](O)[C@H]6O)CC[C@]5(C)[C@H]4CC[C@]3(C)[C@H]1[C@@H]2C
REMARK SMILES IDX 19 1 20 2 21 3 24 4 36 5 38 6 18 7 17 8 2 9 3 10 7 11 4 12
REMARK SMILES IDX 6 13 5 14 8 15 50 16 9 17 49 18 10 19 47 20 11 21 46 22
REMARK SMILES IDX 12 23 45 24 13 25 44 26 14 27 42 28 15 29 41 30 16 31 40 32
REMARK SMILES IDX 1 33 51 35 48 36 43 37 39 38 22 40 23 41 37 43 25 45 26 46
REMARK SMILES IDX 27 47 34 48 28 49 32 50 30 51 29 52 35 53 33 55 31 57
REMARK H PARENT 6 34 39 39 23 42 37 44 35 54 33 56 31 58
ROOT
ATOM      1  C   UNL     1      24.752  62.134  40.034  1.00  0.00     0.282 C 
ATOM      2  O   UNL     1      23.406  62.612  40.047  1.00  0.00    -0.341 OA
ATOM      3  C   UNL     1      22.450  61.715  39.475  1.00  0.00     0.178 C 
ATOM      4  C   UNL     1      22.831  61.221  38.051  1.00  0.00     0.184 C 
ATOM      5  C   UNL     1      24.281  60.703  38.001  1.00  0.00     0.180 C 
ATOM      6  C   UNL     1      25.218  61.763  38.600  1.00  0.00     0.202 C 
ENDROOT
BRANCH   1   7
ATOM      7  O   UNL     1      24.899  61.030  40.929  1.00  0.00    -0.346 OA
BRANCH   7   8
ATOM      8  C   UNL     1      25.730  61.293  42.060  1.00  0.00     0.125 C 
ATOM      9  C   UNL     1      34.649  51.627  45.398  1.00  0.00    -0.000 C 
ATOM     10  C   UNL     1      33.902  51.134  44.127  1.00  0.00     0.009 C 
ATOM     11  C   UNL     1      33.659  52.038  46.508  1.00  0.00     0.087 C 
ATOM     12  C   UNL     1      32.384  51.312  44.235  1.00  0.00     0.053 C 
ATOM     13  N   UNL     1      32.720  53.063  46.017  1.00  0.00    -0.289 NA
ATOM     14  C   UNL     1      32.034  52.743  44.725  1.00  0.00     0.122 C 
ATOM     15  O   UNL     1      32.449  53.698  43.758  1.00  0.00    -0.357 OA
ATOM     16  C   UNL     1      30.497  52.913  44.781  1.00  0.00     0.039 C 
ATOM     17  C   UNL     1      31.685  54.853  44.058  1.00  0.00     0.125 C 
ATOM     18  C   UNL     1      30.354  54.425  44.702  1.00  0.00     0.031 C 
ATOM     19  C   UNL     1      31.329  55.752  42.861  1.00  0.00     0.037 C 
ATOM     20  C   UNL     1      29.241  55.076  43.817  1.00  0.00    -0.024 C 
ATOM     21  C   UNL     1      29.995  56.335  43.343  1.00  0.00     0.002 C 
ATOM     22  C   UNL     1      27.994  55.535  44.598  1.00  0.00     0.008 C 
ATOM     23  C   UNL     1      29.150  57.215  42.392  1.00  0.00     0.000 C 
ATOM     24  C   UNL     1      27.073  56.394  43.701  1.00  0.00     0.005 C 
ATOM     25  C   UNL     1      29.949  58.452  41.930  1.00  0.00     0.031 C 
ATOM     26  C   UNL     1      27.812  57.643  43.103  1.00  0.00     0.003 C 
ATOM     27  C   UNL     1      29.120  59.666  41.584  1.00  0.00    -0.027 C 
ATOM     28  C   UNL     1      26.944  58.493  42.078  1.00  0.00    -0.008 C 
ATOM     29  C   UNL     1      27.771  59.742  41.703  1.00  0.00    -0.065 C 
ATOM     30  C   UNL     1      25.524  58.879  42.644  1.00  0.00     0.014 C 
ATOM     31  C   UNL     1      27.208  61.161  41.676  1.00  0.00     0.063 C 
ATOM     32  C   UNL     1      25.412  60.301  43.192  1.00  0.00     0.033 C 
ATOM     33  C   UNL     1      35.584  52.800  45.057  1.00  0.00     0.009 C 
ATOM     34  H   UNL     1      32.074  53.352  46.784  1.00  0.00     0.125 HD
ATOM     35  C   UNL     1      29.714  52.255  45.924  1.00  0.00     0.012 C 
ATOM     36  C   UNL     1      28.799  54.131  42.640  1.00  0.00     0.012 C 
ATOM     37  C   UNL     1      26.680  57.707  40.756  1.00  0.00     0.016 C 
ENDBRANCH   7   8
ENDBRANCH   1   7
BRANCH   6  38
ATOM     38  O   UNL     1      25.285  62.894  37.757  1.00  0.00    -0.385 OA
ATOM     39  H   UNL     1      25.222  62.612  36.809  1.00  0.00     0.211 HD
ENDBRANCH   6  38
BRANCH   3  40
ATOM     40  C   UNL     1      22.050  60.570  40.429  1.00  0.00     0.191 C 
BRANCH  40  41
ATOM     41  O   UNL     1      21.374  59.559  39.733  1.00  0.00    -0.394 OA
ATOM     42  H   UNL     1      20.844  59.058  40.404  1.00  0.00     0.210 HD
ENDBRANCH  40  41
ENDBRANCH   3  40
BRANCH   5  43
ATOM     43  O   UNL     1      24.407  59.507  38.728  1.00  0.00    -0.387 OA
ATOM     44  H   UNL     1      23.495  59.255  39.027  1.00  0.00     0.211 HD
ENDBRANCH   5  43
BRANCH   4  45
ATOM     45  O   UNL     1      22.685  62.298  37.129  1.00  0.00    -0.341 OA
BRANCH  45  46
ATOM     46  C   UNL     1      21.586  62.123  36.239  1.00  0.00     0.282 C 
ATOM     47  O   UNL     1      22.077  62.243  34.902  1.00  0.00    -0.344 OA
ATOM     48  C   UNL     1      20.531  63.209  36.540  1.00  0.00     0.202 C 
ATOM     49  C   UNL     1      21.095  62.579  33.907  1.00  0.00     0.150 C 
ATOM     50  C   UNL     1      19.283  63.036  35.639  1.00  0.00     0.179 C 
ATOM     51  C   UNL     1      19.642  62.267  34.347  1.00  0.00     0.174 C 
ATOM     52  C   UNL     1      21.436  61.796  32.636  1.00  0.00     0.041 C 
BRANCH  48  53
ATOM     53  O   UNL     1      20.182  63.302  37.899  1.00  0.00    -0.385 OA
ATOM     54  H   UNL     1      20.817  63.927  38.333  1.00  0.00     0.211 HD
ENDBRANCH  48  53
BRANCH  50  55
ATOM     55  O   UNL     1      18.223  62.383  36.296  1.00  0.00    -0.387 OA
ATOM     56  H   UNL     1      17.451  63.006  36.322  1.00  0.00     0.211 HD
ENDBRANCH  50  55
BRANCH  51  57
ATOM     57  O   UNL     1      18.691  62.510  33.342  1.00  0.00    -0.388 OA
ATOM     58  H   UNL     1      18.480  63.481  33.366  1.00  0.00     0.211 HD
ENDBRANCH  51  57
ENDBRANCH  45  46
ENDBRANCH   4  45
TORSDOF 11
ENDMDL
MODEL 5
REMARK VINA RESULT:   -12.299      2.635      5.241
REMARK INTER + INTRA:         -19.583
REMARK INTER:                 -18.104
REMARK INTRA:                  -1.479
REMARK UNBOUND:                -1.533
REMARK SMILES C[C@@H]1CC[C@@]2(NC1)O[C@H]1C[C@H]3[C@@H]4CC=C5C[C@@H](O[C@@H]6O[C@H](CO)[C@@H](O[C@@H]7O[C@@H](C)[C@H](O)[C@@H](O)[C@H]7O)[C@H](O)[C@H]6O)CC[C@]5(C)[C@H]4CC[C@]3(C)[C@H]1[C@@H]2C
REMARK SMILES IDX 19 1 20 2 21 3 24 4 36 5 38 6 18 7 17 8 2 9 3 10 7 11 4 12
REMARK SMILES IDX 6 13 5 14 8 15 50 16 9 17 49 18 10 19 47 20 11 21 46 22
REMARK SMILES IDX 12 23 45 24 13 25 44 26 14 27 42 28 15 29 41 30 16 31 40 32
REMARK SMILES IDX 1 33 51 35 48 36 43 37 39 38 22 40 23 41 37 43 25 45 26 46
REMARK SMILES IDX 27 47 34 48 28 49 32 50 30 51 29 52 35 53 33 55 31 57
REMARK H PARENT 6 34 39 39 23 42 37 44 35 54 33 56 31 58
ROOT
ATOM      1  C   UNL     1      27.520  59.974  42.340  1.00  0.00     0.282 C 
ATOM      2  O   UNL     1      26.477  60.810  42.843  1.00  0.00    -0.341 OA
ATOM      3  C   UNL     1      25.167  60.241  42.764  1.00  0.00     0.178 C 
ATOM      4  C   UNL     1      24.799  59.715  41.349  1.00  0.00     0.184 C 
ATOM      5  C   UNL     1      25.907  58.812  40.774  1.00  0.00     0.180 C 
ATOM      6  C   UNL     1      27.255  59.542  40.872  1.00  0.00     0.202 C 
ENDROOT
BRANCH   1   7
ATOM      7  O   UNL     1      27.704  58.839  43.189  1.00  0.00    -0.346 OA
BRANCH   7   8
ATOM      8  C   UNL     1      29.065  58.568  43.524  1.00  0.00     0.125 C 
ATOM      9  C   UNL     1      31.647  46.418  48.988  1.00  0.00    -0.000 C 
ATOM     10  C   UNL     1      30.124  46.458  48.674  1.00  0.00     0.009 C 
ATOM     11  C   UNL     1      32.079  47.637  49.829  1.00  0.00     0.087 C 
ATOM     12  C   UNL     1      29.464  47.758  49.147  1.00  0.00     0.053 C 
ATOM     13  N   UNL     1      31.714  48.895  49.153  1.00  0.00    -0.289 NA
ATOM     14  C   UNL     1      30.292  48.990  48.693  1.00  0.00     0.122 C 
ATOM     15  O   UNL     1      30.293  49.074  47.274  1.00  0.00    -0.357 OA
ATOM     16  C   UNL     1      29.581  50.289  49.142  1.00  0.00     0.039 C 
ATOM     17  C   UNL     1      30.634  50.421  47.004  1.00  0.00     0.125 C 
ATOM     18  C   UNL     1      30.162  51.306  48.172  1.00  0.00     0.031 C 
ATOM     19  C   UNL     1      30.033  51.022  45.722  1.00  0.00     0.037 C 
ATOM     20  C   UNL     1      29.252  52.397  47.520  1.00  0.00    -0.024 C 
ATOM     21  C   UNL     1      29.923  52.495  46.134  1.00  0.00     0.002 C 
ATOM     22  C   UNL     1      29.339  53.783  48.189  1.00  0.00     0.008 C 
ATOM     23  C   UNL     1      29.219  53.507  45.200  1.00  0.00     0.000 C 
ATOM     24  C   UNL     1      28.622  54.850  47.330  1.00  0.00     0.005 C 
ATOM     25  C   UNL     1      29.913  53.559  43.822  1.00  0.00     0.031 C 
ATOM     26  C   UNL     1      29.194  54.931  45.871  1.00  0.00     0.003 C 
ATOM     27  C   UNL     1      29.796  54.875  43.088  1.00  0.00    -0.027 C 
ATOM     28  C   UNL     1      28.412  55.929  44.912  1.00  0.00    -0.008 C 
ATOM     29  C   UNL     1      29.187  55.983  43.577  1.00  0.00    -0.065 C 
ATOM     30  C   UNL     1      28.222  57.363  45.537  1.00  0.00     0.014 C 
ATOM     31  C   UNL     1      29.533  57.277  42.845  1.00  0.00     0.063 C 
ATOM     32  C   UNL     1      29.215  58.418  45.049  1.00  0.00     0.033 C 
ATOM     33  C   UNL     1      32.467  46.349  47.689  1.00  0.00     0.009 C 
ATOM     34  H   UNL     1      32.036  49.711  49.718  1.00  0.00     0.125 HD
ATOM     35  C   UNL     1      29.644  50.704  50.617  1.00  0.00     0.012 C 
ATOM     36  C   UNL     1      27.746  51.945  47.456  1.00  0.00     0.012 C 
ATOM     37  C   UNL     1      26.977  55.409  44.586  1.00  0.00     0.016 C 
ENDBRANCH   7   8
ENDBRANCH   1   7
BRANCH   6  38
ATOM     38  O   UNL     1      27.287  60.641  39.985  1.00  0.00    -0.385 OA
ATOM     39  H   UNL     1      28.227  60.895  39.798  1.00  0.00     0.211 HD
ENDBRANCH   6  38
BRANCH   3  40
ATOM     40  C   UNL     1      24.885  59.219  43.885  1.00  0.00     0.191 C 
BRANCH  40  41
ATOM     41  O   UNL     1      23.811  58.389  43.539  1.00  0.00    -0.394 OA
ATOM     42  H   UNL     1      24.146  57.457  43.585  1.00  0.00     0.210 HD
ENDBRANCH  40  41
ENDBRANCH   3  40
BRANCH   5  43
ATOM     43  O   UNL     1      25.981  57.602  41.484  1.00  0.00    -0.387 OA
ATOM     44  H   UNL     1      26.549  56.989  40.949  1.00  0.00     0.211 HD
ENDBRANCH   5  43
BRANCH   4  45
ATOM     45  O   UNL     1      24.597  60.825  40.477  1.00  0.00    -0.341 OA
BRANCH  45  46
ATOM     46  C   UNL     1      23.478  60.656  39.612  1.00  0.00     0.282 C 
ATOM     47  O   UNL     1      23.962  60.595  38.269  1.00  0.00    -0.344 OA
ATOM     48  C   UNL     1      22.524  61.856  39.802  1.00  0.00     0.202 C 
ATOM     49  C   UNL     1      23.002  60.912  37.247  1.00  0.00     0.150 C 
ATOM     50  C   UNL     1      21.256  61.702  38.927  1.00  0.00     0.179 C 
ATOM     51  C   UNL     1      21.532  60.776  37.720  1.00  0.00     0.174 C 
ATOM     52  C   UNL     1      23.259  59.976  36.063  1.00  0.00     0.041 C 
BRANCH  48  53
ATOM     53  O   UNL     1      22.200  62.118  41.145  1.00  0.00    -0.385 OA
ATOM     54  H   UNL     1      21.860  63.048  41.199  1.00  0.00     0.211 HD
ENDBRANCH  48  53
BRANCH  50  55
ATOM     55  O   UNL     1      20.151  61.215  39.650  1.00  0.00    -0.387 OA
ATOM     56  H   UNL     1      20.323  60.262  39.864  1.00  0.00     0.211 HD
ENDBRANCH  50  55
BRANCH  51  57
ATOM     57  O   UNL     1      20.594  60.997  36.698  1.00  0.00    -0.388 OA
ATOM     58  H   UNL     1      20.438  61.977  36.650  1.00  0.00     0.211 HD
ENDBRANCH  51  57
ENDBRANCH  45  46
ENDBRANCH   4  45
TORSDOF 11
ENDMDL
MODEL 6
REMARK VINA RESULT:   -12.050      5.120      6.823
REMARK INTER + INTRA:         -19.218
REMARK INTER:                 -17.592
REMARK INTRA:                  -1.626
REMARK UNBOUND:                -1.533
REMARK SMILES C[C@@H]1CC[C@@]2(NC1)O[C@H]1C[C@H]3[C@@H]4CC=C5C[C@@H](O[C@@H]6O[C@H](CO)[C@@H](O[C@@H]7O[C@@H](C)[C@H](O)[C@@H](O)[C@H]7O)[C@H](O)[C@H]6O)CC[C@]5(C)[C@H]4CC[C@]3(C)[C@H]1[C@@H]2C
REMARK SMILES IDX 19 1 20 2 21 3 24 4 36 5 38 6 18 7 17 8 2 9 3 10 7 11 4 12
REMARK SMILES IDX 6 13 5 14 8 15 50 16 9 17 49 18 10 19 47 20 11 21 46 22
REMARK SMILES IDX 12 23 45 24 13 25 44 26 14 27 42 28 15 29 41 30 16 31 40 32
REMARK SMILES IDX 1 33 51 35 48 36 43 37 39 38 22 40 23 41 37 43 25 45 26 46
REMARK SMILES IDX 27 47 34 48 28 49 32 50 30 51 29 52 35 53 33 55 31 57
REMARK H PARENT 6 34 39 39 23 42 37 44 35 54 33 56 31 58
ROOT
ATOM      1  C   UNL     1      25.979  58.624  42.569  1.00  0.00     0.282 C 
ATOM      2  O   UNL     1      26.421  58.040  41.343  1.00  0.00    -0.341 OA
ATOM      3  C   UNL     1      26.931  58.975  40.388  1.00  0.00     0.178 C 
ATOM      4  C   UNL     1      25.971  60.163  40.101  1.00  0.00     0.184 C 
ATOM      5  C   UNL     1      25.471  60.813  41.405  1.00  0.00     0.180 C 
ATOM      6  C   UNL     1      24.908  59.724  42.330  1.00  0.00     0.202 C 
ENDROOT
BRANCH   1   7
ATOM      7  O   UNL     1      27.090  59.135  43.308  1.00  0.00    -0.346 OA
BRANCH   7   8
ATOM      8  C   UNL     1      27.273  58.532  44.590  1.00  0.00     0.125 C 
ATOM      9  C   UNL     1      39.598  59.732  50.139  1.00  0.00    -0.000 C 
ATOM     10  C   UNL     1      39.634  60.498  48.786  1.00  0.00     0.009 C 
ATOM     11  C   UNL     1      39.082  58.290  49.955  1.00  0.00     0.087 C 
ATOM     12  C   UNL     1      39.020  59.687  47.639  1.00  0.00     0.053 C 
ATOM     13  N   UNL     1      37.756  58.286  49.312  1.00  0.00    -0.289 NA
ATOM     14  C   UNL     1      37.646  59.099  48.059  1.00  0.00     0.122 C 
ATOM     15  O   UNL     1      36.724  60.154  48.299  1.00  0.00    -0.357 OA
ATOM     16  C   UNL     1      37.025  58.326  46.871  1.00  0.00     0.039 C 
ATOM     17  C   UNL     1      35.453  59.537  48.196  1.00  0.00     0.125 C 
ATOM     18  C   UNL     1      35.549  58.339  47.236  1.00  0.00     0.031 C 
ATOM     19  C   UNL     1      34.313  60.430  47.678  1.00  0.00     0.037 C 
ATOM     20  C   UNL     1      34.460  58.598  46.145  1.00  0.00    -0.024 C 
ATOM     21  C   UNL     1      33.433  59.380  46.989  1.00  0.00     0.002 C 
ATOM     22  C   UNL     1      33.770  57.324  45.618  1.00  0.00     0.008 C 
ATOM     23  C   UNL     1      32.200  59.826  46.168  1.00  0.00     0.000 C 
ATOM     24  C   UNL     1      32.542  57.686  44.751  1.00  0.00     0.005 C 
ATOM     25  C   UNL     1      31.210  60.618  47.048  1.00  0.00     0.031 C 
ATOM     26  C   UNL     1      31.501  58.570  45.524  1.00  0.00     0.003 C 
ATOM     27  C   UNL     1      29.762  60.540  46.623  1.00  0.00    -0.027 C 
ATOM     28  C   UNL     1      30.277  59.070  44.642  1.00  0.00    -0.008 C 
ATOM     29  C   UNL     1      29.298  59.799  45.587  1.00  0.00    -0.065 C 
ATOM     30  C   UNL     1      29.570  57.904  43.852  1.00  0.00     0.014 C 
ATOM     31  C   UNL     1      27.789  59.566  45.596  1.00  0.00     0.063 C 
ATOM     32  C   UNL     1      28.285  57.377  44.491  1.00  0.00     0.033 C 
ATOM     33  C   UNL     1      38.728  60.482  51.163  1.00  0.00     0.009 C 
ATOM     34  H   UNL     1      37.408  57.307  49.217  1.00  0.00     0.125 HD
ATOM     35  C   UNL     1      37.583  56.945  46.506  1.00  0.00     0.012 C 
ATOM     36  C   UNL     1      35.029  59.420  44.930  1.00  0.00     0.012 C 
ATOM     37  C   UNL     1      30.728  60.106  43.565  1.00  0.00     0.016 C 
ENDBRANCH   7   8
ENDBRANCH   1   7
BRANCH   6  38
ATOM     38  O   UNL     1      23.714  59.190  41.796  1.00  0.00    -0.385 OA
ATOM     39  H   UNL     1      23.923  58.610  41.019  1.00  0.00     0.211 HD
ENDBRANCH   6  38
BRANCH   3  40
ATOM     40  C   UNL     1      28.376  59.421  40.693  1.00  0.00     0.191 C 
BRANCH  40  41
ATOM     41  O   UNL     1      28.635  60.678  40.132  1.00  0.00    -0.394 OA
ATOM     42  H   UNL     1      27.964  61.302  40.511  1.00  0.00     0.210 HD
ENDBRANCH  40  41
ENDBRANCH   3  40
BRANCH   5  43
ATOM     43  O   UNL     1      26.517  61.484  42.060  1.00  0.00    -0.387 OA
ATOM     44  H   UNL     1      26.192  61.703  42.971  1.00  0.00     0.211 HD
ENDBRANCH   5  43
BRANCH   4  45
ATOM     45  O   UNL     1      24.853  59.689  39.354  1.00  0.00    -0.341 OA
BRANCH  45  46
ATOM     46  C   UNL     1      24.179  60.725  38.645  1.00  0.00     0.282 C 
ATOM     47  O   UNL     1      22.900  60.915  39.251  1.00  0.00    -0.344 OA
ATOM     48  C   UNL     1      24.033  60.295  37.168  1.00  0.00     0.202 C 
ATOM     49  C   UNL     1      21.905  61.541  38.422  1.00  0.00     0.150 C 
ATOM     50  C   UNL     1      23.356  61.408  36.330  1.00  0.00     0.179 C 
ATOM     51  C   UNL     1      22.506  62.332  37.232  1.00  0.00     0.174 C 
ATOM     52  C   UNL     1      21.081  62.476  39.311  1.00  0.00     0.041 C 
BRANCH  48  53
ATOM     53  O   UNL     1      25.234  59.861  36.580  1.00  0.00    -0.385 OA
ATOM     54  H   UNL     1      25.768  59.407  37.281  1.00  0.00     0.211 HD
ENDBRANCH  48  53
BRANCH  50  55
ATOM     55  O   UNL     1      24.279  62.181  35.603  1.00  0.00    -0.387 OA
ATOM     56  H   UNL     1      23.925  62.291  34.682  1.00  0.00     0.211 HD
ENDBRANCH  50  55
BRANCH  51  57
ATOM     57  O   UNL     1      21.541  63.017  36.474  1.00  0.00    -0.388 OA
ATOM     58  H   UNL     1      22.027  63.544  35.787  1.00  0.00     0.211 HD
ENDBRANCH  51  57
ENDBRANCH  45  46
ENDBRANCH   4  45
TORSDOF 11
ENDMDL
MODEL 7
REMARK VINA RESULT:   -11.919      2.546      4.535
REMARK INTER + INTRA:         -19.026
REMARK INTER:                 -17.648
REMARK INTRA:                  -1.378
REMARK UNBOUND:                -1.533
REMARK SMILES C[C@@H]1CC[C@@]2(NC1)O[C@H]1C[C@H]3[C@@H]4CC=C5C[C@@H](O[C@@H]6O[C@H](CO)[C@@H](O[C@@H]7O[C@@H](C)[C@H](O)[C@@H](O)[C@H]7O)[C@H](O)[C@H]6O)CC[C@]5(C)[C@H]4CC[C@]3(C)[C@H]1[C@@H]2C
REMARK SMILES IDX 19 1 20 2 21 3 24 4 36 5 38 6 18 7 17 8 2 9 3 10 7 11 4 12
REMARK SMILES IDX 6 13 5 14 8 15 50 16 9 17 49 18 10 19 47 20 11 21 46 22
REMARK SMILES IDX 12 23 45 24 13 25 44 26 14 27 42 28 15 29 41 30 16 31 40 32
REMARK SMILES IDX 1 33 51 35 48 36 43 37 39 38 22 40 23 41 37 43 25 45 26 46
REMARK SMILES IDX 27 47 34 48 28 49 32 50 30 51 29 52 35 53 33 55 31 57
REMARK H PARENT 6 34 39 39 23 42 37 44 35 54 33 56 31 58
ROOT
ATOM      1  C   UNL     1      27.018  58.444  41.608  1.00  0.00     0.282 C 
ATOM      2  O   UNL     1      27.280  59.492  40.674  1.00  0.00    -0.341 OA
ATOM      3  C   UNL     1      26.393  60.610  40.770  1.00  0.00     0.178 C 
ATOM      4  C   UNL     1      24.889  60.219  40.731  1.00  0.00     0.184 C 
ATOM      5  C   UNL     1      24.573  59.085  41.724  1.00  0.00     0.180 C 
ATOM      6  C   UNL     1      25.557  57.927  41.499  1.00  0.00     0.202 C 
ENDROOT
BRANCH   1   7
ATOM      7  O   UNL     1      27.319  58.871  42.937  1.00  0.00    -0.346 OA
BRANCH   7   8
ATOM      8  C   UNL     1      28.684  58.698  43.318  1.00  0.00     0.125 C 
ATOM      9  C   UNL     1      31.898  46.865  49.131  1.00  0.00    -0.000 C 
ATOM     10  C   UNL     1      30.386  46.797  48.771  1.00  0.00     0.009 C 
ATOM     11  C   UNL     1      32.223  48.128  49.956  1.00  0.00     0.087 C 
ATOM     12  C   UNL     1      29.627  48.059  49.196  1.00  0.00     0.053 C 
ATOM     13  N   UNL     1      31.796  49.344  49.241  1.00  0.00    -0.289 NA
ATOM     14  C   UNL     1      30.385  49.334  48.738  1.00  0.00     0.122 C 
ATOM     15  O   UNL     1      30.424  49.388  47.318  1.00  0.00    -0.357 OA
ATOM     16  C   UNL     1      29.576  50.592  49.136  1.00  0.00     0.039 C 
ATOM     17  C   UNL     1      30.683  50.750  47.027  1.00  0.00     0.125 C 
ATOM     18  C   UNL     1      30.118  51.625  48.160  1.00  0.00     0.031 C 
ATOM     19  C   UNL     1      30.082  51.282  45.715  1.00  0.00     0.037 C 
ATOM     20  C   UNL     1      29.158  52.639  47.457  1.00  0.00    -0.024 C 
ATOM     21  C   UNL     1      29.862  52.753  46.090  1.00  0.00     0.002 C 
ATOM     22  C   UNL     1      29.133  54.041  48.097  1.00  0.00     0.008 C 
ATOM     23  C   UNL     1      29.122  53.695  45.112  1.00  0.00     0.000 C 
ATOM     24  C   UNL     1      28.373  55.040  47.193  1.00  0.00     0.005 C 
ATOM     25  C   UNL     1      29.853  53.765  43.755  1.00  0.00     0.031 C 
ATOM     26  C   UNL     1      28.982  55.128  45.750  1.00  0.00     0.003 C 
ATOM     27  C   UNL     1      29.671  55.054  42.988  1.00  0.00    -0.027 C 
ATOM     28  C   UNL     1      28.166  56.052  44.746  1.00  0.00    -0.008 C 
ATOM     29  C   UNL     1      28.976  56.129  43.433  1.00  0.00    -0.065 C 
ATOM     30  C   UNL     1      27.862  57.482  45.333  1.00  0.00     0.014 C 
ATOM     31  C   UNL     1      29.258  57.428  42.682  1.00  0.00     0.063 C 
ATOM     32  C   UNL     1      28.797  58.591  44.849  1.00  0.00     0.033 C 
ATOM     33  C   UNL     1      32.760  46.824  47.858  1.00  0.00     0.009 C 
ATOM     34  H   UNL     1      32.045  50.191  49.796  1.00  0.00     0.125 HD
ATOM     35  C   UNL     1      29.567  51.040  50.603  1.00  0.00     0.012 C 
ATOM     36  C   UNL     1      27.688  52.085  47.360  1.00  0.00     0.012 C 
ATOM     37  C   UNL     1      26.779  55.430  44.390  1.00  0.00     0.016 C 
ENDBRANCH   7   8
ENDBRANCH   1   7
BRANCH   6  38
ATOM     38  O   UNL     1      25.309  57.302  40.257  1.00  0.00    -0.385 OA
ATOM     39  H   UNL     1      25.195  57.989  39.551  1.00  0.00     0.211 HD
ENDBRANCH   6  38
BRANCH   3  40
ATOM     40  C   UNL     1      26.744  61.561  41.933  1.00  0.00     0.191 C 
BRANCH  40  41
ATOM     41  O   UNL     1      28.117  61.838  41.948  1.00  0.00    -0.394 OA
ATOM     42  H   UNL     1      28.254  62.626  41.363  1.00  0.00     0.210 HD
ENDBRANCH  40  41
ENDBRANCH   3  40
BRANCH   5  43
ATOM     43  O   UNL     1      24.683  59.538  43.049  1.00  0.00    -0.387 OA
ATOM     44  H   UNL     1      25.202  58.854  43.545  1.00  0.00     0.211 HD
ENDBRANCH   5  43
BRANCH   4  45
ATOM     45  O   UNL     1      24.551  59.797  39.411  1.00  0.00    -0.341 OA
BRANCH  45  46
ATOM     46  C   UNL     1      24.032  60.851  38.606  1.00  0.00     0.282 C 
ATOM     47  O   UNL     1      22.715  61.155  39.070  1.00  0.00    -0.344 OA
ATOM     48  C   UNL     1      24.005  60.378  37.135  1.00  0.00     0.202 C 
ATOM     49  C   UNL     1      21.860  61.818  38.124  1.00  0.00     0.150 C 
ATOM     50  C   UNL     1      23.501  61.505  36.199  1.00  0.00     0.179 C 
ATOM     51  C   UNL     1      22.635  62.520  36.980  1.00  0.00     0.174 C 
ATOM     52  C   UNL     1      21.022  62.842  38.894  1.00  0.00     0.041 C 
BRANCH  48  53
ATOM     53  O   UNL     1      25.223  59.837  36.689  1.00  0.00    -0.385 OA
ATOM     54  H   UNL     1      25.465  59.092  37.297  1.00  0.00     0.211 HD
ENDBRANCH  48  53
BRANCH  50  55
ATOM     55  O   UNL     1      24.549  62.182  35.549  1.00  0.00    -0.387 OA
ATOM     56  H   UNL     1      24.157  62.955  35.064  1.00  0.00     0.211 HD
ENDBRANCH  50  55
BRANCH  51  57
ATOM     57  O   UNL     1      21.807  63.244  36.107  1.00  0.00    -0.388 OA
ATOM     58  H   UNL     1      21.513  62.617  35.394  1.00  0.00     0.211 HD
ENDBRANCH  51  57
ENDBRANCH  45  46
ENDBRANCH   4  45
TORSDOF 11
ENDMDL
MODEL 8
REMARK VINA RESULT:   -11.865      3.782      6.149
REMARK INTER + INTRA:         -18.946
REMARK INTER:                 -17.495
REMARK INTRA:                  -1.451
REMARK UNBOUND:                -1.533
REMARK SMILES C[C@@H]1CC[C@@]2(NC1)O[C@H]1C[C@H]3[C@@H]4CC=C5C[C@@H](O[C@@H]6O[C@H](CO)[C@@H](O[C@@H]7O[C@@H](C)[C@H](O)[C@@H](O)[C@H]7O)[C@H](O)[C@H]6O)CC[C@]5(C)[C@H]4CC[C@]3(C)[C@H]1[C@@H]2C
REMARK SMILES IDX 19 1 20 2 21 3 24 4 36 5 38 6 18 7 17 8 2 9 3 10 7 11 4 12
REMARK SMILES IDX 6 13 5 14 8 15 50 16 9 17 49 18 10 19 47 20 11 21 46 22
REMARK SMILES IDX 12 23 45 24 13 25 44 26 14 27 42 28 15 29 41 30 16 31 40 32
REMARK SMILES IDX 1 33 51 35 48 36 43 37 39 38 22 40 23 41 37 43 25 45 26 46
REMARK SMILES IDX 27 47 34 48 28 49 32 50 30 51 29 52 35 53 33 55 31 57
REMARK H PARENT 6 34 39 39 23 42 37 44 35 54 33 56 31 58
ROOT
ATOM      1  C   UNL     1      27.522  59.794  42.344  1.00  0.00     0.282 C 
ATOM      2  O   UNL     1      26.547  60.661  42.925  1.00  0.00    -0.341 OA
ATOM      3  C   UNL     1      25.197  60.199  42.815  1.00  0.00     0.178 C 
ATOM      4  C   UNL     1      24.783  59.821  41.365  1.00  0.00     0.184 C 
ATOM      5  C   UNL     1      25.818  58.889  40.706  1.00  0.00     0.180 C 
ATOM      6  C   UNL     1      27.218  59.506  40.848  1.00  0.00     0.202 C 
ENDROOT
BRANCH   1   7
ATOM      7  O   UNL     1      27.624  58.582  43.094  1.00  0.00    -0.346 OA
BRANCH   7   8
ATOM      8  C   UNL     1      28.577  58.624  44.157  1.00  0.00     0.125 C 
ATOM      9  C   UNL     1      35.750  47.309  46.313  1.00  0.00    -0.000 C 
ATOM     10  C   UNL     1      34.825  47.033  45.094  1.00  0.00     0.009 C 
ATOM     11  C   UNL     1      34.946  47.835  47.521  1.00  0.00     0.087 C 
ATOM     12  C   UNL     1      33.380  47.483  45.343  1.00  0.00     0.053 C 
ATOM     13  N   UNL     1      34.181  49.041  47.156  1.00  0.00    -0.289 NA
ATOM     14  C   UNL     1      33.347  48.924  45.918  1.00  0.00     0.122 C 
ATOM     15  O   UNL     1      33.856  49.838  44.956  1.00  0.00    -0.357 OA
ATOM     16  C   UNL     1      31.879  49.372  46.115  1.00  0.00     0.039 C 
ATOM     17  C   UNL     1      33.350  51.095  45.367  1.00  0.00     0.125 C 
ATOM     18  C   UNL     1      32.017  50.886  46.109  1.00  0.00     0.031 C 
ATOM     19  C   UNL     1      33.077  52.110  44.243  1.00  0.00     0.037 C 
ATOM     20  C   UNL     1      30.981  51.779  45.352  1.00  0.00    -0.024 C 
ATOM     21  C   UNL     1      31.919  52.902  44.863  1.00  0.00     0.002 C 
ATOM     22  C   UNL     1      29.908  52.416  46.257  1.00  0.00     0.008 C 
ATOM     23  C   UNL     1      31.182  53.973  44.025  1.00  0.00     0.000 C 
ATOM     24  C   UNL     1      29.098  53.479  45.479  1.00  0.00     0.005 C 
ATOM     25  C   UNL     1      32.161  55.065  43.544  1.00  0.00     0.031 C 
ATOM     26  C   UNL     1      30.009  54.601  44.868  1.00  0.00     0.003 C 
ATOM     27  C   UNL     1      31.550  56.429  43.320  1.00  0.00    -0.027 C 
ATOM     28  C   UNL     1      29.238  55.652  43.958  1.00  0.00    -0.008 C 
ATOM     29  C   UNL     1      30.254  56.745  43.561  1.00  0.00    -0.065 C 
ATOM     30  C   UNL     1      27.967  56.261  44.661  1.00  0.00     0.014 C 
ATOM     31  C   UNL     1      29.968  58.243  43.640  1.00  0.00     0.063 C 
ATOM     32  C   UNL     1      28.168  57.647  45.273  1.00  0.00     0.033 C 
ATOM     33  C   UNL     1      36.859  48.307  45.937  1.00  0.00     0.009 C 
ATOM     34  H   UNL     1      33.664  49.401  47.987  1.00  0.00     0.125 HD
ATOM     35  C   UNL     1      31.079  48.808  47.296  1.00  0.00     0.012 C 
ATOM     36  C   UNL     1      30.276  50.998  44.182  1.00  0.00     0.012 C 
ATOM     37  C   UNL     1      28.727  55.002  42.634  1.00  0.00     0.016 C 
ENDBRANCH   7   8
ENDBRANCH   1   7
BRANCH   6  38
ATOM     38  O   UNL     1      27.327  60.669  40.054  1.00  0.00    -0.385 OA
ATOM     39  H   UNL     1      27.454  60.417  39.103  1.00  0.00     0.211 HD
ENDBRANCH   6  38
BRANCH   3  40
ATOM     40  C   UNL     1      24.845  59.112  43.851  1.00  0.00     0.191 C 
BRANCH  40  41
ATOM     41  O   UNL     1      23.719  58.384  43.441  1.00  0.00    -0.394 OA
ATOM     42  H   UNL     1      23.038  59.048  43.164  1.00  0.00     0.210 HD
ENDBRANCH  40  41
ENDBRANCH   3  40
BRANCH   5  43
ATOM     43  O   UNL     1      25.804  57.622  41.313  1.00  0.00    -0.387 OA
ATOM     44  H   UNL     1      26.488  57.640  42.032  1.00  0.00     0.211 HD
ENDBRANCH   5  43
BRANCH   4  45
ATOM     45  O   UNL     1      24.662  61.011  40.590  1.00  0.00    -0.341 OA
BRANCH  45  46
ATOM     46  C   UNL     1      23.601  60.950  39.639  1.00  0.00     0.282 C 
ATOM     47  O   UNL     1      24.171  61.062  38.334  1.00  0.00    -0.344 OA
ATOM     48  C   UNL     1      22.624  62.113  39.918  1.00  0.00     0.202 C 
ATOM     49  C   UNL     1      23.275  61.502  37.300  1.00  0.00     0.150 C 
ATOM     50  C   UNL     1      21.416  62.066  38.949  1.00  0.00     0.179 C 
ATOM     51  C   UNL     1      21.779  61.302  37.656  1.00  0.00     0.174 C 
ATOM     52  C   UNL     1      23.618  60.725  36.026  1.00  0.00     0.041 C 
BRANCH  48  53
ATOM     53  O   UNL     1      22.212  62.201  41.259  1.00  0.00    -0.385 OA
ATOM     54  H   UNL     1      23.009  62.058  41.831  1.00  0.00     0.211 HD
ENDBRANCH  48  53
BRANCH  50  55
ATOM     55  O   UNL     1      20.272  61.488  39.531  1.00  0.00    -0.387 OA
ATOM     56  H   UNL     1      19.683  61.172  38.797  1.00  0.00     0.211 HD
ENDBRANCH  50  55
BRANCH  51  57
ATOM     57  O   UNL     1      20.906  61.648  36.611  1.00  0.00    -0.388 OA
ATOM     58  H   UNL     1      21.462  61.803  35.803  1.00  0.00     0.211 HD
ENDBRANCH  51  57
ENDBRANCH  45  46
ENDBRANCH   4  45
TORSDOF 11
ENDMDL
MODEL 9
REMARK VINA RESULT:   -11.693      3.082      4.792
REMARK INTER + INTRA:         -18.694
REMARK INTER:                 -17.373
REMARK INTRA:                  -1.321
REMARK UNBOUND:                -1.533
REMARK SMILES C[C@@H]1CC[C@@]2(NC1)O[C@H]1C[C@H]3[C@@H]4CC=C5C[C@@H](O[C@@H]6O[C@H](CO)[C@@H](O[C@@H]7O[C@@H](C)[C@H](O)[C@@H](O)[C@H]7O)[C@H](O)[C@H]6O)CC[C@]5(C)[C@H]4CC[C@]3(C)[C@H]1[C@@H]2C
REMARK SMILES IDX 19 1 20 2 21 3 24 4 36 5 38 6 18 7 17 8 2 9 3 10 7 11 4 12
REMARK SMILES IDX 6 13 5 14 8 15 50 16 9 17 49 18 10 19 47 20 11 21 46 22
REMARK SMILES IDX 12 23 45 24 13 25 44 26 14 27 42 28 15 29 41 30 16 31 40 32
REMARK SMILES IDX 1 33 51 35 48 36 43 37 39 38 22 40 23 41 37 43 25 45 26 46
REMARK SMILES IDX 27 47 34 48 28 49 32 50 30 51 29 52 35 53 33 55 31 57
REMARK H PARENT 6 34 39 39 23 42 37 44 35 54 33 56 31 58
ROOT
ATOM      1  C   UNL     1      23.764  61.539  38.305  1.00  0.00     0.282 C 
ATOM      2  O   UNL     1      22.425  62.024  38.204  1.00  0.00    -0.341 OA
ATOM      3  C   UNL     1      21.564  61.231  37.382  1.00  0.00     0.178 C 
ATOM      4  C   UNL     1      22.141  60.946  35.966  1.00  0.00     0.184 C 
ATOM      5  C   UNL     1      23.589  60.424  36.040  1.00  0.00     0.180 C 
ATOM      6  C   UNL     1      24.425  61.375  36.909  1.00  0.00     0.202 C 
ENDROOT
BRANCH   1   7
ATOM      7  O   UNL     1      23.798  60.314  39.041  1.00  0.00    -0.346 OA
BRANCH   7   8
ATOM      8  C   UNL     1      23.657  60.470  40.453  1.00  0.00     0.125 C 
ATOM      9  C   UNL     1      34.862  58.672  47.892  1.00  0.00    -0.000 C 
ATOM     10  C   UNL     1      35.274  58.496  46.403  1.00  0.00     0.009 C 
ATOM     11  C   UNL     1      33.664  57.768  48.254  1.00  0.00     0.087 C 
ATOM     12  C   UNL     1      34.309  57.587  45.633  1.00  0.00     0.053 C 
ATOM     13  N   UNL     1      32.524  58.028  47.357  1.00  0.00    -0.289 NA
ATOM     14  C   UNL     1      32.838  58.006  45.893  1.00  0.00     0.122 C 
ATOM     15  O   UNL     1      32.609  59.309  45.374  1.00  0.00    -0.357 OA
ATOM     16  C   UNL     1      31.887  57.106  45.069  1.00  0.00     0.039 C 
ATOM     17  C   UNL     1      31.202  59.386  45.231  1.00  0.00     0.125 C 
ATOM     18  C   UNL     1      30.641  57.974  44.983  1.00  0.00     0.031 C 
ATOM     19  C   UNL     1      30.691  60.274  44.083  1.00  0.00     0.037 C 
ATOM     20  C   UNL     1      29.834  58.081  43.649  1.00  0.00    -0.024 C 
ATOM     21  C   UNL     1      29.382  59.553  43.740  1.00  0.00     0.002 C 
ATOM     22  C   UNL     1      28.571  57.199  43.596  1.00  0.00     0.008 C 
ATOM     23  C   UNL     1      28.553  60.001  42.513  1.00  0.00     0.000 C 
ATOM     24  C   UNL     1      27.702  57.561  42.369  1.00  0.00     0.005 C 
ATOM     25  C   UNL     1      28.138  61.482  42.640  1.00  0.00     0.031 C 
ATOM     26  C   UNL     1      27.290  59.074  42.350  1.00  0.00     0.003 C 
ATOM     27  C   UNL     1      26.858  61.858  41.931  1.00  0.00    -0.027 C 
ATOM     28  C   UNL     1      26.497  59.525  41.048  1.00  0.00    -0.008 C 
ATOM     29  C   UNL     1      26.059  60.991  41.263  1.00  0.00    -0.065 C 
ATOM     30  C   UNL     1      25.272  58.590  40.718  1.00  0.00     0.014 C 
ATOM     31  C   UNL     1      24.653  61.510  40.976  1.00  0.00     0.063 C 
ATOM     32  C   UNL     1      23.911  59.127  41.161  1.00  0.00     0.033 C 
ATOM     33  C   UNL     1      34.529  60.143  48.193  1.00  0.00     0.009 C 
ATOM     34  H   UNL     1      31.712  57.431  47.629  1.00  0.00     0.125 HD
ATOM     35  C   UNL     1      31.632  55.666  45.534  1.00  0.00     0.012 C 
ATOM     36  C   UNL     1      30.731  57.778  42.392  1.00  0.00     0.012 C 
ATOM     37  C   UNL     1      27.408  59.502  39.781  1.00  0.00     0.016 C 
ENDBRANCH   7   8
ENDBRANCH   1   7
BRANCH   6  38
ATOM     38  O   UNL     1      24.597  62.617  36.258  1.00  0.00    -0.385 OA
ATOM     39  H   UNL     1      25.247  63.173  36.759  1.00  0.00     0.211 HD
ENDBRANCH   6  38
BRANCH   3  40
ATOM     40  C   UNL     1      21.048  59.964  38.095  1.00  0.00     0.191 C 
BRANCH  40  41
ATOM     41  O   UNL     1      20.558  60.279  39.369  1.00  0.00    -0.394 OA
ATOM     42  H   UNL     1      19.579  60.403  39.274  1.00  0.00     0.210 HD
ENDBRANCH  40  41
ENDBRANCH   3  40
BRANCH   5  43
ATOM     43  O   UNL     1      23.625  59.134  36.594  1.00  0.00    -0.387 OA
ATOM     44  H   UNL     1      23.583  58.494  35.837  1.00  0.00     0.211 HD
ENDBRANCH   5  43
BRANCH   4  45
ATOM     45  O   UNL     1      22.112  62.148  35.201  1.00  0.00    -0.341 OA
BRANCH  45  46
ATOM     46  C   UNL     1      20.789  62.606  34.935  1.00  0.00     0.282 C 
ATOM     47  O   UNL     1      20.569  62.529  33.526  1.00  0.00    -0.344 OA
ATOM     48  C   UNL     1      20.664  64.062  35.435  1.00  0.00     0.202 C 
ATOM     49  C   UNL     1      19.523  63.371  33.012  1.00  0.00     0.150 C 
ATOM     50  C   UNL     1      19.226  64.599  35.225  1.00  0.00     0.179 C 
ATOM     51  C   UNL     1      18.511  63.824  34.095  1.00  0.00     0.174 C 
ATOM     52  C   UNL     1      18.798  62.592  31.911  1.00  0.00     0.041 C 
BRANCH  48  53
ATOM     53  O   UNL     1      21.100  64.249  36.759  1.00  0.00    -0.385 OA
ATOM     54  H   UNL     1      20.307  64.193  37.350  1.00  0.00     0.211 HD
ENDBRANCH  48  53
BRANCH  50  55
ATOM     55  O   UNL     1      18.448  64.547  36.396  1.00  0.00    -0.387 OA
ATOM     56  H   UNL     1      17.498  64.666  36.136  1.00  0.00     0.211 HD
ENDBRANCH  50  55
BRANCH  51  57
ATOM     57  O   UNL     1      17.440  64.572  33.579  1.00  0.00    -0.388 OA
ATOM     58  H   UNL     1      17.821  65.407  33.199  1.00  0.00     0.211 HD
ENDBRANCH  51  57
ENDBRANCH  45  46
ENDBRANCH   4  45
TORSDOF 11
ENDMDL
