REMARK  Name = 
REMARK  17 active torsions:
REMARK  status: ('A' for Active; 'I' for Inactive)
REMARK    1  A    between atoms: C_1  and  C_2
REMARK    2  A    between atoms: C_4  and  O_5
REMARK    3  A    between atoms: O_5  and  C_6
REMARK    4  A    between atoms: C_14  and  O_15
REMARK    5  A    between atoms: C_16  and  C_17
REMARK    6  A    between atoms: C_18  and  C_19
REMARK    7  A    between atoms: C_28  and  O_29
REMARK    8  A    between atoms: C_30  and  C_31
REMARK    9  A    between atoms: C_34  and  O_35
REMARK   10  A    between atoms: C_36  and  O_37
REMARK   11  A    between atoms: C_38  and  O_39
REMARK   12  A    between atoms: O_39  and  C_40
REMARK   13  A    between atoms: C_42  and  C_43
REMARK   14  A    between atoms: C_43  and  O_44
REMARK   15  A    between atoms: C_45  and  O_46
REMARK   16  A    between atoms: C_47  and  O_48
REMARK   17  A    between atoms: C_49  and  O_50
REMARK                            x       y       z     vdW  Elec       q    Type
REMARK                         _______ _______ _______ _____ _____    ______ ____
ROOT
ATOM      1  C   UNL     1      25.880  61.422  41.018  0.00  0.00    +0.000 C 
ATOM      2  C   UNL     1      25.191  60.205  41.578  0.00  0.00    +0.000 C 
ATOM      3  C   UNL     1      25.704  59.498  42.615  0.00  0.00    +0.000 C 
ATOM      4  C   UNL     1      24.998  58.257  43.117  0.00  0.00    +0.000 C 
ATOM      5  C   UNL     1      25.966  57.065  43.092  0.00  0.00    +0.000 C 
ATOM      6  C   UNL     1      27.270  57.357  43.893  0.00  0.00    +0.000 C 
ATOM      7  C   UNL     1      27.959  58.640  43.304  0.00  0.00    +0.000 C 
ATOM      8  C   UNL     1      29.327  58.920  43.972  0.00  0.00    +0.000 C 
ATOM      9  C   UNL     1      30.249  57.691  43.864  0.00  0.00    +0.000 C 
ATOM     10  C   UNL     1      29.624  56.430  44.557  0.00  0.00    +0.000 C 
ATOM     11  C   UNL     1      29.525  56.682  46.094  0.00  0.00    +0.000 C 
ATOM     12  C   UNL     1      30.459  55.157  44.172  0.00  0.00    +0.000 C 
ATOM     13  C   UNL     1      29.986  54.847  42.731  0.00  0.00    +0.000 C 
ATOM     14  C   UNL     1      28.607  55.510  42.551  0.00  0.00    +0.000 C 
ATOM     15  C   UNL     1      28.228  56.105  43.932  0.00  0.00    +0.000 C 
ATOM     16  C   UNL     1      27.003  59.897  43.334  0.00  0.00    +0.000 C 
ATOM     17  C   UNL     1      26.631  60.340  44.779  0.00  0.00    +0.000 C 
ATOM     18  C   UNL     1      27.720  61.091  42.623  0.00  0.00    +0.000 C 
ATOM     19  C   UNL     1      26.735  62.119  42.083  0.00  0.00    +0.000 C 
ENDROOT
BRANCH  12  20
ATOM     20  C   UNL     1      30.298  53.981  45.148  0.00  0.00    +0.000 A 
ATOM     21  C   UNL     1      30.424  54.074  46.550  0.00  0.00    +0.000 A 
ATOM     22  O   UNL     1      30.254  53.001  47.320  0.00  0.00    +0.000 OA
ATOM     23  C   UNL     1      29.947  51.805  46.831  0.00  0.00    +0.000 A 
ATOM     24  O   UNL     1      29.803  50.860  47.587  0.00  0.00    +0.000 OA
ATOM     25  C   UNL     1      29.788  51.625  45.459  0.00  0.00    +0.000 A 
ATOM     26  C   UNL     1      29.963  52.721  44.620  0.00  0.00    +0.000 A 
ENDBRANCH  12  20
BRANCH   9  27
ATOM     27  O   UNL     1      31.536  57.964  44.364  0.00  0.00    +0.000 OA
ATOM     28  H   UNL     1      31.682  57.422  45.182  0.00  0.00    +0.000 HD
ENDBRANCH   9  27
BRANCH  15  29
ATOM     29  O   UNL     1      27.623  55.092  44.714  0.00  0.00    +0.000 OA
ATOM     30  H   UNL     1      26.884  55.487  45.244  0.00  0.00    +0.000 HD
ENDBRANCH  15  29
BRANCH   1  31
ATOM     31  O   UNL     1      24.938  62.342  40.474  0.00  0.00    +0.000 OA
BRANCH  31  35
ATOM     32  C   UNL     1      23.795  59.854  37.195  0.00  0.00    +0.000 C 
ATOM     33  C   UNL     1      23.533  61.374  37.281  0.00  0.00    +0.000 C 
ATOM     34  O   UNL     1      24.375  62.028  38.236  0.00  0.00    +0.000 OA
ATOM     35  C   UNL     1      24.027  61.703  39.578  0.00  0.00    +0.000 C 
ATOM     36  C   UNL     1      22.601  62.184  39.898  0.00  0.00    +0.000 C 
ATOM     37  C   UNL     1      21.619  61.473  38.943  0.00  0.00    +0.000 C 
ATOM     38  C   UNL     1      22.035  61.724  37.484  0.00  0.00    +0.000 C 
BRANCH  36  39
ATOM     39  O   UNL     1      22.266  61.930  41.241  0.00  0.00    +0.000 OA
ATOM     40  H   UNL     1      21.277  61.972  41.321  0.00  0.00    +0.000 HD
ENDBRANCH  36  39
BRANCH  37  41
ATOM     41  O   UNL     1      20.288  61.867  39.170  0.00  0.00    +0.000 OA
ATOM     42  H   UNL     1      19.789  61.075  39.501  0.00  0.00    +0.000 HD
ENDBRANCH  37  41
BRANCH  38  43
ATOM     43  O   UNL     1      21.821  63.098  37.167  0.00  0.00    +0.000 OA
BRANCH  43  44
ATOM     44  C   UNL     1      21.056  63.277  35.979  0.00  0.00    +0.000 C 
ATOM     45  O   UNL     1      19.811  62.606  36.127  0.00  0.00    +0.000 OA
ATOM     46  C   UNL     1      18.969  62.848  35.005  0.00  0.00    +0.000 C 
ATOM     47  C   UNL     1      19.603  62.266  33.712  0.00  0.00    +0.000 C 
ATOM     48  C   UNL     1      21.003  62.871  33.503  0.00  0.00    +0.000 C 
ATOM     49  C   UNL     1      21.836  62.685  34.788  0.00  0.00    +0.000 C 
BRANCH  47  50
ATOM     50  O   UNL     1      18.789  62.496  32.588  0.00  0.00    +0.000 OA
ATOM     51  H   UNL     1      19.329  63.002  31.925  0.00  0.00    +0.000 HD
ENDBRANCH  47  50
BRANCH  48  52
ATOM     52  O   UNL     1      21.645  62.311  32.387  0.00  0.00    +0.000 OA
ATOM     53  H   UNL     1      21.121  61.516  32.106  0.00  0.00    +0.000 HD
ENDBRANCH  48  52
BRANCH  49  54
ATOM     54  O   UNL     1      23.100  63.287  34.652  0.00  0.00    +0.000 OA
ATOM     55  H   UNL     1      22.982  64.266  34.759  0.00  0.00    +0.000 HD
ENDBRANCH  49  54
BRANCH  46  56
ATOM     56  C   UNL     1      17.590  62.228  35.279  0.00  0.00    +0.000 C 
BRANCH  56  57
ATOM     57  O   UNL     1      17.514  61.723  36.587  0.00  0.00    +0.000 OA
ATOM     58  H   UNL     1      17.058  62.413  37.138  0.00  0.00    +0.000 HD
ENDBRANCH  56  57
ENDBRANCH  46  56
ENDBRANCH  43  44
ENDBRANCH  38  43
ENDBRANCH  31  35
ENDBRANCH   1  31
TORSDOF 14
