REMARK  Name = 
REMARK  9 active torsions:
REMARK  status: ('A' for Active; 'I' for Inactive)
REMARK    1  A    between atoms: C_1  and  C_2
REMARK    2  A    between atoms: C_7  and  O_8
REMARK    3  A    between atoms: C_15  and  C_16
REMARK    4  A    between atoms: C_15  and  C_17
REMARK    5  A    between atoms: C_28  and  C_29
REMARK    6  A    between atoms: C_29  and  C_30
REMARK    7  A    between atoms: C_30  and  C_31
REMARK    8  A    between atoms: C_43  and  C_44
REMARK    9  A    between atoms: C_44  and  N_45
REMARK                            x       y       z     vdW  Elec       q    Type
REMARK                         _______ _______ _______ _____ _____    ______ ____
ROOT
ATOM      1  C   UNL     1      23.487  59.748  40.623  0.00  0.00    +0.000 C 
ENDROOT
BRANCH   1   2
ATOM      2  C   UNL     1      23.487  60.663  39.419  0.00  0.00    +0.000 A 
ATOM      3  C   UNL     1      24.731  61.132  38.963  0.00  0.00    +0.000 A 
ATOM      4  C   UNL     1      24.800  61.974  37.861  0.00  0.00    +0.000 A 
ATOM      5  N   UNL     1      26.043  62.490  37.424  0.00  0.00    +0.000 N 
ATOM      6  N   UNL     1      23.665  62.307  37.205  0.00  0.00    +0.000 NA
ATOM      7  C   UNL     1      22.435  61.869  37.591  0.00  0.00    +0.000 A 
ATOM      8  C   UNL     1      22.308  61.044  38.725  0.00  0.00    +0.000 A 
ATOM      9  C   UNL     1      20.929  60.671  39.214  0.00  0.00    +0.000 C 
ATOM     10  C   UNL     1      19.813  60.694  38.154  0.00  0.00    +0.000 C 
ATOM     11  C   UNL     1      19.976  61.732  37.062  0.00  0.00    +0.000 A 
ATOM     12  C   UNL     1      21.252  62.266  36.794  0.00  0.00    +0.000 A 
ATOM     13  C   UNL     1      21.419  63.136  35.711  0.00  0.00    +0.000 A 
ATOM     14  C   UNL     1      20.332  63.484  34.914  0.00  0.00    +0.000 A 
ATOM     15  N   UNL     1      19.106  62.973  35.190  0.00  0.00    +0.000 NA
ATOM     16  C   UNL     1      18.895  62.101  36.217  0.00  0.00    +0.000 A 
ATOM     17  N   UNL     1      17.588  61.575  36.391  0.00  0.00    +0.000 N 
ATOM     18  H   UNL     1      26.915  62.264  37.926  0.00  0.00    +0.000 HD
ATOM     19  H   UNL     1      26.084  63.125  36.614  0.00  0.00    +0.000 HD
ATOM     20  H   UNL     1      16.833  61.866  35.755  0.00  0.00    +0.000 HD
ATOM     21  H   UNL     1      17.359  60.894  37.127  0.00  0.00    +0.000 HD
BRANCH  14  22
ATOM     22  C   UNL     1      20.539  64.426  33.765  0.00  0.00    +0.000 C 
BRANCH  22  23
ATOM     23  N   UNL     1      19.323  64.483  32.967  0.00  0.00    +0.000 N 
ATOM     24  C   UNL     1      19.171  63.902  31.743  0.00  0.00    +0.000 A 
ATOM     25  C   UNL     1      17.914  64.217  31.300  0.00  0.00    +0.000 A 
ATOM     26  C   UNL     1      17.045  64.063  30.250  0.00  0.00    +0.000 A 
ATOM     27  C   UNL     1      15.896  64.760  30.658  0.00  0.00    +0.000 A 
ATOM     28  N   UNL     1      16.078  65.308  31.892  0.00  0.00    +0.000 N 
ATOM     29  C   UNL     1      17.323  64.950  32.228  0.00  0.00    +0.000 A 
ATOM     30  C   UNL     1      18.175  65.144  33.283  0.00  0.00    +0.000 A 
ATOM     31  H   UNL     1      15.403  65.878  32.447  0.00  0.00    +0.000 HD
ENDBRANCH  22  23
ENDBRANCH  14  22
ENDBRANCH   1   2
BRANCH   1  32
ATOM     32  C   UNL     1      24.693  58.799  40.719  0.00  0.00    +0.000 C 
BRANCH  32  59
ATOM     33  C   UNL     1      28.883  53.528  52.291  0.00  0.00    +0.000 C 
ATOM     34  C   UNL     1      28.544  53.974  50.899  0.00  0.00    +0.000 A 
ATOM     35  C   UNL     1      27.886  53.123  50.016  0.00  0.00    +0.000 A 
ATOM     36  C   UNL     1      27.578  53.571  48.733  0.00  0.00    +0.000 A 
ATOM     37  O   UNL     1      27.002  52.801  47.990  0.00  0.00    +0.000 OA
ATOM     38  C   UNL     1      27.930  54.891  48.334  0.00  0.00    +0.000 A 
ATOM     39  C   UNL     1      27.669  55.465  47.051  0.00  0.00    +0.000 A 
ATOM     40  C   UNL     1      28.109  56.790  46.758  0.00  0.00    +0.000 A 
ATOM     41  C   UNL     1      28.737  57.545  47.769  0.00  0.00    +0.000 A 
ATOM     42  C   UNL     1      28.994  56.986  49.015  0.00  0.00    +0.000 A 
ATOM     43  C   UNL     1      28.610  55.679  49.303  0.00  0.00    +0.000 A 
ATOM     44  O   UNL     1      28.873  55.203  50.520  0.00  0.00    +0.000 OA
ATOM     45  O   UNL     1      29.076  58.841  47.562  0.00  0.00    +0.000 OA
ATOM     46  C   UNL     1      28.511  59.614  46.562  0.00  0.00    +0.000 C 
ATOM     47  C   UNL     1      27.045  59.963  46.928  0.00  0.00    +0.000 C 
ATOM     48  C   UNL     1      29.310  60.926  46.457  0.00  0.00    +0.000 C 
ATOM     49  C   UNL     1      28.592  58.819  45.240  0.00  0.00    +0.000 C 
ATOM     50  O   UNL     1      28.052  59.587  44.223  0.00  0.00    +0.000 OA
ATOM     51  C   UNL     1      27.915  59.201  42.939  0.00  0.00    +0.000 C 
ATOM     52  O   UNL     1      28.762  59.514  42.114  0.00  0.00    +0.000 OA
ATOM     53  C   UNL     1      26.671  58.481  42.515  0.00  0.00    +0.000 C 
ATOM     54  C   UNL     1      26.742  56.979  42.194  0.00  0.00    +0.000 C 
ATOM     55  C   UNL     1      27.115  56.037  43.345  0.00  0.00    +0.000 C 
ATOM     56  C   UNL     1      28.314  56.481  44.205  0.00  0.00    +0.000 C 
ATOM     57  C   UNL     1      27.875  57.436  45.373  0.00  0.00    +0.000 C 
ATOM     58  O   UNL     1      25.475  59.046  42.992  0.00  0.00    +0.000 OA
ATOM     59  C   UNL     1      25.808  59.331  41.639  0.00  0.00    +0.000 C 
BRANCH  39  60
ATOM     60  O   UNL     1      27.010  54.800  46.079  0.00  0.00    +0.000 OA
ATOM     61  H   UNL     1      26.083  54.543  46.053  0.00  0.00    +0.000 HD
ENDBRANCH  39  60
ENDBRANCH  32  59
ENDBRANCH   1  32
TORSDOF 6
