MODEL 1
REMARK VINA RESULT:   -12.786      0.000      0.000
REMARK INTER + INTRA:         -20.758
REMARK INTER:                 -19.140
REMARK INTRA:                  -1.618
REMARK UNBOUND:                -1.618
REMARK SMILES CO[C@@H]1[C@@H](O)[C@H](O[C@H]2CC[C@@]3(C)[C@@H](CC[C@@H]4[C@@H]3CC[C@]3(C)[C@@H](C5=CC(=O)OC5)CC[C@]43O)C2)O[C@H](C)[C@@H]1O[C@@H]1OC[C@@H](O)[C@H](O)[C@H]1O
REMARK SMILES IDX 3 1 4 2 6 3 34 4 35 5 36 6 37 7 2 8 1 9 5 10 38 12 39 13
REMARK SMILES IDX 40 14 46 15 41 16 44 17 42 18 47 19 45 21 43 23 7 25 8 26
REMARK SMILES IDX 9 27 33 28 10 29 13 30 11 31 14 32 17 33 15 34 16 35 18 36
REMARK SMILES IDX 31 37 19 38 30 39 20 40 29 41 22 42 12 43 21 44 32 45 23 47
REMARK SMILES IDX 24 48 28 49 25 50 27 51 26 52
REMARK H PARENT 5 11 47 20 45 22 43 24 32 46
ROOT
ATOM      1  C   UNL     1      27.366  58.369  42.151  1.00  0.00     0.183 C 
ATOM      2  C   UNL     1      26.063  57.825  41.548  1.00  0.00     0.202 C 
ATOM      3  C   UNL     1      24.824  58.554  42.137  1.00  0.00     0.282 C 
ATOM      4  O   UNL     1      24.789  58.528  43.565  1.00  0.00    -0.344 OA
ATOM      5  C   UNL     1      25.978  59.016  44.189  1.00  0.00     0.150 C 
ATOM      6  C   UNL     1      26.049  60.560  44.191  1.00  0.00     0.041 C 
ATOM      7  C   UNL     1      27.253  58.292  43.681  1.00  0.00     0.182 C 
ENDROOT
BRANCH   1   8
ATOM      8  O   UNL     1      27.574  59.713  41.742  1.00  0.00    -0.376 OA
ATOM      9  C   UNL     1      28.158  59.770  40.461  1.00  0.00     0.195 C 
ENDBRANCH   1   8
BRANCH   2  10
ATOM     10  O   UNL     1      25.986  56.430  41.755  1.00  0.00    -0.385 OA
ATOM     11  H   UNL     1      25.181  56.069  41.302  1.00  0.00     0.211 HD
ENDBRANCH   2  10
BRANCH   7  12
ATOM     12  O   UNL     1      28.418  58.838  44.283  1.00  0.00    -0.341 OA
BRANCH  12  13
ATOM     13  C   UNL     1      29.581  58.017  44.184  1.00  0.00     0.282 C 
ATOM     14  O   UNL     1      30.273  57.985  45.427  1.00  0.00    -0.347 OA
ATOM     15  C   UNL     1      30.513  58.514  43.039  1.00  0.00     0.202 C 
ATOM     16  C   UNL     1      30.702  59.283  45.815  1.00  0.00     0.198 C 
ATOM     17  C   UNL     1      31.029  59.923  43.381  1.00  0.00     0.179 C 
ATOM     18  C   UNL     1      31.690  59.892  44.786  1.00  0.00     0.171 C 
BRANCH  15  19
ATOM     19  O   UNL     1      31.621  57.658  42.874  1.00  0.00    -0.385 OA
ATOM     20  H   UNL     1      31.376  56.933  42.243  1.00  0.00     0.211 HD
ENDBRANCH  15  19
BRANCH  17  21
ATOM     21  O   UNL     1      29.964  60.847  43.287  1.00  0.00    -0.387 OA
ATOM     22  H   UNL     1      29.958  61.460  44.065  1.00  0.00     0.211 HD
ENDBRANCH  17  21
BRANCH  18  23
ATOM     23  O   UNL     1      32.909  59.179  44.743  1.00  0.00    -0.388 OA
ATOM     24  H   UNL     1      33.493  59.552  44.034  1.00  0.00     0.211 HD
ENDBRANCH  18  23
ENDBRANCH  12  13
ENDBRANCH   7  12
BRANCH   3  25
ATOM     25  O   UNL     1      24.728  59.894  41.662  1.00  0.00    -0.347 OA
BRANCH  25  26
ATOM     26  C   UNL     1      23.808  60.053  40.587  1.00  0.00     0.122 C 
ATOM     27  C   UNL     1      22.961  61.318  40.794  1.00  0.00     0.033 C 
ATOM     28  C   UNL     1      24.590  60.138  39.270  1.00  0.00     0.036 C 
ATOM     29  C   UNL     1      21.993  61.525  39.602  1.00  0.00     0.010 C 
ATOM     30  C   UNL     1      23.608  60.311  38.094  1.00  0.00    -0.002 C 
ATOM     31  C   UNL     1      22.733  61.616  38.223  1.00  0.00    -0.026 C 
ATOM     32  C   UNL     1      24.330  60.217  36.742  1.00  0.00     0.005 C 
ATOM     33  C   UNL     1      21.701  61.600  37.023  1.00  0.00     0.001 C 
ATOM     34  C   UNL     1      23.302  60.195  35.605  1.00  0.00     0.007 C 
ATOM     35  C   UNL     1      22.430  61.464  35.635  1.00  0.00     0.025 C 
ATOM     36  C   UNL     1      20.639  62.755  37.011  1.00  0.00     0.005 C 
ATOM     37  C   UNL     1      21.433  61.551  34.442  1.00  0.00     0.074 C 
ATOM     38  C   UNL     1      20.779  63.692  35.798  1.00  0.00     0.010 C 
ATOM     39  C   UNL     1      20.297  60.500  34.455  1.00  0.00     0.037 C 
ATOM     40  C   UNL     1      20.657  62.939  34.427  1.00  0.00     0.003 C 
ATOM     41  C   UNL     1      19.294  61.127  33.504  1.00  0.00     0.012 C 
ATOM     42  C   UNL     1      19.170  62.533  34.098  1.00  0.00     0.028 C 
ATOM     43  C   UNL     1      23.584  62.922  38.187  1.00  0.00     0.012 C 
ATOM     44  C   UNL     1      21.247  63.880  33.335  1.00  0.00     0.015 C 
BRANCH  37  45
ATOM     45  O   UNL     1      22.158  61.418  33.230  1.00  0.00    -0.389 OA
ATOM     46  H   UNL     1      23.131  61.501  33.405  1.00  0.00     0.211 HD
ENDBRANCH  37  45
BRANCH  42  47
ATOM     47  C   UNL     1      18.337  63.510  33.277  1.00  0.00    -0.022 C 
ATOM     48  C   UNL     1      18.058  63.390  31.983  1.00  0.00     0.096 C 
ATOM     49  C   UNL     1      17.666  64.756  33.817  1.00  0.00     0.265 C 
ATOM     50  C   UNL     1      17.239  64.525  31.647  1.00  0.00     0.331 C 
ATOM     51  O   UNL     1      17.022  65.299  32.721  1.00  0.00    -0.458 OA
ATOM     52  O   UNL     1      16.792  64.764  30.538  1.00  0.00    -0.247 OA
ENDBRANCH  42  47
ENDBRANCH  25  26
ENDBRANCH   3  25
TORSDOF 11
ENDMDL
MODEL 2
REMARK VINA RESULT:   -12.540      1.457      2.156
REMARK INTER + INTRA:         -20.389
REMARK INTER:                 -19.192
REMARK INTRA:                  -1.197
REMARK UNBOUND:                -1.618
REMARK SMILES CO[C@@H]1[C@@H](O)[C@H](O[C@H]2CC[C@@]3(C)[C@@H](CC[C@@H]4[C@@H]3CC[C@]3(C)[C@@H](C5=CC(=O)OC5)CC[C@]43O)C2)O[C@H](C)[C@@H]1O[C@@H]1OC[C@@H](O)[C@H](O)[C@H]1O
REMARK SMILES IDX 3 1 4 2 6 3 34 4 35 5 36 6 37 7 2 8 1 9 5 10 38 12 39 13
REMARK SMILES IDX 40 14 46 15 41 16 44 17 42 18 47 19 45 21 43 23 7 25 8 26
REMARK SMILES IDX 9 27 33 28 10 29 13 30 11 31 14 32 17 33 15 34 16 35 18 36
REMARK SMILES IDX 31 37 19 38 30 39 20 40 29 41 22 42 12 43 21 44 32 45 23 47
REMARK SMILES IDX 24 48 28 49 25 50 27 51 26 52
REMARK H PARENT 5 11 47 20 45 22 43 24 32 46
ROOT
ATOM      1  C   UNL     1      27.326  58.293  42.702  1.00  0.00     0.183 C 
ATOM      2  C   UNL     1      26.246  57.666  41.810  1.00  0.00     0.202 C 
ATOM      3  C   UNL     1      24.898  58.429  41.938  1.00  0.00     0.282 C 
ATOM      4  O   UNL     1      24.454  58.550  43.291  1.00  0.00    -0.344 OA
ATOM      5  C   UNL     1      25.419  59.122  44.176  1.00  0.00     0.150 C 
ATOM      6  C   UNL     1      25.505  60.658  44.037  1.00  0.00     0.041 C 
ATOM      7  C   UNL     1      26.777  58.372  44.134  1.00  0.00     0.182 C 
ENDROOT
BRANCH   1   8
ATOM      8  O   UNL     1      27.659  59.591  42.233  1.00  0.00    -0.376 OA
ATOM      9  C   UNL     1      28.507  59.522  41.108  1.00  0.00     0.195 C 
ENDBRANCH   1   8
BRANCH   2  10
ATOM     10  O   UNL     1      26.095  56.299  42.130  1.00  0.00    -0.385 OA
ATOM     11  H   UNL     1      26.928  55.809  41.907  1.00  0.00     0.211 HD
ENDBRANCH   2  10
BRANCH   7  12
ATOM     12  O   UNL     1      27.726  58.999  44.986  1.00  0.00    -0.341 OA
BRANCH  12  13
ATOM     13  C   UNL     1      28.378  58.119  45.900  1.00  0.00     0.282 C 
ATOM     14  O   UNL     1      27.421  57.450  46.713  1.00  0.00    -0.347 OA
ATOM     15  C   UNL     1      29.409  58.894  46.775  1.00  0.00     0.202 C 
ATOM     16  C   UNL     1      26.658  58.372  47.481  1.00  0.00     0.198 C 
ATOM     17  C   UNL     1      28.662  59.920  47.647  1.00  0.00     0.179 C 
ATOM     18  C   UNL     1      27.553  59.188  48.450  1.00  0.00     0.171 C 
BRANCH  15  19
ATOM     19  O   UNL     1      30.122  58.021  47.620  1.00  0.00    -0.385 OA
ATOM     20  H   UNL     1      30.672  58.557  48.247  1.00  0.00     0.211 HD
ENDBRANCH  15  19
BRANCH  17  21
ATOM     21  O   UNL     1      28.165  60.958  46.827  1.00  0.00    -0.387 OA
ATOM     22  H   UNL     1      28.583  61.824  47.060  1.00  0.00     0.211 HD
ENDBRANCH  17  21
BRANCH  18  23
ATOM     23  O   UNL     1      28.125  58.372  49.451  1.00  0.00    -0.388 OA
ATOM     24  H   UNL     1      27.747  57.456  49.396  1.00  0.00     0.211 HD
ENDBRANCH  18  23
ENDBRANCH  12  13
ENDBRANCH   7  12
BRANCH   3  25
ATOM     25  O   UNL     1      24.960  59.710  41.319  1.00  0.00    -0.347 OA
BRANCH  25  26
ATOM     26  C   UNL     1      23.995  59.892  40.287  1.00  0.00     0.122 C 
ATOM     27  C   UNL     1      23.127  61.124  40.582  1.00  0.00     0.033 C 
ATOM     28  C   UNL     1      24.722  60.054  38.947  1.00  0.00     0.036 C 
ATOM     29  C   UNL     1      22.108  61.358  39.438  1.00  0.00     0.010 C 
ATOM     30  C   UNL     1      23.691  60.252  37.818  1.00  0.00    -0.002 C 
ATOM     31  C   UNL     1      22.791  61.527  38.037  1.00  0.00    -0.026 C 
ATOM     32  C   UNL     1      24.361  60.235  36.436  1.00  0.00     0.005 C 
ATOM     33  C   UNL     1      21.713  61.536  36.878  1.00  0.00     0.001 C 
ATOM     34  C   UNL     1      23.291  60.235  35.340  1.00  0.00     0.007 C 
ATOM     35  C   UNL     1      22.391  61.479  35.459  1.00  0.00     0.025 C 
ATOM     36  C   UNL     1      20.625  62.663  36.957  1.00  0.00     0.005 C 
ATOM     37  C   UNL     1      21.346  61.592  34.310  1.00  0.00     0.074 C 
ATOM     38  C   UNL     1      20.694  63.655  35.782  1.00  0.00     0.010 C 
ATOM     39  C   UNL     1      20.237  60.513  34.319  1.00  0.00     0.037 C 
ATOM     40  C   UNL     1      20.537  62.959  34.385  1.00  0.00     0.003 C 
ATOM     41  C   UNL     1      19.182  61.154  33.436  1.00  0.00     0.012 C 
ATOM     42  C   UNL     1      19.048  62.529  34.095  1.00  0.00     0.028 C 
ATOM     43  C   UNL     1      23.608  62.855  38.027  1.00  0.00     0.012 C 
ATOM     44  C   UNL     1      21.060  63.960  33.314  1.00  0.00     0.015 C 
BRANCH  37  45
ATOM     45  O   UNL     1      22.025  61.530  33.066  1.00  0.00    -0.389 OA
ATOM     46  H   UNL     1      21.933  60.622  32.675  1.00  0.00     0.211 HD
ENDBRANCH  37  45
BRANCH  42  47
ATOM     47  C   UNL     1      18.160  63.519  33.351  1.00  0.00    -0.022 C 
ATOM     48  C   UNL     1      17.369  64.425  33.918  1.00  0.00     0.096 C 
ATOM     49  C   UNL     1      18.067  63.650  31.846  1.00  0.00     0.265 C 
ATOM     50  C   UNL     1      16.744  65.138  32.835  1.00  0.00     0.331 C 
ATOM     51  O   UNL     1      17.163  64.677  31.647  1.00  0.00    -0.458 OA
ATOM     52  O   UNL     1      15.939  66.045  32.964  1.00  0.00    -0.247 OA
ENDBRANCH  42  47
ENDBRANCH  25  26
ENDBRANCH   3  25
TORSDOF 11
ENDMDL
MODEL 3
REMARK VINA RESULT:   -12.388      2.319     13.269
REMARK INTER + INTRA:         -20.161
REMARK INTER:                 -18.521
REMARK INTRA:                  -1.640
REMARK UNBOUND:                -1.618
REMARK SMILES CO[C@@H]1[C@@H](O)[C@H](O[C@H]2CC[C@@]3(C)[C@@H](CC[C@@H]4[C@@H]3CC[C@]3(C)[C@@H](C5=CC(=O)OC5)CC[C@]43O)C2)O[C@H](C)[C@@H]1O[C@@H]1OC[C@@H](O)[C@H](O)[C@H]1O
REMARK SMILES IDX 3 1 4 2 6 3 34 4 35 5 36 6 37 7 2 8 1 9 5 10 38 12 39 13
REMARK SMILES IDX 40 14 46 15 41 16 44 17 42 18 47 19 45 21 43 23 7 25 8 26
REMARK SMILES IDX 9 27 33 28 10 29 13 30 11 31 14 32 17 33 15 34 16 35 18 36
REMARK SMILES IDX 31 37 19 38 30 39 20 40 29 41 22 42 12 43 21 44 32 45 23 47
REMARK SMILES IDX 24 48 28 49 25 50 27 51 26 52
REMARK H PARENT 5 11 47 20 45 22 43 24 32 46
ROOT
ATOM      1  C   UNL     1      21.823  60.938  36.282  1.00  0.00     0.183 C 
ATOM      2  C   UNL     1      22.980  59.941  36.438  1.00  0.00     0.202 C 
ATOM      3  C   UNL     1      24.223  60.618  37.080  1.00  0.00     0.282 C 
ATOM      4  O   UNL     1      24.638  61.794  36.382  1.00  0.00    -0.344 OA
ATOM      5  C   UNL     1      23.603  62.762  36.198  1.00  0.00     0.150 C 
ATOM      6  C   UNL     1      23.331  63.583  37.478  1.00  0.00     0.041 C 
ATOM      7  C   UNL     1      22.346  62.160  35.513  1.00  0.00     0.182 C 
ENDROOT
BRANCH   1   8
ATOM      8  O   UNL     1      21.338  61.332  37.557  1.00  0.00    -0.376 OA
ATOM      9  C   UNL     1      20.692  60.262  38.208  1.00  0.00     0.195 C 
ENDBRANCH   1   8
BRANCH   2  10
ATOM     10  O   UNL     1      23.294  59.372  35.184  1.00  0.00    -0.385 OA
ATOM     11  H   UNL     1      23.730  58.491  35.317  1.00  0.00     0.211 HD
ENDBRANCH   2  10
BRANCH   7  12
ATOM     12  O   UNL     1      21.321  63.136  35.393  1.00  0.00    -0.341 OA
BRANCH  12  13
ATOM     13  C   UNL     1      20.712  63.205  34.105  1.00  0.00     0.282 C 
ATOM     14  O   UNL     1      20.430  64.557  33.761  1.00  0.00    -0.347 OA
ATOM     15  C   UNL     1      19.420  62.336  34.056  1.00  0.00     0.202 C 
ATOM     16  C   UNL     1      19.531  65.151  34.688  1.00  0.00     0.198 C 
ATOM     17  C   UNL     1      18.383  62.914  35.036  1.00  0.00     0.179 C 
ATOM     18  C   UNL     1      18.165  64.417  34.712  1.00  0.00     0.171 C 
BRANCH  15  19
ATOM     19  O   UNL     1      18.858  62.326  32.763  1.00  0.00    -0.385 OA
ATOM     20  H   UNL     1      17.872  62.390  32.840  1.00  0.00     0.211 HD
ENDBRANCH  15  19
BRANCH  17  21
ATOM     21  O   UNL     1      18.815  62.687  36.362  1.00  0.00    -0.387 OA
ATOM     22  H   UNL     1      18.105  62.250  36.895  1.00  0.00     0.211 HD
ENDBRANCH  17  21
BRANCH  18  23
ATOM     23  O   UNL     1      17.469  64.562  33.491  1.00  0.00    -0.388 OA
ATOM     24  H   UNL     1      17.854  65.314  32.971  1.00  0.00     0.211 HD
ENDBRANCH  18  23
ENDBRANCH  12  13
ENDBRANCH   7  12
BRANCH   3  25
ATOM     25  O   UNL     1      24.011  60.907  38.458  1.00  0.00    -0.347 OA
BRANCH  25  26
ATOM     26  C   UNL     1      25.194  60.822  39.247  1.00  0.00     0.122 C 
ATOM     27  C   UNL     1      25.073  61.721  40.486  1.00  0.00     0.033 C 
ATOM     28  C   UNL     1      25.413  59.361  39.661  1.00  0.00     0.036 C 
ATOM     29  C   UNL     1      26.336  61.594  41.375  1.00  0.00     0.010 C 
ATOM     30  C   UNL     1      26.690  59.251  40.517  1.00  0.00    -0.002 C 
ATOM     31  C   UNL     1      26.617  60.120  41.829  1.00  0.00    -0.026 C 
ATOM     32  C   UNL     1      27.051  57.785  40.801  1.00  0.00     0.005 C 
ATOM     33  C   UNL     1      28.027  60.005  42.539  1.00  0.00     0.001 C 
ATOM     34  C   UNL     1      28.423  57.710  41.478  1.00  0.00     0.007 C 
ATOM     35  C   UNL     1      28.422  58.503  42.798  1.00  0.00     0.025 C 
ATOM     36  C   UNL     1      28.229  60.888  43.820  1.00  0.00     0.005 C 
ATOM     37  C   UNL     1      29.758  58.381  43.588  1.00  0.00     0.074 C 
ATOM     38  C   UNL     1      28.436  60.058  45.100  1.00  0.00     0.010 C 
ATOM     39  C   UNL     1      30.982  59.056  42.923  1.00  0.00     0.037 C 
ATOM     40  C   UNL     1      29.667  59.090  45.008  1.00  0.00     0.003 C 
ATOM     41  C   UNL     1      31.937  59.175  44.095  1.00  0.00     0.012 C 
ATOM     42  C   UNL     1      31.040  59.855  45.134  1.00  0.00     0.028 C 
ATOM     43  C   UNL     1      25.484  59.661  42.798  1.00  0.00     0.012 C 
ATOM     44  C   UNL     1      29.500  58.030  46.136  1.00  0.00     0.015 C 
BRANCH  37  45
ATOM     45  O   UNL     1      30.052  57.006  43.780  1.00  0.00    -0.389 OA
ATOM     46  H   UNL     1      29.264  56.454  43.536  1.00  0.00     0.211 HD
ENDBRANCH  37  45
BRANCH  42  47
ATOM     47  C   UNL     1      31.648  59.989  46.524  1.00  0.00    -0.022 C 
ATOM     48  C   UNL     1      31.159  60.733  47.512  1.00  0.00     0.096 C 
ATOM     49  C   UNL     1      32.886  59.268  47.012  1.00  0.00     0.265 C 
ATOM     50  C   UNL     1      32.045  60.539  48.630  1.00  0.00     0.331 C 
ATOM     51  O   UNL     1      33.034  59.687  48.321  1.00  0.00    -0.458 OA
ATOM     52  O   UNL     1      31.925  61.070  49.721  1.00  0.00    -0.247 OA
ENDBRANCH  42  47
ENDBRANCH  25  26
ENDBRANCH   3  25
TORSDOF 11
ENDMDL
MODEL 4
REMARK VINA RESULT:   -12.262      2.441     13.305
REMARK INTER + INTRA:         -19.973
REMARK INTER:                 -18.427
REMARK INTRA:                  -1.546
REMARK UNBOUND:                -1.618
REMARK SMILES CO[C@@H]1[C@@H](O)[C@H](O[C@H]2CC[C@@]3(C)[C@@H](CC[C@@H]4[C@@H]3CC[C@]3(C)[C@@H](C5=CC(=O)OC5)CC[C@]43O)C2)O[C@H](C)[C@@H]1O[C@@H]1OC[C@@H](O)[C@H](O)[C@H]1O
REMARK SMILES IDX 3 1 4 2 6 3 34 4 35 5 36 6 37 7 2 8 1 9 5 10 38 12 39 13
REMARK SMILES IDX 40 14 46 15 41 16 44 17 42 18 47 19 45 21 43 23 7 25 8 26
REMARK SMILES IDX 9 27 33 28 10 29 13 30 11 31 14 32 17 33 15 34 16 35 18 36
REMARK SMILES IDX 31 37 19 38 30 39 20 40 29 41 22 42 12 43 21 44 32 45 23 47
REMARK SMILES IDX 24 48 28 49 25 50 27 51 26 52
REMARK H PARENT 5 11 47 20 45 22 43 24 32 46
ROOT
ATOM      1  C   UNL     1      23.376  61.734  37.701  1.00  0.00     0.183 C 
ATOM      2  C   UNL     1      24.441  61.899  38.794  1.00  0.00     0.202 C 
ATOM      3  C   UNL     1      23.934  61.357  40.159  1.00  0.00     0.282 C 
ATOM      4  O   UNL     1      22.685  61.928  40.555  1.00  0.00    -0.344 OA
ATOM      5  C   UNL     1      21.651  61.813  39.576  1.00  0.00     0.150 C 
ATOM      6  C   UNL     1      21.028  60.400  39.545  1.00  0.00     0.041 C 
ATOM      7  C   UNL     1      22.076  62.384  38.197  1.00  0.00     0.182 C 
ENDROOT
BRANCH   1   8
ATOM      8  O   UNL     1      23.162  60.357  37.427  1.00  0.00    -0.376 OA
ATOM      9  C   UNL     1      24.037  59.896  36.424  1.00  0.00     0.195 C 
ENDBRANCH   1   8
BRANCH   2  10
ATOM     10  O   UNL     1      24.822  63.256  38.889  1.00  0.00    -0.385 OA
ATOM     11  H   UNL     1      24.439  63.654  39.712  1.00  0.00     0.211 HD
ENDBRANCH   2  10
BRANCH   7  12
ATOM     12  O   UNL     1      21.045  62.205  37.237  1.00  0.00    -0.341 OA
BRANCH  12  13
ATOM     13  C   UNL     1      21.047  63.158  36.175  1.00  0.00     0.282 C 
ATOM     14  O   UNL     1      19.735  63.664  35.958  1.00  0.00    -0.347 OA
ATOM     15  C   UNL     1      21.627  62.533  34.871  1.00  0.00     0.202 C 
ATOM     16  C   UNL     1      18.834  62.627  35.596  1.00  0.00     0.198 C 
ATOM     17  C   UNL     1      20.703  61.393  34.403  1.00  0.00     0.179 C 
ATOM     18  C   UNL     1      19.255  61.938  34.271  1.00  0.00     0.171 C 
BRANCH  15  19
ATOM     19  O   UNL     1      21.717  63.490  33.840  1.00  0.00    -0.385 OA
ATOM     20  H   UNL     1      22.668  63.594  33.580  1.00  0.00     0.211 HD
ENDBRANCH  15  19
BRANCH  17  21
ATOM     21  O   UNL     1      20.811  60.306  35.299  1.00  0.00    -0.387 OA
ATOM     22  H   UNL     1      19.937  60.108  35.721  1.00  0.00     0.211 HD
ENDBRANCH  17  21
BRANCH  18  23
ATOM     23  O   UNL     1      19.156  62.815  33.168  1.00  0.00    -0.388 OA
ATOM     24  H   UNL     1      19.531  63.702  33.407  1.00  0.00     0.211 HD
ENDBRANCH  18  23
ENDBRANCH  12  13
ENDBRANCH   7  12
BRANCH   3  25
ATOM     25  O   UNL     1      23.853  59.935  40.162  1.00  0.00    -0.347 OA
BRANCH  25  26
ATOM     26  C   UNL     1      24.933  59.305  40.845  1.00  0.00     0.122 C 
ATOM     27  C   UNL     1      26.190  59.300  39.963  1.00  0.00     0.033 C 
ATOM     28  C   UNL     1      25.199  60.055  42.157  1.00  0.00     0.036 C 
ATOM     29  C   UNL     1      27.382  58.662  40.719  1.00  0.00     0.010 C 
ATOM     30  C   UNL     1      26.366  59.387  42.909  1.00  0.00    -0.002 C 
ATOM     31  C   UNL     1      27.702  59.383  42.074  1.00  0.00    -0.026 C 
ATOM     32  C   UNL     1      26.549  59.988  44.310  1.00  0.00     0.005 C 
ATOM     33  C   UNL     1      28.769  58.568  42.913  1.00  0.00     0.001 C 
ATOM     34  C   UNL     1      27.579  59.171  45.096  1.00  0.00     0.007 C 
ATOM     35  C   UNL     1      28.933  59.154  44.364  1.00  0.00     0.025 C 
ATOM     36  C   UNL     1      30.157  58.332  42.221  1.00  0.00     0.005 C 
ATOM     37  C   UNL     1      30.054  58.426  45.163  1.00  0.00     0.074 C 
ATOM     38  C   UNL     1      31.323  59.021  42.953  1.00  0.00     0.010 C 
ATOM     39  C   UNL     1      29.866  56.897  45.317  1.00  0.00     0.037 C 
ATOM     40  C   UNL     1      31.467  58.557  44.444  1.00  0.00     0.003 C 
ATOM     41  C   UNL     1      31.270  56.454  45.683  1.00  0.00     0.012 C 
ATOM     42  C   UNL     1      32.083  57.110  44.564  1.00  0.00     0.028 C 
ATOM     43  C   UNL     1      28.233  60.819  41.773  1.00  0.00     0.012 C 
ATOM     44  C   UNL     1      32.349  59.615  45.170  1.00  0.00     0.015 C 
BRANCH  37  45
ATOM     45  O   UNL     1      30.142  59.002  46.456  1.00  0.00    -0.389 OA
ATOM     46  H   UNL     1      31.032  59.423  46.579  1.00  0.00     0.211 HD
ENDBRANCH  37  45
BRANCH  42  47
ATOM     47  C   UNL     1      33.595  56.999  44.712  1.00  0.00    -0.022 C 
ATOM     48  C   UNL     1      34.476  57.073  43.719  1.00  0.00     0.096 C 
ATOM     49  C   UNL     1      34.335  56.821  46.021  1.00  0.00     0.265 C 
ATOM     50  C   UNL     1      35.773  56.932  44.329  1.00  0.00     0.331 C 
ATOM     51  O   UNL     1      35.669  56.791  45.658  1.00  0.00    -0.458 OA
ATOM     52  O   UNL     1      36.834  56.941  43.729  1.00  0.00    -0.247 OA
ENDBRANCH  42  47
ENDBRANCH  25  26
ENDBRANCH   3  25
TORSDOF 11
ENDMDL
MODEL 5
REMARK VINA RESULT:   -12.070      1.605      2.767
REMARK INTER + INTRA:         -19.685
REMARK INTER:                 -18.730
REMARK INTRA:                  -0.955
REMARK UNBOUND:                -1.618
REMARK SMILES CO[C@@H]1[C@@H](O)[C@H](O[C@H]2CC[C@@]3(C)[C@@H](CC[C@@H]4[C@@H]3CC[C@]3(C)[C@@H](C5=CC(=O)OC5)CC[C@]43O)C2)O[C@H](C)[C@@H]1O[C@@H]1OC[C@@H](O)[C@H](O)[C@H]1O
REMARK SMILES IDX 3 1 4 2 6 3 34 4 35 5 36 6 37 7 2 8 1 9 5 10 38 12 39 13
REMARK SMILES IDX 40 14 46 15 41 16 44 17 42 18 47 19 45 21 43 23 7 25 8 26
REMARK SMILES IDX 9 27 33 28 10 29 13 30 11 31 14 32 17 33 15 34 16 35 18 36
REMARK SMILES IDX 31 37 19 38 30 39 20 40 29 41 22 42 12 43 21 44 32 45 23 47
REMARK SMILES IDX 24 48 28 49 25 50 27 51 26 52
REMARK H PARENT 5 11 47 20 45 22 43 24 32 46
ROOT
ATOM      1  C   UNL     1      27.396  59.275  42.908  1.00  0.00     0.183 C 
ATOM      2  C   UNL     1      27.340  60.370  41.833  1.00  0.00     0.202 C 
ATOM      3  C   UNL     1      26.293  60.030  40.737  1.00  0.00     0.282 C 
ATOM      4  O   UNL     1      26.494  58.739  40.158  1.00  0.00    -0.344 OA
ATOM      5  C   UNL     1      26.562  57.674  41.107  1.00  0.00     0.150 C 
ATOM      6  C   UNL     1      25.167  57.257  41.622  1.00  0.00     0.041 C 
ATOM      7  C   UNL     1      27.628  57.929  42.206  1.00  0.00     0.182 C 
ENDROOT
BRANCH   1   8
ATOM      8  O   UNL     1      26.180  59.242  43.640  1.00  0.00    -0.376 OA
ATOM      9  C   UNL     1      26.239  60.095  44.761  1.00  0.00     0.195 C 
ENDBRANCH   1   8
BRANCH   2  10
ATOM     10  O   UNL     1      28.624  60.560  41.277  1.00  0.00    -0.385 OA
ATOM     11  H   UNL     1      29.192  59.769  41.468  1.00  0.00     0.211 HD
ENDBRANCH   2  10
BRANCH   7  12
ATOM     12  O   UNL     1      27.631  56.876  43.160  1.00  0.00    -0.341 OA
BRANCH  12  13
ATOM     13  C   UNL     1      28.690  56.940  44.114  1.00  0.00     0.282 C 
ATOM     14  O   UNL     1      29.645  55.914  43.867  1.00  0.00    -0.347 OA
ATOM     15  C   UNL     1      28.133  56.846  45.567  1.00  0.00     0.202 C 
ATOM     16  C   UNL     1      29.057  54.624  43.970  1.00  0.00     0.198 C 
ATOM     17  C   UNL     1      27.477  55.468  45.768  1.00  0.00     0.179 C 
ATOM     18  C   UNL     1      28.499  54.362  45.394  1.00  0.00     0.171 C 
BRANCH  15  19
ATOM     19  O   UNL     1      29.161  56.997  46.519  1.00  0.00    -0.385 OA
ATOM     20  H   UNL     1      29.539  56.105  46.729  1.00  0.00     0.211 HD
ENDBRANCH  15  19
BRANCH  17  21
ATOM     21  O   UNL     1      26.284  55.404  45.013  1.00  0.00    -0.387 OA
ATOM     22  H   UNL     1      26.459  55.045  44.107  1.00  0.00     0.211 HD
ENDBRANCH  17  21
BRANCH  18  23
ATOM     23  O   UNL     1      29.530  54.295  46.358  1.00  0.00    -0.388 OA
ATOM     24  H   UNL     1      29.241  53.732  47.122  1.00  0.00     0.211 HD
ENDBRANCH  18  23
ENDBRANCH  12  13
ENDBRANCH   7  12
BRANCH   3  25
ATOM     25  O   UNL     1      24.961  60.152  41.227  1.00  0.00    -0.347 OA
BRANCH  25  26
ATOM     26  C   UNL     1      23.987  60.296  40.199  1.00  0.00     0.122 C 
ATOM     27  C   UNL     1      23.130  61.547  40.448  1.00  0.00     0.033 C 
ATOM     28  C   UNL     1      24.702  60.395  38.845  1.00  0.00     0.036 C 
ATOM     29  C   UNL     1      22.102  61.738  39.306  1.00  0.00     0.010 C 
ATOM     30  C   UNL     1      23.661  60.553  37.719  1.00  0.00    -0.002 C 
ATOM     31  C   UNL     1      22.772  61.842  37.892  1.00  0.00    -0.026 C 
ATOM     32  C   UNL     1      24.317  60.472  36.333  1.00  0.00     0.005 C 
ATOM     33  C   UNL     1      21.682  61.809  36.744  1.00  0.00     0.001 C 
ATOM     34  C   UNL     1      23.236  60.432  35.248  1.00  0.00     0.007 C 
ATOM     35  C   UNL     1      22.346  61.686  35.322  1.00  0.00     0.025 C 
ATOM     36  C   UNL     1      20.602  62.946  36.785  1.00  0.00     0.005 C 
ATOM     37  C   UNL     1      21.290  61.757  34.179  1.00  0.00     0.074 C 
ATOM     38  C   UNL     1      20.667  63.886  35.568  1.00  0.00     0.010 C 
ATOM     39  C   UNL     1      20.174  60.687  34.245  1.00  0.00     0.037 C 
ATOM     40  C   UNL     1      20.491  63.132  34.204  1.00  0.00     0.003 C 
ATOM     41  C   UNL     1      19.115  61.297  33.346  1.00  0.00     0.012 C 
ATOM     42  C   UNL     1      18.996  62.700  33.947  1.00  0.00     0.028 C 
ATOM     43  C   UNL     1      23.598  63.163  37.817  1.00  0.00     0.012 C 
ATOM     44  C   UNL     1      21.011  64.083  33.085  1.00  0.00     0.015 C 
BRANCH  37  45
ATOM     45  O   UNL     1      21.957  61.637  32.932  1.00  0.00    -0.389 OA
ATOM     46  H   UNL     1      22.846  61.217  33.063  1.00  0.00     0.211 HD
ENDBRANCH  37  45
BRANCH  42  47
ATOM     47  C   UNL     1      18.108  63.664  33.169  1.00  0.00    -0.022 C 
ATOM     48  C   UNL     1      17.817  63.573  31.875  1.00  0.00     0.096 C 
ATOM     49  C   UNL     1      17.388  64.858  33.757  1.00  0.00     0.265 C 
ATOM     50  C   UNL     1      16.942  64.679  31.587  1.00  0.00     0.331 C 
ATOM     51  O   UNL     1      16.705  65.407  32.688  1.00  0.00    -0.458 OA
ATOM     52  O   UNL     1      16.469  64.933  30.492  1.00  0.00    -0.247 OA
ENDBRANCH  42  47
ENDBRANCH  25  26
ENDBRANCH   3  25
TORSDOF 11
ENDMDL
MODEL 6
REMARK VINA RESULT:   -11.751      2.224     13.051
REMARK INTER + INTRA:         -19.208
REMARK INTER:                 -18.293
REMARK INTRA:                  -0.915
REMARK UNBOUND:                -1.618
REMARK SMILES CO[C@@H]1[C@@H](O)[C@H](O[C@H]2CC[C@@]3(C)[C@@H](CC[C@@H]4[C@@H]3CC[C@]3(C)[C@@H](C5=CC(=O)OC5)CC[C@]43O)C2)O[C@H](C)[C@@H]1O[C@@H]1OC[C@@H](O)[C@H](O)[C@H]1O
REMARK SMILES IDX 3 1 4 2 6 3 34 4 35 5 36 6 37 7 2 8 1 9 5 10 38 12 39 13
REMARK SMILES IDX 40 14 46 15 41 16 44 17 42 18 47 19 45 21 43 23 7 25 8 26
REMARK SMILES IDX 9 27 33 28 10 29 13 30 11 31 14 32 17 33 15 34 16 35 18 36
REMARK SMILES IDX 31 37 19 38 30 39 20 40 29 41 22 42 12 43 21 44 32 45 23 47
REMARK SMILES IDX 24 48 28 49 25 50 27 51 26 52
REMARK H PARENT 5 11 47 20 45 22 43 24 32 46
ROOT
ATOM      1  C   UNL     1      21.835  62.486  37.751  1.00  0.00     0.183 C 
ATOM      2  C   UNL     1      22.303  62.159  39.176  1.00  0.00     0.202 C 
ATOM      3  C   UNL     1      22.392  60.624  39.401  1.00  0.00     0.282 C 
ATOM      4  O   UNL     1      21.177  59.944  39.082  1.00  0.00    -0.344 OA
ATOM      5  C   UNL     1      20.684  60.211  37.768  1.00  0.00     0.150 C 
ATOM      6  C   UNL     1      21.445  59.420  36.682  1.00  0.00     0.041 C 
ATOM      7  C   UNL     1      20.522  61.731  37.494  1.00  0.00     0.182 C 
ENDROOT
BRANCH   1   8
ATOM      8  O   UNL     1      22.820  62.091  36.807  1.00  0.00    -0.376 OA
ATOM      9  C   UNL     1      23.960  62.916  36.887  1.00  0.00     0.195 C 
ENDBRANCH   1   8
BRANCH   2  10
ATOM     10  O   UNL     1      21.440  62.767  40.114  1.00  0.00    -0.385 OA
ATOM     11  H   UNL     1      20.996  63.552  39.700  1.00  0.00     0.211 HD
ENDBRANCH   2  10
BRANCH   7  12
ATOM     12  O   UNL     1      20.080  61.960  36.164  1.00  0.00    -0.341 OA
BRANCH  12  13
ATOM     13  C   UNL     1      19.466  63.230  35.951  1.00  0.00     0.282 C 
ATOM     14  O   UNL     1      18.316  63.093  35.124  1.00  0.00    -0.347 OA
ATOM     15  C   UNL     1      20.480  64.240  35.334  1.00  0.00     0.202 C 
ATOM     16  C   UNL     1      18.656  62.567  33.848  1.00  0.00     0.198 C 
ATOM     17  C   UNL     1      20.902  63.744  33.939  1.00  0.00     0.179 C 
ATOM     18  C   UNL     1      19.630  63.501  33.083  1.00  0.00     0.171 C 
BRANCH  15  19
ATOM     19  O   UNL     1      19.910  65.522  35.202  1.00  0.00    -0.385 OA
ATOM     20  H   UNL     1      19.063  65.446  34.692  1.00  0.00     0.211 HD
ENDBRANCH  15  19
BRANCH  17  21
ATOM     21  O   UNL     1      21.710  62.593  34.076  1.00  0.00    -0.387 OA
ATOM     22  H   UNL     1      22.662  62.808  33.905  1.00  0.00     0.211 HD
ENDBRANCH  17  21
BRANCH  18  23
ATOM     23  O   UNL     1      19.020  64.729  32.743  1.00  0.00    -0.388 OA
ATOM     24  H   UNL     1      18.869  64.771  31.764  1.00  0.00     0.211 HD
ENDBRANCH  18  23
ENDBRANCH  12  13
ENDBRANCH   7  12
BRANCH   3  25
ATOM     25  O   UNL     1      23.484  60.052  38.688  1.00  0.00    -0.347 OA
BRANCH  25  26
ATOM     26  C   UNL     1      24.719  60.109  39.396  1.00  0.00     0.122 C 
ATOM     27  C   UNL     1      24.599  61.058  40.598  1.00  0.00     0.033 C 
ATOM     28  C   UNL     1      25.094  58.696  39.860  1.00  0.00     0.036 C 
ATOM     29  C   UNL     1      25.924  61.085  41.402  1.00  0.00     0.010 C 
ATOM     30  C   UNL     1      26.429  58.740  40.629  1.00  0.00    -0.002 C 
ATOM     31  C   UNL     1      26.365  59.666  41.902  1.00  0.00    -0.026 C 
ATOM     32  C   UNL     1      26.937  57.327  40.953  1.00  0.00     0.005 C 
ATOM     33  C   UNL     1      27.823  59.709  42.517  1.00  0.00     0.001 C 
ATOM     34  C   UNL     1      28.352  57.405  41.537  1.00  0.00     0.007 C 
ATOM     35  C   UNL     1      28.366  58.262  42.816  1.00  0.00     0.025 C 
ATOM     36  C   UNL     1      28.028  60.671  43.739  1.00  0.00     0.005 C 
ATOM     37  C   UNL     1      29.756  58.296  43.516  1.00  0.00     0.074 C 
ATOM     38  C   UNL     1      28.391  59.930  45.038  1.00  0.00     0.010 C 
ATOM     39  C   UNL     1      30.869  59.039  42.737  1.00  0.00     0.037 C 
ATOM     40  C   UNL     1      29.695  59.068  44.906  1.00  0.00     0.003 C 
ATOM     41  C   UNL     1      31.884  59.300  43.834  1.00  0.00     0.012 C 
ATOM     42  C   UNL     1      31.000  59.953  44.900  1.00  0.00     0.028 C 
ATOM     43  C   UNL     1      25.343  59.162  42.967  1.00  0.00     0.012 C 
ATOM     44  C   UNL     1      29.696  58.056  46.089  1.00  0.00     0.015 C 
BRANCH  37  45
ATOM     45  O   UNL     1      30.183  56.963  43.750  1.00  0.00    -0.389 OA
ATOM     46  H   UNL     1      29.477  56.327  43.466  1.00  0.00     0.211 HD
ENDBRANCH  37  45
BRANCH  42  47
ATOM     47  C   UNL     1      31.682  60.210  46.238  1.00  0.00    -0.022 C 
ATOM     48  C   UNL     1      32.966  59.990  46.505  1.00  0.00     0.096 C 
ATOM     49  C   UNL     1      31.012  60.791  47.465  1.00  0.00     0.265 C 
ATOM     50  C   UNL     1      33.160  60.391  47.874  1.00  0.00     0.331 C 
ATOM     51  O   UNL     1      32.020  60.854  48.408  1.00  0.00    -0.458 OA
ATOM     52  O   UNL     1      34.216  60.327  48.481  1.00  0.00    -0.247 OA
ENDBRANCH  42  47
ENDBRANCH  25  26
ENDBRANCH   3  25
TORSDOF 11
ENDMDL
MODEL 7
REMARK VINA RESULT:   -11.725      2.120      3.542
REMARK INTER + INTRA:         -19.169
REMARK INTER:                 -17.912
REMARK INTRA:                  -1.257
REMARK UNBOUND:                -1.618
REMARK SMILES CO[C@@H]1[C@@H](O)[C@H](O[C@H]2CC[C@@]3(C)[C@@H](CC[C@@H]4[C@@H]3CC[C@]3(C)[C@@H](C5=CC(=O)OC5)CC[C@]43O)C2)O[C@H](C)[C@@H]1O[C@@H]1OC[C@@H](O)[C@H](O)[C@H]1O
REMARK SMILES IDX 3 1 4 2 6 3 34 4 35 5 36 6 37 7 2 8 1 9 5 10 38 12 39 13
REMARK SMILES IDX 40 14 46 15 41 16 44 17 42 18 47 19 45 21 43 23 7 25 8 26
REMARK SMILES IDX 9 27 33 28 10 29 13 30 11 31 14 32 17 33 15 34 16 35 18 36
REMARK SMILES IDX 31 37 19 38 30 39 20 40 29 41 22 42 12 43 21 44 32 45 23 47
REMARK SMILES IDX 24 48 28 49 25 50 27 51 26 52
REMARK H PARENT 5 11 47 20 45 22 43 24 32 46
ROOT
ATOM      1  C   UNL     1      25.894  58.749  42.334  1.00  0.00     0.183 C 
ATOM      2  C   UNL     1      25.044  60.003  42.083  1.00  0.00     0.202 C 
ATOM      3  C   UNL     1      25.796  61.020  41.181  1.00  0.00     0.282 C 
ATOM      4  O   UNL     1      27.090  61.358  41.684  1.00  0.00    -0.344 OA
ATOM      5  C   UNL     1      27.930  60.232  41.945  1.00  0.00     0.150 C 
ATOM      6  C   UNL     1      28.552  59.652  40.656  1.00  0.00     0.041 C 
ATOM      7  C   UNL     1      27.256  59.197  42.885  1.00  0.00     0.182 C 
ENDROOT
BRANCH   1   8
ATOM      8  O   UNL     1      26.069  58.023  41.127  1.00  0.00    -0.376 OA
ATOM      9  C   UNL     1      24.924  57.258  40.823  1.00  0.00     0.195 C 
ENDBRANCH   1   8
BRANCH   2  10
ATOM     10  O   UNL     1      24.673  60.583  43.316  1.00  0.00    -0.385 OA
ATOM     11  H   UNL     1      23.778  61.004  43.231  1.00  0.00     0.211 HD
ENDBRANCH   2  10
BRANCH   7  12
ATOM     12  O   UNL     1      28.097  58.069  43.080  1.00  0.00    -0.341 OA
BRANCH  12  13
ATOM     13  C   UNL     1      27.717  57.223  44.165  1.00  0.00     0.282 C 
ATOM     14  O   UNL     1      28.862  56.830  44.912  1.00  0.00    -0.347 OA
ATOM     15  C   UNL     1      26.933  55.980  43.648  1.00  0.00     0.202 C 
ATOM     16  C   UNL     1      29.781  56.102  44.107  1.00  0.00     0.198 C 
ATOM     17  C   UNL     1      27.862  55.128  42.763  1.00  0.00     0.179 C 
ATOM     18  C   UNL     1      29.152  54.795  43.559  1.00  0.00     0.171 C 
BRANCH  15  19
ATOM     19  O   UNL     1      26.477  55.183  44.717  1.00  0.00    -0.385 OA
ATOM     20  H   UNL     1      25.930  55.744  45.326  1.00  0.00     0.211 HD
ENDBRANCH  15  19
BRANCH  17  21
ATOM     21  O   UNL     1      28.114  55.814  41.554  1.00  0.00    -0.387 OA
ATOM     22  H   UNL     1      28.909  56.398  41.638  1.00  0.00     0.211 HD
ENDBRANCH  17  21
BRANCH  18  23
ATOM     23  O   UNL     1      28.871  53.874  44.593  1.00  0.00    -0.388 OA
ATOM     24  H   UNL     1      27.900  53.672  44.610  1.00  0.00     0.211 HD
ENDBRANCH  18  23
ENDBRANCH  12  13
ENDBRANCH   7  12
BRANCH   3  25
ATOM     25  O   UNL     1      25.890  60.561  39.836  1.00  0.00    -0.347 OA
BRANCH  25  26
ATOM     26  C   UNL     1      25.079  61.296  38.925  1.00  0.00     0.122 C 
ATOM     27  C   UNL     1      25.046  60.597  37.558  1.00  0.00     0.033 C 
ATOM     28  C   UNL     1      23.663  61.416  39.503  1.00  0.00     0.036 C 
ATOM     29  C   UNL     1      24.124  61.364  36.577  1.00  0.00     0.010 C 
ATOM     30  C   UNL     1      22.771  62.209  38.529  1.00  0.00    -0.002 C 
ATOM     31  C   UNL     1      22.660  61.524  37.114  1.00  0.00    -0.026 C 
ATOM     32  C   UNL     1      21.397  62.513  39.145  1.00  0.00     0.005 C 
ATOM     33  C   UNL     1      21.821  62.500  36.192  1.00  0.00     0.001 C 
ATOM     34  C   UNL     1      20.618  63.466  38.233  1.00  0.00     0.007 C 
ATOM     35  C   UNL     1      20.427  62.847  36.836  1.00  0.00     0.025 C 
ATOM     36  C   UNL     1      21.677  62.075  34.689  1.00  0.00     0.005 C 
ATOM     37  C   UNL     1      19.552  63.722  35.892  1.00  0.00     0.074 C 
ATOM     38  C   UNL     1      20.223  61.771  34.283  1.00  0.00     0.010 C 
ATOM     39  C   UNL     1      20.190  65.064  35.457  1.00  0.00     0.037 C 
ATOM     40  C   UNL     1      19.258  62.985  34.513  1.00  0.00     0.003 C 
ATOM     41  C   UNL     1      19.355  65.416  34.239  1.00  0.00     0.012 C 
ATOM     42  C   UNL     1      19.453  64.118  33.434  1.00  0.00     0.028 C 
ATOM     43  C   UNL     1      21.983  60.120  37.173  1.00  0.00     0.012 C 
ATOM     44  C   UNL     1      17.805  62.424  34.497  1.00  0.00     0.015 C 
BRANCH  37  45
ATOM     45  O   UNL     1      18.318  63.998  36.536  1.00  0.00    -0.389 OA
ATOM     46  H   UNL     1      17.739  64.541  35.941  1.00  0.00     0.211 HD
ENDBRANCH  37  45
BRANCH  42  47
ATOM     47  C   UNL     1      18.578  64.062  32.188  1.00  0.00    -0.022 C 
ATOM     48  C   UNL     1      17.441  64.729  32.013  1.00  0.00     0.096 C 
ATOM     49  C   UNL     1      18.884  63.265  30.938  1.00  0.00     0.265 C 
ATOM     50  C   UNL     1      16.978  64.383  30.694  1.00  0.00     0.331 C 
ATOM     51  O   UNL     1      17.828  63.539  30.090  1.00  0.00    -0.458 OA
ATOM     52  O   UNL     1      15.953  64.796  30.179  1.00  0.00    -0.247 OA
ENDBRANCH  42  47
ENDBRANCH  25  26
ENDBRANCH   3  25
TORSDOF 11
ENDMDL
MODEL 8
REMARK VINA RESULT:   -11.718      2.944     13.332
REMARK INTER + INTRA:         -19.159
REMARK INTER:                 -18.020
REMARK INTRA:                  -1.139
REMARK UNBOUND:                -1.618
REMARK SMILES CO[C@@H]1[C@@H](O)[C@H](O[C@H]2CC[C@@]3(C)[C@@H](CC[C@@H]4[C@@H]3CC[C@]3(C)[C@@H](C5=CC(=O)OC5)CC[C@]43O)C2)O[C@H](C)[C@@H]1O[C@@H]1OC[C@@H](O)[C@H](O)[C@H]1O
REMARK SMILES IDX 3 1 4 2 6 3 34 4 35 5 36 6 37 7 2 8 1 9 5 10 38 12 39 13
REMARK SMILES IDX 40 14 46 15 41 16 44 17 42 18 47 19 45 21 43 23 7 25 8 26
REMARK SMILES IDX 9 27 33 28 10 29 13 30 11 31 14 32 17 33 15 34 16 35 18 36
REMARK SMILES IDX 31 37 19 38 30 39 20 40 29 41 22 42 12 43 21 44 32 45 23 47
REMARK SMILES IDX 24 48 28 49 25 50 27 51 26 52
REMARK H PARENT 5 11 47 20 45 22 43 24 32 46
ROOT
ATOM      1  C   UNL     1      21.215  61.586  37.507  1.00  0.00     0.183 C 
ATOM      2  C   UNL     1      21.625  60.189  37.996  1.00  0.00     0.202 C 
ATOM      3  C   UNL     1      23.131  59.919  37.726  1.00  0.00     0.282 C 
ATOM      4  O   UNL     1      23.496  60.122  36.359  1.00  0.00    -0.344 OA
ATOM      5  C   UNL     1      23.135  61.404  35.841  1.00  0.00     0.150 C 
ATOM      6  C   UNL     1      24.106  62.516  36.295  1.00  0.00     0.041 C 
ATOM      7  C   UNL     1      21.627  61.717  36.034  1.00  0.00     0.182 C 
ENDROOT
BRANCH   1   8
ATOM      8  O   UNL     1      21.854  62.587  38.286  1.00  0.00    -0.376 OA
ATOM      9  C   UNL     1      21.400  62.560  39.620  1.00  0.00     0.195 C 
ENDBRANCH   1   8
BRANCH   2  10
ATOM     10  O   UNL     1      20.809  59.211  37.387  1.00  0.00    -0.385 OA
ATOM     11  H   UNL     1      21.265  58.330  37.417  1.00  0.00     0.211 HD
ENDBRANCH   2  10
BRANCH   7  12
ATOM     12  O   UNL     1      21.316  63.017  35.554  1.00  0.00    -0.341 OA
BRANCH  12  13
ATOM     13  C   UNL     1      19.931  63.239  35.292  1.00  0.00     0.282 C 
ATOM     14  O   UNL     1      19.379  62.139  34.579  1.00  0.00    -0.347 OA
ATOM     15  C   UNL     1      19.722  64.572  34.512  1.00  0.00     0.202 C 
ATOM     16  C   UNL     1      20.025  61.957  33.326  1.00  0.00     0.198 C 
ATOM     17  C   UNL     1      20.394  64.460  33.131  1.00  0.00     0.179 C 
ATOM     18  C   UNL     1      19.855  63.196  32.408  1.00  0.00     0.171 C 
BRANCH  15  19
ATOM     19  O   UNL     1      18.353  64.846  34.324  1.00  0.00    -0.385 OA
ATOM     20  H   UNL     1      17.820  64.102  34.709  1.00  0.00     0.211 HD
ENDBRANCH  15  19
BRANCH  17  21
ATOM     21  O   UNL     1      21.797  64.455  33.292  1.00  0.00    -0.387 OA
ATOM     22  H   UNL     1      22.251  64.266  32.432  1.00  0.00     0.211 HD
ENDBRANCH  17  21
BRANCH  18  23
ATOM     23  O   UNL     1      18.509  63.384  32.022  1.00  0.00    -0.388 OA
ATOM     24  H   UNL     1      18.255  62.705  31.345  1.00  0.00     0.211 HD
ENDBRANCH  18  23
ENDBRANCH  12  13
ENDBRANCH   7  12
BRANCH   3  25
ATOM     25  O   UNL     1      23.966  60.692  38.583  1.00  0.00    -0.347 OA
BRANCH  25  26
ATOM     26  C   UNL     1      24.196  60.086  39.852  1.00  0.00     0.122 C 
ATOM     27  C   UNL     1      24.586  58.611  39.674  1.00  0.00     0.033 C 
ATOM     28  C   UNL     1      25.310  60.854  40.576  1.00  0.00     0.036 C 
ATOM     29  C   UNL     1      24.889  57.960  41.046  1.00  0.00     0.010 C 
ATOM     30  C   UNL     1      25.573  60.210  41.951  1.00  0.00    -0.002 C 
ATOM     31  C   UNL     1      26.018  58.703  41.840  1.00  0.00    -0.026 C 
ATOM     32  C   UNL     1      26.549  61.052  42.787  1.00  0.00     0.005 C 
ATOM     33  C   UNL     1      26.135  58.145  43.317  1.00  0.00     0.001 C 
ATOM     34  C   UNL     1      26.630  60.491  44.211  1.00  0.00     0.007 C 
ATOM     35  C   UNL     1      27.103  59.026  44.192  1.00  0.00     0.025 C 
ATOM     36  C   UNL     1      26.458  56.616  43.453  1.00  0.00     0.005 C 
ATOM     37  C   UNL     1      27.307  58.428  45.615  1.00  0.00     0.074 C 
ATOM     38  C   UNL     1      27.818  56.342  44.120  1.00  0.00     0.010 C 
ATOM     39  C   UNL     1      26.012  58.234  46.440  1.00  0.00     0.037 C 
ATOM     40  C   UNL     1      27.933  56.967  45.553  1.00  0.00     0.003 C 
ATOM     41  C   UNL     1      26.471  57.247  47.497  1.00  0.00     0.012 C 
ATOM     42  C   UNL     1      27.105  56.160  46.626  1.00  0.00     0.028 C 
ATOM     43  C   UNL     1      27.371  58.525  41.085  1.00  0.00     0.012 C 
ATOM     44  C   UNL     1      29.447  57.010  45.914  1.00  0.00     0.015 C 
BRANCH  37  45
ATOM     45  O   UNL     1      28.183  59.272  46.344  1.00  0.00    -0.389 OA
ATOM     46  H   UNL     1      28.755  58.728  46.946  1.00  0.00     0.211 HD
ENDBRANCH  37  45
BRANCH  42  47
ATOM     47  C   UNL     1      27.828  55.058  47.390  1.00  0.00    -0.022 C 
ATOM     48  C   UNL     1      28.103  55.073  48.691  1.00  0.00     0.096 C 
ATOM     49  C   UNL     1      28.318  53.756  46.794  1.00  0.00     0.265 C 
ATOM     50  C   UNL     1      28.773  53.829  48.969  1.00  0.00     0.331 C 
ATOM     51  O   UNL     1      28.883  53.082  47.861  1.00  0.00    -0.458 OA
ATOM     52  O   UNL     1      29.188  53.485  50.062  1.00  0.00    -0.247 OA
ENDBRANCH  42  47
ENDBRANCH  25  26
ENDBRANCH   3  25
TORSDOF 11
ENDMDL
MODEL 9
REMARK VINA RESULT:   -11.128      2.392     13.342
REMARK INTER + INTRA:         -18.275
REMARK INTER:                 -16.788
REMARK INTRA:                  -1.487
REMARK UNBOUND:                -1.618
REMARK SMILES CO[C@@H]1[C@@H](O)[C@H](O[C@H]2CC[C@@]3(C)[C@@H](CC[C@@H]4[C@@H]3CC[C@]3(C)[C@@H](C5=CC(=O)OC5)CC[C@]43O)C2)O[C@H](C)[C@@H]1O[C@@H]1OC[C@@H](O)[C@H](O)[C@H]1O
REMARK SMILES IDX 3 1 4 2 6 3 34 4 35 5 36 6 37 7 2 8 1 9 5 10 38 12 39 13
REMARK SMILES IDX 40 14 46 15 41 16 44 17 42 18 47 19 45 21 43 23 7 25 8 26
REMARK SMILES IDX 9 27 33 28 10 29 13 30 11 31 14 32 17 33 15 34 16 35 18 36
REMARK SMILES IDX 31 37 19 38 30 39 20 40 29 41 22 42 12 43 21 44 32 45 23 47
REMARK SMILES IDX 24 48 28 49 25 50 27 51 26 52
REMARK H PARENT 5 11 47 20 45 22 43 24 32 46
ROOT
ATOM      1  C   UNL     1      22.296  62.438  38.224  1.00  0.00     0.183 C 
ATOM      2  C   UNL     1      22.290  61.994  39.693  1.00  0.00     0.202 C 
ATOM      3  C   UNL     1      22.213  60.446  39.812  1.00  0.00     0.282 C 
ATOM      4  O   UNL     1      21.112  59.887  39.092  1.00  0.00    -0.344 OA
ATOM      5  C   UNL     1      21.056  60.269  37.717  1.00  0.00     0.150 C 
ATOM      6  C   UNL     1      22.061  59.481  36.847  1.00  0.00     0.041 C 
ATOM      7  C   UNL     1      21.079  61.810  37.529  1.00  0.00     0.182 C 
ENDROOT
BRANCH   1   8
ATOM      8  O   UNL     1      23.493  62.019  37.587  1.00  0.00    -0.376 OA
ATOM      9  C   UNL     1      24.573  62.858  37.931  1.00  0.00     0.195 C 
ENDBRANCH   1   8
BRANCH   2  10
ATOM     10  O   UNL     1      21.222  62.616  40.377  1.00  0.00    -0.385 OA
ATOM     11  H   UNL     1      21.104  62.193  41.267  1.00  0.00     0.211 HD
ENDBRANCH   2  10
BRANCH   7  12
ATOM     12  O   UNL     1      21.075  62.150  36.150  1.00  0.00    -0.341 OA
BRANCH  12  13
ATOM     13  C   UNL     1      19.837  62.673  35.669  1.00  0.00     0.282 C 
ATOM     14  O   UNL     1      19.216  61.746  34.787  1.00  0.00    -0.347 OA
ATOM     15  C   UNL     1      20.052  64.050  34.971  1.00  0.00     0.202 C 
ATOM     16  C   UNL     1      20.033  61.479  33.655  1.00  0.00     0.198 C 
ATOM     17  C   UNL     1      20.931  63.852  33.723  1.00  0.00     0.179 C 
ATOM     18  C   UNL     1      20.292  62.761  32.822  1.00  0.00     0.171 C 
BRANCH  15  19
ATOM     19  O   UNL     1      18.825  64.617  34.570  1.00  0.00    -0.385 OA
ATOM     20  H   UNL     1      18.980  65.557  34.294  1.00  0.00     0.211 HD
ENDBRANCH  15  19
BRANCH  17  21
ATOM     21  O   UNL     1      22.250  63.540  34.124  1.00  0.00    -0.387 OA
ATOM     22  H   UNL     1      22.252  62.815  34.798  1.00  0.00     0.211 HD
ENDBRANCH  17  21
BRANCH  18  23
ATOM     23  O   UNL     1      19.107  63.247  32.223  1.00  0.00    -0.388 OA
ATOM     24  H   UNL     1      19.328  63.957  31.567  1.00  0.00     0.211 HD
ENDBRANCH  18  23
ENDBRANCH  12  13
ENDBRANCH   7  12
BRANCH   3  25
ATOM     25  O   UNL     1      23.433  59.828  39.413  1.00  0.00    -0.347 OA
BRANCH  25  26
ATOM     26  C   UNL     1      24.339  59.609  40.490  1.00  0.00     0.122 C 
ATOM     27  C   UNL     1      24.683  58.116  40.600  1.00  0.00     0.033 C 
ATOM     28  C   UNL     1      25.608  60.437  40.250  1.00  0.00     0.036 C 
ATOM     29  C   UNL     1      25.709  57.877  41.737  1.00  0.00     0.010 C 
ATOM     30  C   UNL     1      26.601  60.211  41.406  1.00  0.00    -0.002 C 
ATOM     31  C   UNL     1      27.029  58.702  41.551  1.00  0.00    -0.026 C 
ATOM     32  C   UNL     1      27.806  61.158  41.304  1.00  0.00     0.005 C 
ATOM     33  C   UNL     1      27.946  58.603  42.838  1.00  0.00     0.001 C 
ATOM     34  C   UNL     1      28.665  61.044  42.568  1.00  0.00     0.007 C 
ATOM     35  C   UNL     1      29.162  59.599  42.759  1.00  0.00     0.025 C 
ATOM     36  C   UNL     1      28.402  57.160  43.250  1.00  0.00     0.005 C 
ATOM     37  C   UNL     1      30.126  59.437  43.970  1.00  0.00     0.074 C 
ATOM     38  C   UNL     1      29.925  56.958  43.158  1.00  0.00     0.010 C 
ATOM     39  C   UNL     1      29.477  59.635  45.361  1.00  0.00     0.037 C 
ATOM     40  C   UNL     1      30.731  57.968  44.046  1.00  0.00     0.003 C 
ATOM     41  C   UNL     1      30.494  58.969  46.268  1.00  0.00     0.012 C 
ATOM     42  C   UNL     1      30.653  57.610  45.580  1.00  0.00     0.028 C 
ATOM     43  C   UNL     1      27.792  58.166  40.301  1.00  0.00     0.012 C 
ATOM     44  C   UNL     1      32.201  57.958  43.532  1.00  0.00     0.015 C 
BRANCH  37  45
ATOM     45  O   UNL     1      31.192  60.365  43.834  1.00  0.00    -0.389 OA
ATOM     46  H   UNL     1      31.961  59.933  43.380  1.00  0.00     0.211 HD
ENDBRANCH  37  45
BRANCH  42  47
ATOM     47  C   UNL     1      31.747  56.719  46.153  1.00  0.00    -0.022 C 
ATOM     48  C   UNL     1      32.772  57.132  46.892  1.00  0.00     0.096 C 
ATOM     49  C   UNL     1      31.821  55.215  45.999  1.00  0.00     0.265 C 
ATOM     50  C   UNL     1      33.529  55.951  47.216  1.00  0.00     0.331 C 
ATOM     51  O   UNL     1      32.960  54.854  46.693  1.00  0.00    -0.458 OA
ATOM     52  O   UNL     1      34.552  55.933  47.879  1.00  0.00    -0.247 OA
ENDBRANCH  42  47
ENDBRANCH  25  26
ENDBRANCH   3  25
TORSDOF 11
ENDMDL
