REMARK  Name = 
REMARK  17 active torsions:
REMARK  status: ('A' for Active; 'I' for Inactive)
REMARK    1  A    between atoms: C_1  and  C_2
REMARK    2  A    between atoms: C_3  and  C_4
REMARK    3  A    between atoms: C_8  and  C_9
REMARK    4  A    between atoms: C_9  and  C_10
REMARK    5  A    between atoms: C_9  and  C_11
REMARK    6  A    between atoms: C_12  and  O_13
REMARK    7  A    between atoms: C_20  and  O_21
REMARK    8  A    between atoms: C_23  and  O_24
REMARK    9  A    between atoms: O_24  and  C_25
REMARK   10  A    between atoms: C_27  and  C_28
REMARK   11  A    between atoms: C_28  and  O_29
REMARK   12  A    between atoms: C_30  and  O_31
REMARK   13  A    between atoms: C_32  and  O_33
REMARK   14  A    between atoms: C_34  and  O_35
REMARK   15  A    between atoms: C_37  and  O_38
REMARK   16  A    between atoms: C_39  and  C_40
REMARK   17  A    between atoms: C_44  and  C_45
REMARK                            x       y       z     vdW  Elec       q    Type
REMARK                         _______ _______ _______ _____ _____    ______ ____
ROOT
ATOM      1  C   UNL     1      23.771  60.991  37.934  0.00  0.00    +0.000 C 
ATOM      2  C   UNL     1      24.761  62.069  37.417  0.00  0.00    +0.000 C 
ATOM      3  C   UNL     1      24.248  62.289  35.964  0.00  0.00    +0.000 C 
ATOM      4  C   UNL     1      22.758  62.419  36.212  0.00  0.00    +0.000 C 
ATOM      5  C   UNL     1      21.692  62.737  35.120  0.00  0.00    +0.000 C 
ATOM      6  C   UNL     1      21.715  61.895  33.800  0.00  0.00    +0.000 C 
ATOM      7  O   UNL     1      20.652  60.967  33.663  0.00  0.00    +0.000 OA
ATOM      8  C   UNL     1      20.557  62.121  32.858  0.00  0.00    +0.000 C 
ATOM      9  C   UNL     1      19.651  63.321  33.307  0.00  0.00    +0.000 C 
ATOM     10  C   UNL     1      18.450  63.580  32.355  0.00  0.00    +0.000 C 
ATOM     11  C   UNL     1      17.748  64.917  32.728  0.00  0.00    +0.000 C 
ATOM     12  C   UNL     1      17.374  65.014  34.223  0.00  0.00    +0.000 C 
ATOM     13  C   UNL     1      18.534  64.610  35.182  0.00  0.00    +0.000 C 
ATOM     14  C   UNL     1      19.102  63.187  34.808  0.00  0.00    +0.000 C 
ATOM     15  C   UNL     1      17.941  62.123  34.930  0.00  0.00    +0.000 C 
ATOM     16  C   UNL     1      20.259  62.644  35.749  0.00  0.00    +0.000 C 
ATOM     17  C   UNL     1      20.244  62.924  37.265  0.00  0.00    +0.000 C 
ATOM     18  C   UNL     1      21.211  61.952  38.060  0.00  0.00    +0.000 C 
ATOM     19  C   UNL     1      22.383  61.307  37.216  0.00  0.00    +0.000 C 
ATOM     20  C   UNL     1      21.950  59.940  36.570  0.00  0.00    +0.000 C 
ENDROOT
BRANCH   1  21
ATOM     21  C   UNL     1      23.803  60.378  39.392  0.00  0.00    +0.000 C 
ATOM     22  C   UNL     1      23.425  61.303  40.567  0.00  0.00    +0.000 C 
BRANCH  21  30
ATOM     23  C   UNL     1      28.747  60.253  40.720  0.00  0.00    +0.000 C 
ATOM     24  C   UNL     1      27.403  59.561  40.772  0.00  0.00    +0.000 C 
ATOM     25  C   UNL     1      27.203  58.243  41.084  0.00  0.00    +0.000 C 
ATOM     26  C   UNL     1      28.285  57.258  41.473  0.00  0.00    +0.000 C 
ATOM     27  C   UNL     1      25.806  57.725  41.011  0.00  0.00    +0.000 C 
ATOM     28  O   UNL     1      25.528  56.608  41.418  0.00  0.00    +0.000 OA
ATOM     29  O   UNL     1      24.833  58.498  40.465  0.00  0.00    +0.000 OA
ATOM     30  C   UNL     1      25.131  59.624  39.711  0.00  0.00    +0.000 C 
ATOM     31  C   UNL     1      26.189  60.434  40.488  0.00  0.00    +0.000 C 
ENDBRANCH  21  30
ENDBRANCH   1  21
BRANCH   2  32
ATOM     32  O   UNL     1      24.728  63.276  38.151  0.00  0.00    +0.000 OA
ATOM     33  H   UNL     1      23.810  63.642  38.160  0.00  0.00    +0.000 HD
ENDBRANCH   2  32
BRANCH   9  34
ATOM     34  O   UNL     1      20.484  64.463  33.208  0.00  0.00    +0.000 OA
ATOM     35  H   UNL     1      20.318  64.906  32.333  0.00  0.00    +0.000 HD
ENDBRANCH   9  34
BRANCH  13  36
ATOM     36  O   UNL     1      18.101  64.691  36.518  0.00  0.00    +0.000 OA
ATOM     37  H   UNL     1      18.699  64.134  37.079  0.00  0.00    +0.000 HD
ENDBRANCH  13  36
BRANCH  11  38
ATOM     38  O   UNL     1      16.546  65.018  31.981  0.00  0.00    +0.000 OA
BRANCH  38  39
ATOM     39  C   UNL     1      15.456  65.617  32.658  0.00  0.00    +0.000 C 
ATOM     40  O   UNL     1      15.305  66.941  32.162  0.00  0.00    +0.000 OA
ATOM     41  C   UNL     1      14.264  67.626  32.845  0.00  0.00    +0.000 C 
ATOM     42  C   UNL     1      12.890  66.950  32.565  0.00  0.00    +0.000 C 
ATOM     43  C   UNL     1      12.979  65.476  33.017  0.00  0.00    +0.000 C 
ATOM     44  C   UNL     1      14.181  64.772  32.358  0.00  0.00    +0.000 C 
BRANCH  42  45
ATOM     45  O   UNL     1      12.504  67.054  31.211  0.00  0.00    +0.000 OA
ATOM     46  H   UNL     1      11.745  67.687  31.133  0.00  0.00    +0.000 HD
ENDBRANCH  42  45
BRANCH  43  47
ATOM     47  O   UNL     1      11.775  64.782  32.804  0.00  0.00    +0.000 OA
ATOM     48  H   UNL     1      11.025  65.373  33.074  0.00  0.00    +0.000 HD
ENDBRANCH  43  47
BRANCH  44  49
ATOM     49  O   UNL     1      13.935  64.602  30.975  0.00  0.00    +0.000 OA
ATOM     50  H   UNL     1      12.971  64.443  30.809  0.00  0.00    +0.000 HD
ENDBRANCH  44  49
BRANCH  41  51
ATOM     51  C   UNL     1      14.279  69.098  32.410  0.00  0.00    +0.000 C 
BRANCH  51  52
ATOM     52  O   UNL     1      14.681  69.931  33.465  0.00  0.00    +0.000 OA
ATOM     53  H   UNL     1      13.952  69.913  34.140  0.00  0.00    +0.000 HD
ENDBRANCH  51  52
ENDBRANCH  41  51
ENDBRANCH  38  39
ENDBRANCH  11  38
TORSDOF 12
