REMARK  Name = 
REMARK  18 active torsions:
REMARK  status: ('A' for Active; 'I' for Inactive)
REMARK    1  A    between atoms: C_1  and  C_2
REMARK    2  A    between atoms: C_2  and  O_4
REMARK    3  A    between atoms: O_4  and  C_5
REMARK    4  A    between atoms: C_7  and  O_8
REMARK    5  A    between atoms: C_14  and  O_15
REMARK    6  A    between atoms: O_15  and  C_16
REMARK    7  A    between atoms: C_18  and  O_19
REMARK    8  A    between atoms: C_20  and  O_21
REMARK    9  A    between atoms: O_21  and  C_22
REMARK   10  A    between atoms: C_24  and  C_25
REMARK   11  A    between atoms: C_25  and  O_26
REMARK   12  A    between atoms: C_27  and  O_28
REMARK   13  A    between atoms: C_29  and  O_30
REMARK   14  A    between atoms: C_31  and  O_32
REMARK   15  A    between atoms: C_33  and  C_34
REMARK   16  A    between atoms: C_38  and  C_39
REMARK   17  A    between atoms: C_43  and  C_44
REMARK   18  A    between atoms: C_45  and  C_46
REMARK                            x       y       z     vdW  Elec       q    Type
REMARK                         _______ _______ _______ _____ _____    ______ ____
ROOT
ATOM      1  C   UNL     1      29.855  60.395  47.193  0.00  0.00    +0.000 C 
ATOM      2  C   UNL     1      29.278  60.435  45.770  0.00  0.00    +0.000 C 
ATOM      3  C   UNL     1      28.817  58.973  45.565  0.00  0.00    +0.000 C 
ATOM      4  C   UNL     1      27.983  58.658  44.282  0.00  0.00    +0.000 C 
ATOM      5  C   UNL     1      28.724  58.947  42.975  0.00  0.00    +0.000 C 
ATOM      6  C   UNL     1      28.035  58.200  41.821  0.00  0.00    +0.000 C 
ATOM      7  C   UNL     1      26.491  58.076  41.996  0.00  0.00    +0.000 C 
ATOM      8  C   UNL     1      25.802  57.882  40.630  0.00  0.00    +0.000 C 
ATOM      9  C   UNL     1      25.661  59.194  39.805  0.00  0.00    +0.000 C 
ATOM     10  C   UNL     1      26.225  60.447  40.518  0.00  0.00    +0.000 C 
ATOM     11  C   UNL     1      25.908  60.592  42.019  0.00  0.00    +0.000 C 
ATOM     12  C   UNL     1      25.837  59.234  42.826  0.00  0.00    +0.000 C 
ATOM     13  C   UNL     1      24.316  58.944  43.021  0.00  0.00    +0.000 C 
ATOM     14  C   UNL     1      26.576  59.359  44.253  0.00  0.00    +0.000 C 
ATOM     15  C   UNL     1      25.807  58.833  45.494  0.00  0.00    +0.000 C 
ATOM     16  C   UNL     1      26.549  59.257  46.771  0.00  0.00    +0.000 C 
ATOM     17  C   UNL     1      28.019  58.706  46.887  0.00  0.00    +0.000 C 
ATOM     18  C   UNL     1      27.930  57.192  47.212  0.00  0.00    +0.000 C 
ATOM     19  C   UNL     1      28.781  59.589  47.968  0.00  0.00    +0.000 C 
ENDROOT
BRANCH  19  20
ATOM     20  C   UNL     1      29.233  58.960  49.284  0.00  0.00    +0.000 C 
ATOM     21  C   UNL     1      28.718  59.302  50.460  0.00  0.00    +0.000 C 
ATOM     22  C   UNL     1      29.400  58.507  51.448  0.00  0.00    +0.000 C 
ATOM     23  O   UNL     1      29.188  58.543  52.649  0.00  0.00    +0.000 OA
ATOM     24  O   UNL     1      30.314  57.709  50.877  0.00  0.00    +0.000 OA
ATOM     25  C   UNL     1      30.304  57.903  49.511  0.00  0.00    +0.000 C 
ENDBRANCH  19  20
BRANCH   3  26
ATOM     26  O   UNL     1      29.947  58.118  45.549  0.00  0.00    +0.000 OA
ATOM     27  H   UNL     1      30.754  58.644  45.314  0.00  0.00    +0.000 HD
ENDBRANCH   3  26
BRANCH   1  28
ATOM     28  O   UNL     1      31.068  59.722  47.156  0.00  0.00    +0.000 OA
BRANCH  28  30
ATOM     29  C   UNL     1      32.389  61.101  48.707  0.00  0.00    +0.000 C 
ATOM     30  C   UNL     1      32.280  60.237  47.491  0.00  0.00    +0.000 C 
ATOM     31  O   UNL     1      33.280  59.987  46.834  0.00  0.00    +0.000 OA
ENDBRANCH  28  30
ENDBRANCH   1  28
BRANCH   9  32
ATOM     32  O   UNL     1      24.299  59.396  39.437  0.00  0.00    +0.000 OA
BRANCH  32  33
ATOM     33  C   UNL     1      24.102  60.612  38.717  0.00  0.00    +0.000 C 
ATOM     34  C   UNL     1      24.247  60.343  37.184  0.00  0.00    +0.000 C 
ATOM     35  C   UNL     1      22.854  60.090  36.613  0.00  0.00    +0.000 C 
ATOM     36  C   UNL     1      22.000  61.375  36.788  0.00  0.00    +0.000 C 
ATOM     37  C   UNL     1      22.340  62.051  38.151  0.00  0.00    +0.000 C 
ATOM     38  C   UNL     1      21.135  62.779  38.743  0.00  0.00    +0.000 C 
ATOM     39  O   UNL     1      22.808  61.101  39.081  0.00  0.00    +0.000 OA
BRANCH  35  40
ATOM     40  O   UNL     1      22.873  59.660  35.274  0.00  0.00    +0.000 OA
ATOM     41  H   UNL     1      21.965  59.794  34.897  0.00  0.00    +0.000 HD
ENDBRANCH  35  40
BRANCH  36  42
ATOM     42  O   UNL     1      22.311  62.310  35.754  0.00  0.00    +0.000 OA
BRANCH  42  43
ATOM     43  C   UNL     1      21.216  63.109  35.327  0.00  0.00    +0.000 C 
ATOM     44  O   UNL     1      20.031  62.332  35.549  0.00  0.00    +0.000 OA
ATOM     45  C   UNL     1      18.951  62.780  34.755  0.00  0.00    +0.000 C 
ATOM     46  C   UNL     1      19.201  62.457  33.251  0.00  0.00    +0.000 C 
ATOM     47  C   UNL     1      20.723  62.465  32.918  0.00  0.00    +0.000 C 
ATOM     48  C   UNL     1      21.446  63.484  33.808  0.00  0.00    +0.000 C 
BRANCH  46  49
ATOM     49  O   UNL     1      18.468  63.344  32.439  0.00  0.00    +0.000 OA
ATOM     50  H   UNL     1      18.336  64.189  32.939  0.00  0.00    +0.000 HD
ENDBRANCH  46  49
BRANCH  47  51
ATOM     51  O   UNL     1      21.307  61.193  33.105  0.00  0.00    +0.000 OA
ATOM     52  H   UNL     1      21.228  60.921  34.054  0.00  0.00    +0.000 HD
ENDBRANCH  47  51
BRANCH  48  53
ATOM     53  O   UNL     1      21.024  64.787  33.470  0.00  0.00    +0.000 OA
ATOM     54  H   UNL     1      21.799  65.364  33.259  0.00  0.00    +0.000 HD
ENDBRANCH  48  53
BRANCH  45  55
ATOM     55  C   UNL     1      17.643  62.136  35.232  0.00  0.00    +0.000 C 
BRANCH  55  56
ATOM     56  O   UNL     1      17.753  61.735  36.570  0.00  0.00    +0.000 OA
ATOM     57  H   UNL     1      18.723  61.619  36.754  0.00  0.00    +0.000 HD
ENDBRANCH  55  56
ENDBRANCH  45  55
ENDBRANCH  42  43
ENDBRANCH  36  42
ENDBRANCH  32  33
ENDBRANCH   9  32
TORSDOF 14
