MODEL 1
REMARK VINA RESULT:    -9.980      0.000      0.000
REMARK INTER + INTRA:         -18.981
REMARK INTER:                 -18.731
REMARK INTRA:                  -0.251
REMARK UNBOUND:                -0.251
REMARK SMILES Cc1cc(=O)c2c(O)c3c(cc2o1)OC(C)(C)[C@@H]1OC(=O)[C@]2(C[C@@H](CO)C[C@H]31)O[C@@H]2CCc1cc(N)nc(-c2cc(N)nc(C[N+]3=CC4=NC=CC4=C3)c2)c1
REMARK SMILES IDX 22 1 29 2 30 3 20 4 21 5 19 6 18 7 2 8 3 9 13 10 4 11 12 12
REMARK SMILES IDX 5 13 6 14 11 15 7 16 10 17 9 18 14 19 28 20 15 21 1 22 16 23
REMARK SMILES IDX 17 24 8 25 27 27 23 29 24 30 25 32 26 33 31 35 32 36 33 37
REMARK SMILES IDX 34 38 55 39 35 40 38 41 37 42 36 43 39 46 40 47 54 48 41 49
REMARK SMILES IDX 44 50 43 51 42 52 45 55 46 56 47 57 53 58 48 59 52 60 49 61
REMARK SMILES IDX 51 62 50 63
REMARK H PARENT 8 26 26 34 36 44 36 45 42 53 42 54
REMARK Flexibility Score:  376.900
ROOT
ATOM      1  C   UNL     1      28.899  58.543  46.840  1.00  0.00     0.192 C 
ATOM      2  O   UNL     1      27.561  58.749  46.443  1.00  0.00    -0.354 OA
ATOM      3  C   UNL     1      28.272  59.894  46.857  1.00  0.00     0.163 C 
ENDROOT
BRANCH   1   4
ATOM      4  C   UNL     1      29.806  58.109  45.727  1.00  0.00     0.341 C 
ATOM      5  O   UNL     1      30.754  58.815  45.425  1.00  0.00    -0.249 OA
BRANCH   4   6
ATOM      6  O   UNL     1      29.777  56.818  45.306  1.00  0.00    -0.455 OA
BRANCH   6   7
ATOM      7  C   UNL     1      28.686  56.165  44.756  1.00  0.00     0.227 C 
ATOM      8  C   UNL     1      30.866  49.120  46.049  1.00  0.00     0.105 A 
ATOM      9  C   UNL     1      29.811  49.082  46.957  1.00  0.00     0.095 A 
ATOM     10  O   UNL     1      31.099  50.225  45.350  1.00  0.00    -0.461 OA
ATOM     11  C   UNL     1      29.009  50.207  47.125  1.00  0.00     0.196 A 
ATOM     12  C   UNL     1      30.367  51.330  45.470  1.00  0.00     0.145 A 
ATOM     13  O   UNL     1      28.099  50.136  47.928  1.00  0.00    -0.289 OA
ATOM     14  C   UNL     1      29.271  51.386  46.370  1.00  0.00     0.107 A 
ATOM     15  C   UNL     1      30.672  52.419  44.656  1.00  0.00     0.094 A 
ATOM     16  C   UNL     1      28.512  52.597  46.450  1.00  0.00     0.137 A 
ATOM     17  C   UNL     1      29.921  53.591  44.718  1.00  0.00     0.131 A 
ATOM     18  C   UNL     1      28.872  53.722  45.653  1.00  0.00     0.044 A 
ATOM     19  O   UNL     1      30.172  54.574  43.815  1.00  0.00    -0.483 OA
ATOM     20  C   UNL     1      28.090  55.051  45.711  1.00  0.00     0.072 C 
ATOM     21  C   UNL     1      29.216  55.516  43.451  1.00  0.00     0.141 C 
ATOM     22  C   UNL     1      31.742  47.925  45.844  1.00  0.00     0.088 C 
ATOM     23  C   UNL     1      28.090  54.839  42.636  1.00  0.00     0.060 C 
ATOM     24  C   UNL     1      29.891  56.562  42.539  1.00  0.00     0.060 C 
BRANCH  16  25
ATOM     25  O   UNL     1      27.423  52.717  47.242  1.00  0.00    -0.507 OA
ATOM     26  H   UNL     1      26.779  52.049  47.483  1.00  0.00     0.293 HD
ENDBRANCH  16  25
BRANCH  20  27
ATOM     27  C   UNL     1      27.851  55.586  47.165  1.00  0.00     0.018 CG0
ATOM     28  G   UNL     1      29.103  56.177  47.890  1.00  0.00     0.000 G0
ENDBRANCH  20  27
ENDBRANCH   6   7
ENDBRANCH   4   6
ENDBRANCH   1   4
BRANCH   1  29
ATOM     29  C   UNL     1      28.956  57.733  48.149  1.00  0.00     0.056 C 
BRANCH  29  30
ATOM     30  C   UNL     1      29.099  56.201  47.924  1.00  0.00     0.019 CG0
ATOM     31  G   UNL     1      27.857  55.604  47.187  1.00  0.00     0.000 G0
BRANCH  30  32
ATOM     32  C   UNL     1      29.342  55.488  49.271  1.00  0.00     0.159 C 
BRANCH  32  33
ATOM     33  O   UNL     1      28.596  56.083  50.299  1.00  0.00    -0.396 OA
ATOM     34  H   UNL     1      27.639  55.946  50.072  1.00  0.00     0.210 HD
ENDBRANCH  32  33
ENDBRANCH  30  32
ENDBRANCH  29  30
ENDBRANCH   1  29
BRANCH   3  35
ATOM     35  C   UNL     1      28.279  60.891  45.690  1.00  0.00     0.040 C 
BRANCH  35  36
ATOM     36  C   UNL     1      26.922  60.793  44.957  1.00  0.00     0.038 C 
BRANCH  36  37
ATOM     37  C   UNL     1      27.133  60.687  43.462  1.00  0.00    -0.042 A 
ATOM     38  C   UNL     1      28.408  60.494  42.911  1.00  0.00     0.050 A 
ATOM     39  C   UNL     1      26.024  60.758  42.611  1.00  0.00     0.033 A 
ATOM     40  C   UNL     1      28.540  60.339  41.524  1.00  0.00     0.124 A 
ATOM     41  C   UNL     1      26.186  60.619  41.220  1.00  0.00     0.073 A 
ATOM     42  N   UNL     1      27.437  60.397  40.728  1.00  0.00    -0.231 NA
BRANCH  40  43
ATOM     43  N   UNL     1      29.809  60.109  40.944  1.00  0.00    -0.384 N 
ATOM     44  H   UNL     1      30.005  59.240  40.427  1.00  0.00     0.158 HD
ATOM     45  H   UNL     1      30.553  60.819  41.027  1.00  0.00     0.158 HD
ENDBRANCH  40  43
BRANCH  41  46
ATOM     46  C   UNL     1      25.032  60.704  40.275  1.00  0.00     0.006 A 
ATOM     47  C   UNL     1      23.765  60.235  40.666  1.00  0.00     0.057 A 
ATOM     48  C   UNL     1      25.172  61.237  38.978  1.00  0.00     0.041 A 
ATOM     49  C   UNL     1      22.679  60.334  39.785  1.00  0.00     0.124 A 
ATOM     50  C   UNL     1      24.074  61.289  38.111  1.00  0.00     0.108 A 
ATOM     51  N   UNL     1      22.860  60.855  38.544  1.00  0.00    -0.230 NA
BRANCH  49  52
ATOM     52  N   UNL     1      21.394  59.894  40.176  1.00  0.00    -0.384 N 
ATOM     53  H   UNL     1      20.599  60.550  40.219  1.00  0.00     0.158 HD
ATOM     54  H   UNL     1      21.236  58.904  40.415  1.00  0.00     0.158 HD
ENDBRANCH  49  52
BRANCH  50  55
ATOM     55  C   UNL     1      24.211  61.812  36.704  1.00  0.00     0.413 C 
BRANCH  55  56
ATOM     56  N   UNL     1      22.919  62.209  36.159  1.00  0.00    -0.196 N 
ATOM     57  C   UNL     1      22.283  63.276  36.525  1.00  0.00     0.337 C 
ATOM     58  C   UNL     1      22.163  61.502  35.161  1.00  0.00     0.319 C 
ATOM     59  C   UNL     1      21.051  63.299  35.772  1.00  0.00     0.140 C 
ATOM     60  C   UNL     1      21.042  62.173  34.954  1.00  0.00     0.072 C 
ATOM     61  N   UNL     1      20.019  64.046  35.676  1.00  0.00    -0.250 NA
ATOM     62  C   UNL     1      19.799  62.227  34.222  1.00  0.00     0.037 C 
ATOM     63  C   UNL     1      19.197  63.398  34.698  1.00  0.00     0.113 C 
ENDBRANCH  55  56
ENDBRANCH  50  55
ENDBRANCH  41  46
ENDBRANCH  36  37
ENDBRANCH  35  36
ENDBRANCH   3  35
TORSDOF 11
ENDMDL
MODEL 2
REMARK VINA RESULT:    -9.761      2.819      4.579
REMARK INTER + INTRA:         -18.570
REMARK INTER:                 -17.783
REMARK INTRA:                  -0.788
REMARK UNBOUND:                -0.251
REMARK SMILES Cc1cc(=O)c2c(O)c3c(cc2o1)OC(C)(C)[C@@H]1OC(=O)[C@]2(C[C@@H](CO)C[C@H]31)O[C@@H]2CCc1cc(N)nc(-c2cc(N)nc(C[N+]3=CC4=NC=CC4=C3)c2)c1
REMARK SMILES IDX 22 1 29 2 30 3 20 4 21 5 19 6 18 7 2 8 3 9 13 10 4 11 12 12
REMARK SMILES IDX 5 13 6 14 11 15 7 16 10 17 9 18 14 19 28 20 15 21 1 22 16 23
REMARK SMILES IDX 17 24 8 25 27 27 23 29 24 30 25 32 26 33 31 35 32 36 33 37
REMARK SMILES IDX 34 38 55 39 35 40 38 41 37 42 36 43 39 46 40 47 54 48 41 49
REMARK SMILES IDX 44 50 43 51 42 52 45 55 46 56 47 57 53 58 48 59 52 60 49 61
REMARK SMILES IDX 51 62 50 63
REMARK H PARENT 8 26 26 34 36 44 36 45 42 53 42 54
REMARK Flexibility Score:  376.900
ROOT
ATOM      1  C   UNL     1      26.687  57.480  46.324  1.00  0.00     0.192 C 
ATOM      2  O   UNL     1      25.292  57.506  46.529  1.00  0.00    -0.354 OA
ATOM      3  C   UNL     1      25.874  58.696  46.047  1.00  0.00     0.163 C 
ENDROOT
BRANCH   1   4
ATOM      4  C   UNL     1      27.125  56.558  45.226  1.00  0.00     0.341 C 
ATOM      5  O   UNL     1      26.281  56.056  44.500  1.00  0.00    -0.249 OA
BRANCH   4   6
ATOM      6  O   UNL     1      28.425  56.553  44.834  1.00  0.00    -0.455 OA
BRANCH   6   7
ATOM      7  C   UNL     1      29.303  55.487  44.938  1.00  0.00     0.227 C 
ATOM      8  C   UNL     1      35.696  59.366  45.319  1.00  0.00     0.105 A 
ATOM      9  C   UNL     1      35.760  58.911  46.633  1.00  0.00     0.095 A 
ATOM     10  O   UNL     1      34.679  59.009  44.542  1.00  0.00    -0.461 OA
ATOM     11  C   UNL     1      34.751  58.085  47.123  1.00  0.00     0.196 A 
ATOM     12  C   UNL     1      33.688  58.223  44.956  1.00  0.00     0.145 A 
ATOM     13  O   UNL     1      34.842  57.711  48.276  1.00  0.00    -0.289 OA
ATOM     14  C   UNL     1      33.666  57.711  46.280  1.00  0.00     0.107 A 
ATOM     15  C   UNL     1      32.693  57.875  44.045  1.00  0.00     0.094 A 
ATOM     16  C   UNL     1      32.581  56.862  46.668  1.00  0.00     0.137 A 
ATOM     17  C   UNL     1      31.647  57.032  44.416  1.00  0.00     0.131 A 
ATOM     18  C   UNL     1      31.540  56.562  45.742  1.00  0.00     0.044 A 
ATOM     19  O   UNL     1      30.776  56.616  43.461  1.00  0.00    -0.483 OA
ATOM     20  C   UNL     1      30.346  55.660  46.117  1.00  0.00     0.072 C 
ATOM     21  C   UNL     1      30.046  55.438  43.578  1.00  0.00     0.141 C 
ATOM     22  C   UNL     1      36.766  60.251  44.763  1.00  0.00     0.088 C 
ATOM     23  C   UNL     1      30.991  54.218  43.470  1.00  0.00     0.060 C 
ATOM     24  C   UNL     1      29.053  55.366  42.398  1.00  0.00     0.060 C 
BRANCH  16  25
ATOM     25  O   UNL     1      32.511  56.292  47.891  1.00  0.00    -0.507 OA
ATOM     26  H   UNL     1      32.540  55.361  48.123  1.00  0.00     0.293 HD
ENDBRANCH  16  25
BRANCH  20  27
ATOM     27  C   UNL     1      29.651  56.051  47.467  1.00  0.00     0.018 CG0
ATOM     28  G   UNL     1      29.001  57.471  47.513  1.00  0.00     0.000 G0
ENDBRANCH  20  27
ENDBRANCH   6   7
ENDBRANCH   4   6
ENDBRANCH   1   4
BRANCH   1  29
ATOM     29  C   UNL     1      27.431  57.373  47.669  1.00  0.00     0.056 C 
BRANCH  29  30
ATOM     30  C   UNL     1      28.977  57.468  47.531  1.00  0.00     0.019 CG0
ATOM     31  G   UNL     1      29.642  56.055  47.462  1.00  0.00     0.000 G0
BRANCH  30  32
ATOM     32  C   UNL     1      29.562  58.300  48.692  1.00  0.00     0.159 C 
BRANCH  32  33
ATOM     33  O   UNL     1      30.306  59.387  48.210  1.00  0.00    -0.396 OA
ATOM     34  H   UNL     1      31.208  59.317  48.620  1.00  0.00     0.210 HD
ENDBRANCH  32  33
ENDBRANCH  30  32
ENDBRANCH  29  30
ENDBRANCH   1  29
BRANCH   3  35
ATOM     35  C   UNL     1      25.209  59.033  44.705  1.00  0.00     0.040 C 
BRANCH  35  36
ATOM     36  C   UNL     1      26.139  59.991  43.927  1.00  0.00     0.038 C 
BRANCH  36  37
ATOM     37  C   UNL     1      26.050  59.726  42.440  1.00  0.00    -0.042 A 
ATOM     38  C   UNL     1      27.019  58.965  41.769  1.00  0.00     0.050 A 
ATOM     39  C   UNL     1      24.961  60.230  41.722  1.00  0.00     0.033 A 
ATOM     40  C   UNL     1      26.856  58.694  40.404  1.00  0.00     0.124 A 
ATOM     41  C   UNL     1      24.830  59.961  40.346  1.00  0.00     0.073 A 
ATOM     42  N   UNL     1      25.774  59.188  39.741  1.00  0.00    -0.231 NA
BRANCH  40  43
ATOM     43  N   UNL     1      27.799  57.902  39.710  1.00  0.00    -0.384 N 
ATOM     44  H   UNL     1      27.574  57.494  38.791  1.00  0.00     0.158 HD
ATOM     45  H   UNL     1      28.731  57.730  40.117  1.00  0.00     0.158 HD
ENDBRANCH  40  43
BRANCH  41  46
ATOM     46  C   UNL     1      23.691  60.493  39.539  1.00  0.00     0.006 A 
ATOM     47  C   UNL     1      22.367  60.298  39.974  1.00  0.00     0.057 A 
ATOM     48  C   UNL     1      23.898  61.187  38.330  1.00  0.00     0.041 A 
ATOM     49  C   UNL     1      21.301  60.815  39.225  1.00  0.00     0.124 A 
ATOM     50  C   UNL     1      22.808  61.661  37.589  1.00  0.00     0.108 A 
ATOM     51  N   UNL     1      21.547  61.478  38.065  1.00  0.00    -0.230 NA
BRANCH  49  52
ATOM     52  N   UNL     1      19.968  60.652  39.666  1.00  0.00    -0.384 N 
ATOM     53  H   UNL     1      19.540  59.716  39.727  1.00  0.00     0.158 HD
ATOM     54  H   UNL     1      19.411  61.473  39.943  1.00  0.00     0.158 HD
ENDBRANCH  49  52
BRANCH  50  55
ATOM     55  C   UNL     1      23.004  62.363  36.271  1.00  0.00     0.413 C 
BRANCH  55  56
ATOM     56  N   UNL     1      21.726  62.686  35.649  1.00  0.00    -0.196 N 
ATOM     57  C   UNL     1      21.085  63.793  35.855  1.00  0.00     0.337 C 
ATOM     58  C   UNL     1      20.989  61.853  34.737  1.00  0.00     0.319 C 
ATOM     59  C   UNL     1      19.871  63.716  35.078  1.00  0.00     0.140 C 
ATOM     60  C   UNL     1      19.876  62.492  34.417  1.00  0.00     0.072 C 
ATOM     61  N   UNL     1      18.844  64.445  34.860  1.00  0.00    -0.250 NA
ATOM     62  C   UNL     1      18.650  62.448  33.656  1.00  0.00     0.037 C 
ATOM     63  C   UNL     1      18.042  63.673  33.958  1.00  0.00     0.113 C 
ENDBRANCH  55  56
ENDBRANCH  50  55
ENDBRANCH  41  46
ENDBRANCH  36  37
ENDBRANCH  35  36
ENDBRANCH   3  35
TORSDOF 11
ENDMDL
MODEL 3
REMARK VINA RESULT:    -9.717     13.411     23.106
REMARK INTER + INTRA:         -18.488
REMARK INTER:                 -17.142
REMARK INTRA:                  -1.346
REMARK UNBOUND:                -0.251
REMARK SMILES Cc1cc(=O)c2c(O)c3c(cc2o1)OC(C)(C)[C@@H]1OC(=O)[C@]2(C[C@@H](CO)C[C@H]31)O[C@@H]2CCc1cc(N)nc(-c2cc(N)nc(C[N+]3=CC4=NC=CC4=C3)c2)c1
REMARK SMILES IDX 22 1 29 2 30 3 20 4 21 5 19 6 18 7 2 8 3 9 13 10 4 11 12 12
REMARK SMILES IDX 5 13 6 14 11 15 7 16 10 17 9 18 14 19 28 20 15 21 1 22 16 23
REMARK SMILES IDX 17 24 8 25 27 27 23 29 24 30 25 32 26 33 31 35 32 36 33 37
REMARK SMILES IDX 34 38 55 39 35 40 38 41 37 42 36 43 39 46 40 47 54 48 41 49
REMARK SMILES IDX 44 50 43 51 42 52 45 55 46 56 47 57 53 58 48 59 52 60 49 61
REMARK SMILES IDX 51 62 50 63
REMARK H PARENT 8 26 26 34 36 44 36 45 42 53 42 54
REMARK Flexibility Score:  376.900
ROOT
ATOM      1  C   UNL     1      13.688  61.891  27.050  1.00  0.00     0.192 C 
ATOM      2  O   UNL     1      14.469  60.720  26.949  1.00  0.00    -0.354 OA
ATOM      3  C   UNL     1      15.173  61.941  26.950  1.00  0.00     0.163 C 
ENDROOT
BRANCH   1   4
ATOM      4  C   UNL     1      12.982  62.040  28.365  1.00  0.00     0.341 C 
ATOM      5  O   UNL     1      13.157  61.200  29.232  1.00  0.00    -0.249 OA
BRANCH   4   6
ATOM      6  O   UNL     1      12.444  63.240  28.702  1.00  0.00    -0.455 OA
BRANCH   6   7
ATOM      7  C   UNL     1      11.101  63.495  28.931  1.00  0.00     0.227 C 
ATOM      8  C   UNL     1      10.909  70.583  26.526  1.00  0.00     0.105 A 
ATOM      9  C   UNL     1      10.133  70.087  25.482  1.00  0.00     0.095 A 
ATOM     10  O   UNL     1      11.356  69.761  27.469  1.00  0.00    -0.461 OA
ATOM     11  C   UNL     1       9.832  68.729  25.436  1.00  0.00     0.196 A 
ATOM     12  C   UNL     1      11.100  68.455  27.476  1.00  0.00     0.145 A 
ATOM     13  O   UNL     1       9.153  68.333  24.509  1.00  0.00    -0.289 OA
ATOM     14  C   UNL     1      10.318  67.858  26.453  1.00  0.00     0.107 A 
ATOM     15  C   UNL     1      11.581  67.691  28.538  1.00  0.00     0.094 A 
ATOM     16  C   UNL     1      10.066  66.450  26.517  1.00  0.00     0.137 A 
ATOM     17  C   UNL     1      11.320  66.325  28.612  1.00  0.00     0.131 A 
ATOM     18  C   UNL     1      10.613  65.672  27.578  1.00  0.00     0.044 A 
ATOM     19  O   UNL     1      11.694  65.649  29.729  1.00  0.00    -0.483 OA
ATOM     20  C   UNL     1      10.378  64.151  27.684  1.00  0.00     0.072 C 
ATOM     21  C   UNL     1      11.072  64.473  30.134  1.00  0.00     0.141 C 
ATOM     22  C   UNL     1      11.245  72.039  26.605  1.00  0.00     0.088 C 
ATOM     23  C   UNL     1       9.632  64.774  30.609  1.00  0.00     0.060 C 
ATOM     24  C   UNL     1      11.853  63.904  31.338  1.00  0.00     0.060 C 
BRANCH  16  25
ATOM     25  O   UNL     1       9.289  65.813  25.613  1.00  0.00    -0.507 OA
ATOM     26  H   UNL     1       8.634  65.127  25.761  1.00  0.00     0.293 HD
ENDBRANCH  16  25
BRANCH  20  27
ATOM     27  C   UNL     1      10.664  63.368  26.356  1.00  0.00     0.018 CG0
ATOM     28  G   UNL     1      12.112  63.501  25.785  1.00  0.00     0.000 G0
ENDBRANCH  20  27
ENDBRANCH   6   7
ENDBRANCH   4   6
ENDBRANCH   1   4
BRANCH   1  29
ATOM     29  C   UNL     1      12.849  62.094  25.775  1.00  0.00     0.056 C 
BRANCH  29  30
ATOM     30  C   UNL     1      12.104  63.459  25.735  1.00  0.00     0.019 CG0
ATOM     31  G   UNL     1      10.673  63.358  26.354  1.00  0.00     0.000 G0
BRANCH  30  32
ATOM     32  C   UNL     1      12.047  63.989  24.287  1.00  0.00     0.159 C 
BRANCH  32  33
ATOM     33  O   UNL     1      12.665  65.244  24.182  1.00  0.00    -0.396 OA
ATOM     34  H   UNL     1      11.939  65.921  24.211  1.00  0.00     0.210 HD
ENDBRANCH  32  33
ENDBRANCH  30  32
ENDBRANCH  29  30
ENDBRANCH   1  29
BRANCH   3  35
ATOM     35  C   UNL     1      16.145  61.921  28.138  1.00  0.00     0.040 C 
BRANCH  35  36
ATOM     36  C   UNL     1      16.875  63.282  28.194  1.00  0.00     0.038 C 
BRANCH  36  37
ATOM     37  C   UNL     1      16.687  63.930  29.548  1.00  0.00    -0.042 A 
ATOM     38  C   UNL     1      15.603  64.778  29.814  1.00  0.00     0.050 A 
ATOM     39  C   UNL     1      17.605  63.654  30.568  1.00  0.00     0.033 A 
ATOM     40  C   UNL     1      15.440  65.301  31.104  1.00  0.00     0.124 A 
ATOM     41  C   UNL     1      17.430  64.208  31.851  1.00  0.00     0.073 A 
ATOM     42  N   UNL     1      16.343  64.998  32.076  1.00  0.00    -0.231 NA
BRANCH  40  43
ATOM     43  N   UNL     1      14.337  66.132  31.410  1.00  0.00    -0.384 N 
ATOM     44  H   UNL     1      14.345  67.133  31.166  1.00  0.00     0.158 HD
ATOM     45  H   UNL     1      13.505  65.738  31.875  1.00  0.00     0.158 HD
ENDBRANCH  40  43
BRANCH  41  46
ATOM     46  C   UNL     1      18.394  63.952  32.963  1.00  0.00     0.006 A 
ATOM     47  C   UNL     1      18.889  65.024  33.727  1.00  0.00     0.057 A 
ATOM     48  C   UNL     1      18.841  62.652  33.273  1.00  0.00     0.041 A 
ATOM     49  C   UNL     1      19.777  64.779  34.783  1.00  0.00     0.124 A 
ATOM     50  C   UNL     1      19.755  62.446  34.313  1.00  0.00     0.108 A 
ATOM     51  N   UNL     1      20.182  63.509  35.047  1.00  0.00    -0.230 NA
BRANCH  49  52
ATOM     52  N   UNL     1      20.260  65.844  35.579  1.00  0.00    -0.384 N 
ATOM     53  H   UNL     1      20.266  65.776  36.608  1.00  0.00     0.158 HD
ATOM     54  H   UNL     1      20.621  66.700  35.134  1.00  0.00     0.158 HD
ENDBRANCH  49  52
BRANCH  50  55
ATOM     55  C   UNL     1      20.282  61.072  34.632  1.00  0.00     0.413 C 
BRANCH  55  56
ATOM     56  N   UNL     1      21.411  61.137  35.551  1.00  0.00    -0.196 N 
ATOM     57  C   UNL     1      21.399  60.627  36.742  1.00  0.00     0.337 C 
ATOM     58  C   UNL     1      22.680  61.763  35.296  1.00  0.00     0.319 C 
ATOM     59  C   UNL     1      22.685  60.920  37.328  1.00  0.00     0.140 C 
ATOM     60  C   UNL     1      23.423  61.626  36.383  1.00  0.00     0.072 C 
ATOM     61  N   UNL     1      23.284  60.713  38.438  1.00  0.00    -0.250 NA
ATOM     62  C   UNL     1      24.697  61.904  37.003  1.00  0.00     0.037 C 
ATOM     63  C   UNL     1      24.569  61.324  38.271  1.00  0.00     0.113 C 
ENDBRANCH  55  56
ENDBRANCH  50  55
ENDBRANCH  41  46
ENDBRANCH  36  37
ENDBRANCH  35  36
ENDBRANCH   3  35
TORSDOF 11
ENDMDL
MODEL 4
REMARK VINA RESULT:    -9.610      2.062      2.704
REMARK INTER + INTRA:         -18.288
REMARK INTER:                 -18.219
REMARK INTRA:                  -0.069
REMARK UNBOUND:                -0.251
REMARK SMILES Cc1cc(=O)c2c(O)c3c(cc2o1)OC(C)(C)[C@@H]1OC(=O)[C@]2(C[C@@H](CO)C[C@H]31)O[C@@H]2CCc1cc(N)nc(-c2cc(N)nc(C[N+]3=CC4=NC=CC4=C3)c2)c1
REMARK SMILES IDX 22 1 29 2 30 3 20 4 21 5 19 6 18 7 2 8 3 9 13 10 4 11 12 12
REMARK SMILES IDX 5 13 6 14 11 15 7 16 10 17 9 18 14 19 28 20 15 21 1 22 16 23
REMARK SMILES IDX 17 24 8 25 27 27 23 29 24 30 25 32 26 33 31 35 32 36 33 37
REMARK SMILES IDX 34 38 55 39 35 40 38 41 37 42 36 43 39 46 40 47 54 48 41 49
REMARK SMILES IDX 44 50 43 51 42 52 45 55 46 56 47 57 53 58 48 59 52 60 49 61
REMARK SMILES IDX 51 62 50 63
REMARK H PARENT 8 26 26 34 36 44 36 45 42 53 42 54
REMARK Flexibility Score:  376.900
ROOT
ATOM      1  C   UNL     1      27.808  57.425  46.698  1.00  0.00     0.192 C 
ATOM      2  O   UNL     1      26.724  57.178  45.829  1.00  0.00    -0.354 OA
ATOM      3  C   UNL     1      26.490  58.094  46.875  1.00  0.00     0.163 C 
ENDROOT
BRANCH   1   4
ATOM      4  C   UNL     1      28.965  58.122  46.047  1.00  0.00     0.341 C 
ATOM      5  O   UNL     1      29.320  59.208  46.475  1.00  0.00    -0.249 OA
BRANCH   4   6
ATOM      6  O   UNL     1      29.802  57.419  45.241  1.00  0.00    -0.455 OA
BRANCH   6   7
ATOM      7  C   UNL     1      29.469  56.840  44.027  1.00  0.00     0.227 C 
ATOM      8  C   UNL     1      34.665  51.450  43.926  1.00  0.00     0.105 A 
ATOM      9  C   UNL     1      33.594  50.574  44.080  1.00  0.00     0.095 A 
ATOM     10  O   UNL     1      34.445  52.758  43.850  1.00  0.00    -0.461 OA
ATOM     11  C   UNL     1      32.299  51.079  44.156  1.00  0.00     0.196 A 
ATOM     12  C   UNL     1      33.230  53.297  43.916  1.00  0.00     0.145 A 
ATOM     13  O   UNL     1      31.391  50.283  44.293  1.00  0.00    -0.289 OA
ATOM     14  C   UNL     1      32.077  52.484  44.075  1.00  0.00     0.107 A 
ATOM     15  C   UNL     1      33.109  54.679  43.781  1.00  0.00     0.094 A 
ATOM     16  C   UNL     1      30.795  53.117  44.131  1.00  0.00     0.137 A 
ATOM     17  C   UNL     1      31.860  55.294  43.815  1.00  0.00     0.131 A 
ATOM     18  C   UNL     1      30.693  54.536  44.049  1.00  0.00     0.044 A 
ATOM     19  O   UNL     1      31.781  56.623  43.548  1.00  0.00    -0.483 OA
ATOM     20  C   UNL     1      29.334  55.264  44.114  1.00  0.00     0.072 C 
ATOM     21  C   UNL     1      30.622  57.221  43.064  1.00  0.00     0.141 C 
ATOM     22  C   UNL     1      36.067  50.936  43.836  1.00  0.00     0.088 C 
ATOM     23  C   UNL     1      30.353  56.754  41.615  1.00  0.00     0.060 C 
ATOM     24  C   UNL     1      30.843  58.748  43.030  1.00  0.00     0.060 C 
BRANCH  16  25
ATOM     25  O   UNL     1      29.645  52.414  44.227  1.00  0.00    -0.507 OA
ATOM     26  H   UNL     1      29.041  52.151  43.530  1.00  0.00     0.293 HD
ENDBRANCH  16  25
BRANCH  20  27
ATOM     27  C   UNL     1      28.426  54.814  45.310  1.00  0.00     0.018 CG0
ATOM     28  G   UNL     1      28.962  55.153  46.739  1.00  0.00     0.000 G0
ENDBRANCH  20  27
ENDBRANCH   6   7
ENDBRANCH   4   6
ENDBRANCH   1   4
BRANCH   1  29
ATOM     29  C   UNL     1      28.125  56.172  47.536  1.00  0.00     0.056 C 
BRANCH  29  30
ATOM     30  C   UNL     1      28.967  55.111  46.772  1.00  0.00     0.019 CG0
ATOM     31  G   UNL     1      28.407  54.848  45.337  1.00  0.00     0.000 G0
BRANCH  30  32
ATOM     32  C   UNL     1      29.040  53.804  47.589  1.00  0.00     0.159 C 
BRANCH  32  33
ATOM     33  O   UNL     1      30.096  53.842  48.512  1.00  0.00    -0.396 OA
ATOM     34  H   UNL     1      30.335  54.798  48.630  1.00  0.00     0.210 HD
ENDBRANCH  32  33
ENDBRANCH  30  32
ENDBRANCH  29  30
ENDBRANCH   1  29
BRANCH   3  35
ATOM     35  C   UNL     1      26.082  59.433  46.244  1.00  0.00     0.040 C 
BRANCH  35  36
ATOM     36  C   UNL     1      25.257  59.141  44.971  1.00  0.00     0.038 C 
BRANCH  36  37
ATOM     37  C   UNL     1      25.796  59.929  43.797  1.00  0.00    -0.042 A 
ATOM     38  C   UNL     1      27.064  60.527  43.833  1.00  0.00     0.050 A 
ATOM     39  C   UNL     1      25.021  60.040  42.637  1.00  0.00     0.033 A 
ATOM     40  C   UNL     1      27.543  61.191  42.695  1.00  0.00     0.124 A 
ATOM     41  C   UNL     1      25.517  60.730  41.514  1.00  0.00     0.073 A 
ATOM     42  N   UNL     1      26.768  61.265  41.579  1.00  0.00    -0.231 NA
BRANCH  40  43
ATOM     43  N   UNL     1      28.831  61.774  42.692  1.00  0.00    -0.384 N 
ATOM     44  H   UNL     1      29.519  61.544  43.423  1.00  0.00     0.158 HD
ATOM     45  H   UNL     1      29.098  62.435  41.946  1.00  0.00     0.158 HD
ENDBRANCH  40  43
BRANCH  41  46
ATOM     46  C   UNL     1      24.716  60.885  40.262  1.00  0.00     0.006 A 
ATOM     47  C   UNL     1      25.187  60.343  39.053  1.00  0.00     0.057 A 
ATOM     48  C   UNL     1      23.489  61.577  40.247  1.00  0.00     0.041 A 
ATOM     49  C   UNL     1      24.425  60.473  37.884  1.00  0.00     0.124 A 
ATOM     50  C   UNL     1      22.769  61.717  39.055  1.00  0.00     0.108 A 
ATOM     51  N   UNL     1      23.247  61.148  37.915  1.00  0.00    -0.230 NA
BRANCH  49  52
ATOM     52  N   UNL     1      24.872  59.906  36.668  1.00  0.00    -0.384 N 
ATOM     53  H   UNL     1      24.224  59.394  36.052  1.00  0.00     0.158 HD
ATOM     54  H   UNL     1      25.856  60.011  36.379  1.00  0.00     0.158 HD
ENDBRANCH  49  52
BRANCH  50  55
ATOM     55  C   UNL     1      21.478  62.492  39.006  1.00  0.00     0.413 C 
BRANCH  55  56
ATOM     56  N   UNL     1      20.981  62.606  37.641  1.00  0.00    -0.196 N 
ATOM     57  C   UNL     1      21.102  63.676  36.919  1.00  0.00     0.337 C 
ATOM     58  C   UNL     1      20.292  61.586  36.898  1.00  0.00     0.319 C 
ATOM     59  C   UNL     1      20.470  63.391  35.652  1.00  0.00     0.140 C 
ATOM     60  C   UNL     1      19.989  62.086  35.711  1.00  0.00     0.072 C 
ATOM     61  N   UNL     1      20.245  64.001  34.553  1.00  0.00    -0.250 NA
ATOM     62  C   UNL     1      19.363  61.838  34.435  1.00  0.00     0.037 C 
ATOM     63  C   UNL     1      19.542  63.046  33.749  1.00  0.00     0.113 C 
ENDBRANCH  55  56
ENDBRANCH  50  55
ENDBRANCH  41  46
ENDBRANCH  36  37
ENDBRANCH  35  36
ENDBRANCH   3  35
TORSDOF 11
ENDMDL
MODEL 5
REMARK VINA RESULT:    -9.480      5.111     11.894
REMARK INTER + INTRA:         -18.043
REMARK INTER:                 -18.164
REMARK INTRA:                   0.120
REMARK UNBOUND:                -0.251
REMARK SMILES Cc1cc(=O)c2c(O)c3c(cc2o1)OC(C)(C)[C@@H]1OC(=O)[C@]2(C[C@@H](CO)C[C@H]31)O[C@@H]2CCc1cc(N)nc(-c2cc(N)nc(C[N+]3=CC4=NC=CC4=C3)c2)c1
REMARK SMILES IDX 22 1 29 2 30 3 20 4 21 5 19 6 18 7 2 8 3 9 13 10 4 11 12 12
REMARK SMILES IDX 5 13 6 14 11 15 7 16 10 17 9 18 14 19 28 20 15 21 1 22 16 23
REMARK SMILES IDX 17 24 8 25 27 27 23 29 24 30 25 32 26 33 31 35 32 36 33 37
REMARK SMILES IDX 34 38 55 39 35 40 38 41 37 42 36 43 39 46 40 47 54 48 41 49
REMARK SMILES IDX 44 50 43 51 42 52 45 55 46 56 47 57 53 58 48 59 52 60 49 61
REMARK SMILES IDX 51 62 50 63
REMARK H PARENT 8 26 26 34 36 44 36 45 42 53 42 54
REMARK Flexibility Score:  376.900
ROOT
ATOM      1  C   UNL     1      27.475  58.196  46.271  1.00  0.00     0.192 C 
ATOM      2  O   UNL     1      28.658  57.592  45.796  1.00  0.00    -0.354 OA
ATOM      3  C   UNL     1      28.272  57.258  47.110  1.00  0.00     0.163 C 
ENDROOT
BRANCH   1   4
ATOM      4  C   UNL     1      26.233  57.753  45.556  1.00  0.00     0.341 C 
ATOM      5  O   UNL     1      25.146  57.962  46.070  1.00  0.00    -0.249 OA
BRANCH   4   6
ATOM      6  O   UNL     1      26.296  57.447  44.235  1.00  0.00    -0.455 OA
BRANCH   6   7
ATOM      7  C   UNL     1      27.282  57.853  43.350  1.00  0.00     0.227 C 
ATOM      8  C   UNL     1      22.865  60.790  38.065  1.00  0.00     0.105 A 
ATOM      9  C   UNL     1      23.402  62.013  38.459  1.00  0.00     0.095 A 
ATOM     10  O   UNL     1      23.260  59.670  38.661  1.00  0.00    -0.461 OA
ATOM     11  C   UNL     1      24.349  62.051  39.478  1.00  0.00     0.196 A 
ATOM     12  C   UNL     1      24.161  59.646  39.641  1.00  0.00     0.145 A 
ATOM     13  O   UNL     1      24.793  63.137  39.795  1.00  0.00    -0.289 OA
ATOM     14  C   UNL     1      24.763  60.843  40.110  1.00  0.00     0.107 A 
ATOM     15  C   UNL     1      24.536  58.411  40.166  1.00  0.00     0.094 A 
ATOM     16  C   UNL     1      25.732  60.756  41.159  1.00  0.00     0.137 A 
ATOM     17  C   UNL     1      25.494  58.324  41.173  1.00  0.00     0.131 A 
ATOM     18  C   UNL     1      26.063  59.491  41.726  1.00  0.00     0.044 A 
ATOM     19  O   UNL     1      25.923  57.094  41.560  1.00  0.00    -0.483 OA
ATOM     20  C   UNL     1      27.095  59.349  42.864  1.00  0.00     0.072 C 
ATOM     21  C   UNL     1      27.168  56.886  42.143  1.00  0.00     0.141 C 
ATOM     22  C   UNL     1      21.850  60.718  36.969  1.00  0.00     0.088 C 
ATOM     23  C   UNL     1      28.285  57.119  41.100  1.00  0.00     0.060 C 
ATOM     24  C   UNL     1      27.250  55.413  42.595  1.00  0.00     0.060 C 
BRANCH  16  25
ATOM     25  O   UNL     1      26.390  61.840  41.627  1.00  0.00    -0.507 OA
ATOM     26  H   UNL     1      26.707  62.606  41.144  1.00  0.00     0.293 HD
ENDBRANCH  16  25
BRANCH  20  27
ATOM     27  C   UNL     1      26.864  60.334  44.062  1.00  0.00     0.018 CG0
ATOM     28  G   UNL     1      28.035  60.443  45.091  1.00  0.00     0.000 G0
ENDBRANCH  20  27
ENDBRANCH   6   7
ENDBRANCH   4   6
ENDBRANCH   1   4
BRANCH   1  29
ATOM     29  C   UNL     1      27.677  59.712  46.454  1.00  0.00     0.056 C 
BRANCH  29  30
ATOM     30  C   UNL     1      28.024  60.455  45.132  1.00  0.00     0.019 CG0
ATOM     31  G   UNL     1      26.872  60.339  44.082  1.00  0.00     0.000 G0
BRANCH  30  32
ATOM     32  C   UNL     1      29.354  59.923  44.559  1.00  0.00     0.159 C 
BRANCH  32  33
ATOM     33  O   UNL     1      30.343  60.917  44.570  1.00  0.00    -0.396 OA
ATOM     34  H   UNL     1      31.176  60.492  44.236  1.00  0.00     0.210 HD
ENDBRANCH  32  33
ENDBRANCH  30  32
ENDBRANCH  29  30
ENDBRANCH   1  29
BRANCH   3  35
ATOM     35  C   UNL     1      28.076  55.736  47.170  1.00  0.00     0.040 C 
BRANCH  35  36
ATOM     36  C   UNL     1      27.072  55.418  48.300  1.00  0.00     0.038 C 
BRANCH  36  37
ATOM     37  C   UNL     1      27.210  53.977  48.742  1.00  0.00    -0.042 A 
ATOM     38  C   UNL     1      26.583  53.500  49.902  1.00  0.00     0.050 A 
ATOM     39  C   UNL     1      27.961  53.094  47.959  1.00  0.00     0.033 A 
ATOM     40  C   UNL     1      26.689  52.142  50.231  1.00  0.00     0.124 A 
ATOM     41  C   UNL     1      28.070  51.738  48.323  1.00  0.00     0.073 A 
ATOM     42  N   UNL     1      27.416  51.308  49.438  1.00  0.00    -0.231 NA
BRANCH  40  43
ATOM     43  N   UNL     1      26.040  51.626  51.377  1.00  0.00    -0.384 N 
ATOM     44  H   UNL     1      26.557  51.074  52.076  1.00  0.00     0.158 HD
ATOM     45  H   UNL     1      25.036  51.807  51.528  1.00  0.00     0.158 HD
ENDBRANCH  40  43
BRANCH  41  46
ATOM     46  C   UNL     1      28.874  50.764  47.524  1.00  0.00     0.006 A 
ATOM     47  C   UNL     1      29.239  49.526  48.082  1.00  0.00     0.057 A 
ATOM     48  C   UNL     1      29.297  51.053  46.211  1.00  0.00     0.041 A 
ATOM     49  C   UNL     1      29.976  48.607  47.323  1.00  0.00     0.124 A 
ATOM     50  C   UNL     1      30.062  50.125  45.493  1.00  0.00     0.108 A 
ATOM     51  N   UNL     1      30.363  48.926  46.061  1.00  0.00    -0.230 NA
BRANCH  49  52
ATOM     52  N   UNL     1      30.324  47.346  47.861  1.00  0.00    -0.384 N 
ATOM     53  H   UNL     1      29.598  46.692  48.189  1.00  0.00     0.158 HD
ATOM     54  H   UNL     1      31.313  47.064  47.921  1.00  0.00     0.158 HD
ENDBRANCH  49  52
BRANCH  50  55
ATOM     55  C   UNL     1      30.564  50.431  44.106  1.00  0.00     0.413 C 
BRANCH  55  56
ATOM     56  N   UNL     1      31.678  51.369  44.142  1.00  0.00    -0.196 N 
ATOM     57  C   UNL     1      31.533  52.656  44.138  1.00  0.00     0.337 C 
ATOM     58  C   UNL     1      33.075  51.030  44.180  1.00  0.00     0.319 C 
ATOM     59  C   UNL     1      32.863  53.220  44.161  1.00  0.00     0.140 C 
ATOM     60  C   UNL     1      33.764  52.160  44.182  1.00  0.00     0.072 C 
ATOM     61  N   UNL     1      33.394  54.382  44.160  1.00  0.00    -0.250 NA
ATOM     62  C   UNL     1      35.077  52.758  44.201  1.00  0.00     0.037 C 
ATOM     63  C   UNL     1      34.804  54.132  44.186  1.00  0.00     0.113 C 
ENDBRANCH  55  56
ENDBRANCH  50  55
ENDBRANCH  41  46
ENDBRANCH  36  37
ENDBRANCH  35  36
ENDBRANCH   3  35
TORSDOF 11
ENDMDL
MODEL 6
REMARK VINA RESULT:    -9.296     19.234     24.518
REMARK INTER + INTRA:         -17.699
REMARK INTER:                 -14.145
REMARK INTRA:                  -3.554
REMARK UNBOUND:                -0.251
REMARK SMILES Cc1cc(=O)c2c(O)c3c(cc2o1)OC(C)(C)[C@@H]1OC(=O)[C@]2(C[C@@H](CO)C[C@H]31)O[C@@H]2CCc1cc(N)nc(-c2cc(N)nc(C[N+]3=CC4=NC=CC4=C3)c2)c1
REMARK SMILES IDX 22 1 29 2 30 3 20 4 21 5 19 6 18 7 2 8 3 9 13 10 4 11 12 12
REMARK SMILES IDX 5 13 6 14 11 15 7 16 10 17 9 18 14 19 28 20 15 21 1 22 16 23
REMARK SMILES IDX 17 24 8 25 27 27 23 29 24 30 25 32 26 33 31 35 32 36 33 37
REMARK SMILES IDX 34 38 55 39 35 40 38 41 37 42 36 43 39 46 40 47 54 48 41 49
REMARK SMILES IDX 44 50 43 51 42 52 45 55 46 56 47 57 53 58 48 59 52 60 49 61
REMARK SMILES IDX 51 62 50 63
REMARK H PARENT 8 26 26 34 36 44 36 45 42 53 42 54
REMARK Flexibility Score:  376.900
ROOT
ATOM      1  C   UNL     1      13.869  71.801  25.012  1.00  0.00     0.192 C 
ATOM      2  O   UNL     1      14.058  72.710  23.950  1.00  0.00    -0.354 OA
ATOM      3  C   UNL     1      15.173  71.922  24.302  1.00  0.00     0.163 C 
ENDROOT
BRANCH   1   4
ATOM      4  C   UNL     1      12.903  70.696  24.705  1.00  0.00     0.341 C 
ATOM      5  O   UNL     1      12.445  70.605  23.578  1.00  0.00    -0.249 OA
BRANCH   4   6
ATOM      6  O   UNL     1      12.809  69.635  25.548  1.00  0.00    -0.455 OA
BRANCH   6   7
ATOM      7  C   UNL     1      11.679  69.251  26.250  1.00  0.00     0.227 C 
ATOM      8  C   UNL     1      15.066  66.193  32.186  1.00  0.00     0.105 A 
ATOM      9  C   UNL     1      14.542  67.270  32.896  1.00  0.00     0.095 A 
ATOM     10  O   UNL     1      14.823  66.075  30.885  1.00  0.00    -0.461 OA
ATOM     11  C   UNL     1      13.766  68.217  32.232  1.00  0.00     0.196 A 
ATOM     12  C   UNL     1      14.089  66.948  30.199  1.00  0.00     0.145 A 
ATOM     13  O   UNL     1      13.328  69.143  32.886  1.00  0.00    -0.289 OA
ATOM     14  C   UNL     1      13.514  68.079  30.837  1.00  0.00     0.107 A 
ATOM     15  C   UNL     1      13.860  66.705  28.847  1.00  0.00     0.094 A 
ATOM     16  C   UNL     1      12.726  68.980  30.053  1.00  0.00     0.137 A 
ATOM     17  C   UNL     1      13.077  67.570  28.087  1.00  0.00     0.131 A 
ATOM     18  C   UNL     1      12.549  68.748  28.658  1.00  0.00     0.044 A 
ATOM     19  O   UNL     1      12.773  67.223  26.810  1.00  0.00    -0.483 OA
ATOM     20  C   UNL     1      11.717  69.696  27.770  1.00  0.00     0.072 C 
ATOM     21  C   UNL     1      11.646  67.704  26.152  1.00  0.00     0.141 C 
ATOM     22  C   UNL     1      15.899  65.157  32.872  1.00  0.00     0.088 C 
ATOM     23  C   UNL     1      10.369  67.104  26.785  1.00  0.00     0.060 C 
ATOM     24  C   UNL     1      11.705  67.233  24.684  1.00  0.00     0.060 C 
BRANCH  16  25
ATOM     25  O   UNL     1      12.101  70.050  30.591  1.00  0.00    -0.507 OA
ATOM     26  H   UNL     1      11.452  70.074  31.298  1.00  0.00     0.293 HD
ENDBRANCH  16  25
BRANCH  20  27
ATOM     27  C   UNL     1      12.087  71.211  27.932  1.00  0.00     0.018 CG0
ATOM     28  G   UNL     1      13.558  71.596  27.570  1.00  0.00     0.000 G0
ENDBRANCH  20  27
ENDBRANCH   6   7
ENDBRANCH   4   6
ENDBRANCH   1   4
BRANCH   1  29
ATOM     29  C   UNL     1      13.674  72.554  26.342  1.00  0.00     0.056 C 
BRANCH  29  30
ATOM     30  C   UNL     1      13.590  71.616  27.579  1.00  0.00     0.019 CG0
ATOM     31  G   UNL     1      12.113  71.236  27.921  1.00  0.00     0.000 G0
BRANCH  30  32
ATOM     32  C   UNL     1      14.288  72.271  28.789  1.00  0.00     0.159 C 
BRANCH  32  33
ATOM     33  O   UNL     1      14.956  71.314  29.567  1.00  0.00    -0.396 OA
ATOM     34  H   UNL     1      14.555  70.434  29.341  1.00  0.00     0.210 HD
ENDBRANCH  32  33
ENDBRANCH  30  32
ENDBRANCH  29  30
ENDBRANCH   1  29
BRANCH   3  35
ATOM     35  C   UNL     1      15.587  71.115  23.063  1.00  0.00     0.040 C 
BRANCH  35  36
ATOM     36  C   UNL     1      16.543  69.987  23.513  1.00  0.00     0.038 C 
BRANCH  36  37
ATOM     37  C   UNL     1      15.852  68.643  23.434  1.00  0.00    -0.042 A 
ATOM     38  C   UNL     1      14.960  68.334  22.397  1.00  0.00     0.050 A 
ATOM     39  C   UNL     1      16.130  67.676  24.406  1.00  0.00     0.033 A 
ATOM     40  C   UNL     1      14.397  67.052  22.334  1.00  0.00     0.124 A 
ATOM     41  C   UNL     1      15.535  66.402  24.333  1.00  0.00     0.073 A 
ATOM     42  N   UNL     1      14.703  66.131  23.289  1.00  0.00    -0.231 NA
BRANCH  40  43
ATOM     43  N   UNL     1      13.521  66.702  21.281  1.00  0.00    -0.384 N 
ATOM     44  H   UNL     1      13.775  65.970  20.602  1.00  0.00     0.158 HD
ATOM     45  H   UNL     1      12.609  67.174  21.187  1.00  0.00     0.158 HD
ENDBRANCH  40  43
BRANCH  41  46
ATOM     46  C   UNL     1      15.793  65.346  25.357  1.00  0.00     0.006 A 
ATOM     47  C   UNL     1      17.028  65.303  26.030  1.00  0.00     0.057 A 
ATOM     48  C   UNL     1      14.830  64.367  25.673  1.00  0.00     0.041 A 
ATOM     49  C   UNL     1      17.260  64.323  27.005  1.00  0.00     0.124 A 
ATOM     50  C   UNL     1      15.108  63.382  26.628  1.00  0.00     0.108 A 
ATOM     51  N   UNL     1      16.303  63.399  27.277  1.00  0.00    -0.230 NA
BRANCH  49  52
ATOM     52  N   UNL     1      18.486  64.287  27.710  1.00  0.00    -0.384 N 
ATOM     53  H   UNL     1      18.881  63.394  28.039  1.00  0.00     0.158 HD
ATOM     54  H   UNL     1      19.003  65.159  27.892  1.00  0.00     0.158 HD
ENDBRANCH  49  52
BRANCH  50  55
ATOM     55  C   UNL     1      14.111  62.298  26.947  1.00  0.00     0.413 C 
BRANCH  55  56
ATOM     56  N   UNL     1      13.171  62.729  27.975  1.00  0.00    -0.196 N 
ATOM     57  C   UNL     1      13.514  62.995  29.195  1.00  0.00     0.337 C 
ATOM     58  C   UNL     1      11.756  62.919  27.807  1.00  0.00     0.319 C 
ATOM     59  C   UNL     1      12.303  63.364  29.891  1.00  0.00     0.140 C 
ATOM     60  C   UNL     1      11.258  63.291  28.975  1.00  0.00     0.072 C 
ATOM     61  N   UNL     1      11.965  63.714  31.072  1.00  0.00    -0.250 NA
ATOM     62  C   UNL     1      10.068  63.661  29.703  1.00  0.00     0.037 C 
ATOM     63  C   UNL     1      10.548  63.914  30.995  1.00  0.00     0.113 C 
ENDBRANCH  55  56
ENDBRANCH  50  55
ENDBRANCH  41  46
ENDBRANCH  36  37
ENDBRANCH  35  36
ENDBRANCH   3  35
TORSDOF 11
ENDMDL
MODEL 7
REMARK VINA RESULT:    -9.233      5.378     13.212
REMARK INTER + INTRA:         -17.581
REMARK INTER:                 -17.850
REMARK INTRA:                   0.269
REMARK UNBOUND:                -0.251
REMARK SMILES Cc1cc(=O)c2c(O)c3c(cc2o1)OC(C)(C)[C@@H]1OC(=O)[C@]2(C[C@@H](CO)C[C@H]31)O[C@@H]2CCc1cc(N)nc(-c2cc(N)nc(C[N+]3=CC4=NC=CC4=C3)c2)c1
REMARK SMILES IDX 22 1 29 2 30 3 20 4 21 5 19 6 18 7 2 8 3 9 13 10 4 11 12 12
REMARK SMILES IDX 5 13 6 14 11 15 7 16 10 17 9 18 14 19 28 20 15 21 1 22 16 23
REMARK SMILES IDX 17 24 8 25 27 27 23 29 24 30 25 32 26 33 31 35 32 36 33 37
REMARK SMILES IDX 34 38 55 39 35 40 38 41 37 42 36 43 39 46 40 47 54 48 41 49
REMARK SMILES IDX 44 50 43 51 42 52 45 55 46 56 47 57 53 58 48 59 52 60 49 61
REMARK SMILES IDX 51 62 50 63
REMARK H PARENT 8 26 26 34 36 44 36 45 42 53 42 54
REMARK Flexibility Score:  376.900
ROOT
ATOM      1  C   UNL     1      27.054  58.655  46.212  1.00  0.00     0.192 C 
ATOM      2  O   UNL     1      28.297  58.149  45.774  1.00  0.00    -0.354 OA
ATOM      3  C   UNL     1      27.923  57.829  47.096  1.00  0.00     0.163 C 
ENDROOT
BRANCH   1   4
ATOM      4  C   UNL     1      25.872  58.069  45.498  1.00  0.00     0.341 C 
ATOM      5  O   UNL     1      24.793  58.035  46.067  1.00  0.00    -0.249 OA
BRANCH   4   6
ATOM      6  O   UNL     1      25.920  57.900  44.152  1.00  0.00    -0.455 OA
BRANCH   6   7
ATOM      7  C   UNL     1      26.973  58.252  43.323  1.00  0.00     0.227 C 
ATOM      8  C   UNL     1      22.991  60.903  37.563  1.00  0.00     0.105 A 
ATOM      9  C   UNL     1      23.505  62.144  37.927  1.00  0.00     0.095 A 
ATOM     10  O   UNL     1      23.331  59.817  38.249  1.00  0.00    -0.461 OA
ATOM     11  C   UNL     1      24.372  62.236  39.012  1.00  0.00     0.196 A 
ATOM     12  C   UNL     1      24.155  59.844  39.294  1.00  0.00     0.145 A 
ATOM     13  O   UNL     1      24.799  63.337  39.301  1.00  0.00    -0.289 OA
ATOM     14  C   UNL     1      24.728  61.064  39.740  1.00  0.00     0.107 A 
ATOM     15  C   UNL     1      24.480  58.640  39.914  1.00  0.00     0.094 A 
ATOM     16  C   UNL     1      25.615  61.033  40.862  1.00  0.00     0.137 A 
ATOM     17  C   UNL     1      25.359  58.606  40.994  1.00  0.00     0.131 A 
ATOM     18  C   UNL     1      25.893  59.801  41.523  1.00  0.00     0.044 A 
ATOM     19  O   UNL     1      25.747  57.399  41.480  1.00  0.00    -0.483 OA
ATOM     20  C   UNL     1      26.834  59.719  42.742  1.00  0.00     0.072 C 
ATOM     21  C   UNL     1      26.944  57.220  42.167  1.00  0.00     0.141 C 
ATOM     22  C   UNL     1      22.060  60.772  36.399  1.00  0.00     0.088 C 
ATOM     23  C   UNL     1      28.138  57.390  41.200  1.00  0.00     0.060 C 
ATOM     24  C   UNL     1      26.980  55.774  42.705  1.00  0.00     0.060 C 
BRANCH  16  25
ATOM     25  O   UNL     1      26.244  62.140  41.318  1.00  0.00    -0.507 OA
ATOM     26  H   UNL     1      27.121  62.464  41.104  1.00  0.00     0.293 HD
ENDBRANCH  16  25
BRANCH  20  27
ATOM     27  C   UNL     1      26.520  60.771  43.862  1.00  0.00     0.018 CG0
ATOM     28  G   UNL     1      27.575  60.879  45.010  1.00  0.00     0.000 G0
ENDBRANCH  20  27
ENDBRANCH   6   7
ENDBRANCH   4   6
ENDBRANCH   1   4
BRANCH   1  29
ATOM     29  C   UNL     1      27.108  60.189  46.339  1.00  0.00     0.056 C 
BRANCH  29  30
ATOM     30  C   UNL     1      27.567  60.903  45.035  1.00  0.00     0.019 CG0
ATOM     31  G   UNL     1      26.528  60.729  43.881  1.00  0.00     0.000 G0
BRANCH  30  32
ATOM     32  C   UNL     1      28.958  60.388  44.611  1.00  0.00     0.159 C 
BRANCH  32  33
ATOM     33  O   UNL     1      29.918  60.651  45.600  1.00  0.00    -0.396 OA
ATOM     34  H   UNL     1      30.643  59.984  45.477  1.00  0.00     0.210 HD
ENDBRANCH  32  33
ENDBRANCH  30  32
ENDBRANCH  29  30
ENDBRANCH   1  29
BRANCH   3  35
ATOM     35  C   UNL     1      27.873  56.299  47.211  1.00  0.00     0.040 C 
BRANCH  35  36
ATOM     36  C   UNL     1      28.397  55.899  48.609  1.00  0.00     0.038 C 
BRANCH  36  37
ATOM     37  C   UNL     1      28.235  54.411  48.830  1.00  0.00    -0.042 A 
ATOM     38  C   UNL     1      27.347  53.901  49.788  1.00  0.00     0.050 A 
ATOM     39  C   UNL     1      28.971  53.521  48.040  1.00  0.00     0.033 A 
ATOM     40  C   UNL     1      27.187  52.514  49.908  1.00  0.00     0.124 A 
ATOM     41  C   UNL     1      28.807  52.131  48.193  1.00  0.00     0.073 A 
ATOM     42  N   UNL     1      27.907  51.678  49.111  1.00  0.00    -0.231 NA
BRANCH  40  43
ATOM     43  N   UNL     1      26.273  51.973  50.843  1.00  0.00    -0.384 N 
ATOM     44  H   UNL     1      26.428  52.079  51.856  1.00  0.00     0.158 HD
ATOM     45  H   UNL     1      25.434  51.472  50.516  1.00  0.00     0.158 HD
ENDBRANCH  40  43
BRANCH  41  46
ATOM     46  C   UNL     1      29.584  51.146  47.381  1.00  0.00     0.006 A 
ATOM     47  C   UNL     1      29.673  51.299  45.986  1.00  0.00     0.057 A 
ATOM     48  C   UNL     1      30.232  50.044  47.973  1.00  0.00     0.041 A 
ATOM     49  C   UNL     1      30.419  50.385  45.229  1.00  0.00     0.124 A 
ATOM     50  C   UNL     1      30.941  49.131  47.182  1.00  0.00     0.108 A 
ATOM     51  N   UNL     1      31.029  49.336  45.841  1.00  0.00    -0.230 NA
BRANCH  49  52
ATOM     52  N   UNL     1      30.543  50.543  43.829  1.00  0.00    -0.384 N 
ATOM     53  H   UNL     1      29.983  49.970  43.180  1.00  0.00     0.158 HD
ATOM     54  H   UNL     1      31.190  51.246  43.443  1.00  0.00     0.158 HD
ENDBRANCH  49  52
BRANCH  50  55
ATOM     55  C   UNL     1      31.603  47.920  47.787  1.00  0.00     0.413 C 
BRANCH  55  56
ATOM     56  N   UNL     1      30.632  47.069  48.463  1.00  0.00    -0.196 N 
ATOM     57  C   UNL     1      30.152  45.980  47.951  1.00  0.00     0.337 C 
ATOM     58  C   UNL     1      30.063  47.294  49.764  1.00  0.00     0.319 C 
ATOM     59  C   UNL     1      29.219  45.448  48.916  1.00  0.00     0.140 C 
ATOM     60  C   UNL     1      29.212  46.311  50.007  1.00  0.00     0.072 C 
ATOM     61  N   UNL     1      28.435  44.443  49.014  1.00  0.00    -0.250 NA
ATOM     62  C   UNL     1      28.269  45.751  50.947  1.00  0.00     0.037 C 
ATOM     63  C   UNL     1      27.812  44.599  50.295  1.00  0.00     0.113 C 
ENDBRANCH  55  56
ENDBRANCH  50  55
ENDBRANCH  41  46
ENDBRANCH  36  37
ENDBRANCH  35  36
ENDBRANCH   3  35
TORSDOF 11
ENDMDL
MODEL 8
REMARK VINA RESULT:    -9.170      3.754      5.859
REMARK INTER + INTRA:         -17.461
REMARK INTER:                 -16.720
REMARK INTRA:                  -0.742
REMARK UNBOUND:                -0.251
REMARK SMILES Cc1cc(=O)c2c(O)c3c(cc2o1)OC(C)(C)[C@@H]1OC(=O)[C@]2(C[C@@H](CO)C[C@H]31)O[C@@H]2CCc1cc(N)nc(-c2cc(N)nc(C[N+]3=CC4=NC=CC4=C3)c2)c1
REMARK SMILES IDX 22 1 29 2 30 3 20 4 21 5 19 6 18 7 2 8 3 9 13 10 4 11 12 12
REMARK SMILES IDX 5 13 6 14 11 15 7 16 10 17 9 18 14 19 28 20 15 21 1 22 16 23
REMARK SMILES IDX 17 24 8 25 27 27 23 29 24 30 25 32 26 33 31 35 32 36 33 37
REMARK SMILES IDX 34 38 55 39 35 40 38 41 37 42 36 43 39 46 40 47 54 48 41 49
REMARK SMILES IDX 44 50 43 51 42 52 45 55 46 56 47 57 53 58 48 59 52 60 49 61
REMARK SMILES IDX 51 62 50 63
REMARK H PARENT 8 26 26 34 36 44 36 45 42 53 42 54
REMARK Flexibility Score:  376.900
ROOT
ATOM      1  C   UNL     1      28.117  58.821  45.865  1.00  0.00     0.192 C 
ATOM      2  O   UNL     1      26.883  58.782  45.181  1.00  0.00    -0.354 OA
ATOM      3  C   UNL     1      27.449  60.058  45.373  1.00  0.00     0.163 C 
ENDROOT
BRANCH   1   4
ATOM      4  C   UNL     1      29.250  58.186  45.116  1.00  0.00     0.341 C 
ATOM      5  O   UNL     1      29.028  57.656  44.039  1.00  0.00    -0.249 OA
BRANCH   4   6
ATOM      6  O   UNL     1      30.530  58.491  45.454  1.00  0.00    -0.455 OA
BRANCH   6   7
ATOM      7  C   UNL     1      31.486  57.599  45.912  1.00  0.00     0.227 C 
ATOM      8  C   UNL     1      34.868  62.072  50.873  1.00  0.00     0.105 A 
ATOM      9  C   UNL     1      34.324  61.224  51.835  1.00  0.00     0.095 A 
ATOM     10  O   UNL     1      34.648  61.839  49.584  1.00  0.00    -0.461 OA
ATOM     11  C   UNL     1      33.551  60.138  51.435  1.00  0.00     0.196 A 
ATOM     12  C   UNL     1      33.917  60.817  49.143  1.00  0.00     0.145 A 
ATOM     13  O   UNL     1      33.093  59.422  52.304  1.00  0.00    -0.289 OA
ATOM     14  C   UNL     1      33.322  59.900  50.049  1.00  0.00     0.107 A 
ATOM     15  C   UNL     1      33.787  60.640  47.767  1.00  0.00     0.094 A 
ATOM     16  C   UNL     1      32.555  58.814  49.519  1.00  0.00     0.137 A 
ATOM     17  C   UNL     1      33.058  59.572  47.250  1.00  0.00     0.131 A 
ATOM     18  C   UNL     1      32.383  58.679  48.111  1.00  0.00     0.044 A 
ATOM     19  O   UNL     1      33.069  59.365  45.908  1.00  0.00    -0.483 OA
ATOM     20  C   UNL     1      31.558  57.532  47.493  1.00  0.00     0.072 C 
ATOM     21  C   UNL     1      32.831  58.116  45.342  1.00  0.00     0.141 C 
ATOM     22  C   UNL     1      35.706  63.244  51.273  1.00  0.00     0.088 C 
ATOM     23  C   UNL     1      34.006  57.162  45.657  1.00  0.00     0.060 C 
ATOM     24  C   UNL     1      32.763  58.286  43.809  1.00  0.00     0.060 C 
BRANCH  16  25
ATOM     25  O   UNL     1      32.000  57.868  50.308  1.00  0.00    -0.507 OA
ATOM     26  H   UNL     1      31.335  57.213  50.084  1.00  0.00     0.293 HD
ENDBRANCH  16  25
BRANCH  20  27
ATOM     27  C   UNL     1      30.143  57.343  48.141  1.00  0.00     0.018 CG0
ATOM     28  G   UNL     1      29.246  58.621  48.205  1.00  0.00     0.000 G0
ENDBRANCH  20  27
ENDBRANCH   6   7
ENDBRANCH   4   6
ENDBRANCH   1   4
BRANCH   1  29
ATOM     29  C   UNL     1      27.932  58.412  47.338  1.00  0.00     0.056 C 
BRANCH  29  30
ATOM     30  C   UNL     1      29.210  58.610  48.202  1.00  0.00     0.019 CG0
ATOM     31  G   UNL     1      30.132  57.349  48.173  1.00  0.00     0.000 G0
BRANCH  30  32
ATOM     32  C   UNL     1      28.820  58.980  49.648  1.00  0.00     0.159 C 
BRANCH  32  33
ATOM     33  O   UNL     1      27.430  59.111  49.779  1.00  0.00    -0.396 OA
ATOM     34  H   UNL     1      27.026  58.326  49.325  1.00  0.00     0.210 HD
ENDBRANCH  32  33
ENDBRANCH  30  32
ENDBRANCH  29  30
ENDBRANCH   1  29
BRANCH   3  35
ATOM     35  C   UNL     1      27.661  60.692  43.991  1.00  0.00     0.040 C 
BRANCH  35  36
ATOM     36  C   UNL     1      26.276  61.018  43.387  1.00  0.00     0.038 C 
BRANCH  36  37
ATOM     37  C   UNL     1      26.105  60.330  42.051  1.00  0.00    -0.042 A 
ATOM     38  C   UNL     1      27.019  59.369  41.595  1.00  0.00     0.050 A 
ATOM     39  C   UNL     1      24.991  60.641  41.262  1.00  0.00     0.033 A 
ATOM     40  C   UNL     1      26.779  58.715  40.379  1.00  0.00     0.124 A 
ATOM     41  C   UNL     1      24.783  59.984  40.034  1.00  0.00     0.073 A 
ATOM     42  N   UNL     1      25.677  59.032  39.646  1.00  0.00    -0.231 NA
BRANCH  40  43
ATOM     43  N   UNL     1      27.667  57.718  39.912  1.00  0.00    -0.384 N 
ATOM     44  H   UNL     1      27.793  56.836  40.429  1.00  0.00     0.158 HD
ATOM     45  H   UNL     1      28.193  57.862  39.037  1.00  0.00     0.158 HD
ENDBRANCH  40  43
BRANCH  41  46
ATOM     46  C   UNL     1      23.617  60.296  39.155  1.00  0.00     0.006 A 
ATOM     47  C   UNL     1      22.324  60.379  39.702  1.00  0.00     0.057 A 
ATOM     48  C   UNL     1      23.767  60.505  37.769  1.00  0.00     0.041 A 
ATOM     49  C   UNL     1      21.234  60.692  38.879  1.00  0.00     0.124 A 
ATOM     50  C   UNL     1      22.651  60.783  36.970  1.00  0.00     0.108 A 
ATOM     51  N   UNL     1      21.424  60.886  37.548  1.00  0.00    -0.230 NA
BRANCH  49  52
ATOM     52  N   UNL     1      19.933  60.809  39.421  1.00  0.00    -0.384 N 
ATOM     53  H   UNL     1      19.793  60.990  40.426  1.00  0.00     0.158 HD
ATOM     54  H   UNL     1      19.108  60.722  38.810  1.00  0.00     0.158 HD
ENDBRANCH  49  52
BRANCH  50  55
ATOM     55  C   UNL     1      22.782  60.963  35.480  1.00  0.00     0.413 C 
BRANCH  55  56
ATOM     56  N   UNL     1      21.682  61.756  34.944  1.00  0.00    -0.196 N 
ATOM     57  C   UNL     1      21.620  63.047  35.030  1.00  0.00     0.337 C 
ATOM     58  C   UNL     1      20.523  61.251  34.261  1.00  0.00     0.319 C 
ATOM     59  C   UNL     1      20.381  63.442  34.402  1.00  0.00     0.140 C 
ATOM     60  C   UNL     1      19.754  62.283  33.954  1.00  0.00     0.072 C 
ATOM     61  N   UNL     1      19.745  64.525  34.172  1.00  0.00    -0.250 NA
ATOM     62  C   UNL     1      18.522  62.714  33.338  1.00  0.00     0.037 C 
ATOM     63  C   UNL     1      18.555  64.105  33.494  1.00  0.00     0.113 C 
ENDBRANCH  55  56
ENDBRANCH  50  55
ENDBRANCH  41  46
ENDBRANCH  36  37
ENDBRANCH  35  36
ENDBRANCH   3  35
TORSDOF 11
ENDMDL
MODEL 9
REMARK VINA RESULT:    -8.950      5.270      9.174
REMARK INTER + INTRA:         -17.048
REMARK INTER:                 -12.784
REMARK INTRA:                  -4.264
REMARK UNBOUND:                -0.251
REMARK SMILES Cc1cc(=O)c2c(O)c3c(cc2o1)OC(C)(C)[C@@H]1OC(=O)[C@]2(C[C@@H](CO)C[C@H]31)O[C@@H]2CCc1cc(N)nc(-c2cc(N)nc(C[N+]3=CC4=NC=CC4=C3)c2)c1
REMARK SMILES IDX 22 1 29 2 30 3 20 4 21 5 19 6 18 7 2 8 3 9 13 10 4 11 12 12
REMARK SMILES IDX 5 13 6 14 11 15 7 16 10 17 9 18 14 19 28 20 15 21 1 22 16 23
REMARK SMILES IDX 17 24 8 25 27 27 23 29 24 30 25 32 26 33 31 35 32 36 33 37
REMARK SMILES IDX 34 38 55 39 35 40 38 41 37 42 36 43 39 46 40 47 54 48 41 49
REMARK SMILES IDX 44 50 43 51 42 52 45 55 46 56 47 57 53 58 48 59 52 60 49 61
REMARK SMILES IDX 51 62 50 63
REMARK H PARENT 8 26 26 34 36 44 36 45 42 53 42 54
REMARK Flexibility Score:  376.900
ROOT
ATOM      1  C   UNL     1      26.324  57.590  45.960  1.00  0.00     0.192 C 
ATOM      2  O   UNL     1      25.007  58.035  45.714  1.00  0.00    -0.354 OA
ATOM      3  C   UNL     1      26.038  58.963  45.460  1.00  0.00     0.163 C 
ENDROOT
BRANCH   1   4
ATOM      4  C   UNL     1      26.779  56.495  45.042  1.00  0.00     0.341 C 
ATOM      5  O   UNL     1      26.149  56.277  44.019  1.00  0.00    -0.249 OA
BRANCH   4   6
ATOM      6  O   UNL     1      28.036  55.997  45.166  1.00  0.00    -0.455 OA
BRANCH   6   7
ATOM      7  C   UNL     1      28.367  54.707  45.546  1.00  0.00     0.227 C 
ATOM      8  C   UNL     1      35.351  56.020  47.903  1.00  0.00     0.105 A 
ATOM      9  C   UNL     1      34.853  55.741  49.172  1.00  0.00     0.095 A 
ATOM     10  O   UNL     1      34.547  55.962  46.847  1.00  0.00    -0.461 OA
ATOM     11  C   UNL     1      33.510  55.405  49.324  1.00  0.00     0.196 A 
ATOM     12  C   UNL     1      33.257  55.647  46.932  1.00  0.00     0.145 A 
ATOM     13  O   UNL     1      33.112  55.171  50.448  1.00  0.00    -0.289 OA
ATOM     14  C   UNL     1      32.658  55.348  48.184  1.00  0.00     0.107 A 
ATOM     15  C   UNL     1      32.514  55.572  45.755  1.00  0.00     0.094 A 
ATOM     16  C   UNL     1      31.269  55.006  48.214  1.00  0.00     0.137 A 
ATOM     17  C   UNL     1      31.167  55.219  45.782  1.00  0.00     0.131 A 
ATOM     18  C   UNL     1      30.509  54.989  47.009  1.00  0.00     0.044 A 
ATOM     19  O   UNL     1      30.519  55.031  44.603  1.00  0.00    -0.483 OA
ATOM     20  C   UNL     1      29.007  54.637  46.993  1.00  0.00     0.072 C 
ATOM     21  C   UNL     1      29.393  54.222  44.489  1.00  0.00     0.141 C 
ATOM     22  C   UNL     1      36.790  56.379  47.708  1.00  0.00     0.088 C 
ATOM     23  C   UNL     1      29.785  52.740  44.691  1.00  0.00     0.060 C 
ATOM     24  C   UNL     1      28.835  54.368  43.058  1.00  0.00     0.060 C 
BRANCH  16  25
ATOM     25  O   UNL     1      30.635  54.657  49.356  1.00  0.00    -0.507 OA
ATOM     26  H   UNL     1      30.943  54.087  50.064  1.00  0.00     0.293 HD
ENDBRANCH  16  25
BRANCH  20  27
ATOM     27  C   UNL     1      28.156  55.418  48.053  1.00  0.00     0.018 CG0
ATOM     28  G   UNL     1      28.001  56.953  47.805  1.00  0.00     0.000 G0
ENDBRANCH  20  27
ENDBRANCH   6   7
ENDBRANCH   4   6
ENDBRANCH   1   4
BRANCH   1  29
ATOM     29  C   UNL     1      26.552  57.381  47.469  1.00  0.00     0.056 C 
BRANCH  29  30
ATOM     30  C   UNL     1      28.009  56.970  47.824  1.00  0.00     0.019 CG0
ATOM     31  G   UNL     1      28.137  55.432  48.066  1.00  0.00     0.000 G0
BRANCH  30  32
ATOM     32  C   UNL     1      28.500  57.767  49.051  1.00  0.00     0.159 C 
BRANCH  32  33
ATOM     33  O   UNL     1      27.463  58.534  49.604  1.00  0.00    -0.396 OA
ATOM     34  H   UNL     1      27.717  59.486  49.479  1.00  0.00     0.210 HD
ENDBRANCH  32  33
ENDBRANCH  30  32
ENDBRANCH  29  30
ENDBRANCH   1  29
BRANCH   3  35
ATOM     35  C   UNL     1      25.949  59.369  43.981  1.00  0.00     0.040 C 
BRANCH  35  36
ATOM     36  C   UNL     1      27.132  60.310  43.662  1.00  0.00     0.038 C 
BRANCH  36  37
ATOM     37  C   UNL     1      28.398  59.513  43.435  1.00  0.00    -0.042 A 
ATOM     38  C   UNL     1      28.491  58.556  42.414  1.00  0.00     0.050 A 
ATOM     39  C   UNL     1      29.511  59.756  44.247  1.00  0.00     0.033 A 
ATOM     40  C   UNL     1      29.707  57.892  42.204  1.00  0.00     0.124 A 
ATOM     41  C   UNL     1      30.716  59.060  44.030  1.00  0.00     0.073 A 
ATOM     42  N   UNL     1      30.774  58.165  43.004  1.00  0.00    -0.231 NA
BRANCH  40  43
ATOM     43  N   UNL     1      29.840  56.946  41.161  1.00  0.00    -0.384 N 
ATOM     44  H   UNL     1      29.241  56.994  40.324  1.00  0.00     0.158 HD
ATOM     45  H   UNL     1      30.548  56.200  41.225  1.00  0.00     0.158 HD
ENDBRANCH  40  43
BRANCH  41  46
ATOM     46  C   UNL     1      31.923  59.277  44.883  1.00  0.00     0.006 A 
ATOM     47  C   UNL     1      33.148  58.683  44.534  1.00  0.00     0.057 A 
ATOM     48  C   UNL     1      31.873  60.063  46.052  1.00  0.00     0.041 A 
ATOM     49  C   UNL     1      34.284  58.905  45.325  1.00  0.00     0.124 A 
ATOM     50  C   UNL     1      33.019  60.236  46.838  1.00  0.00     0.108 A 
ATOM     51  N   UNL     1      34.191  59.670  46.444  1.00  0.00    -0.230 NA
BRANCH  49  52
ATOM     52  N   UNL     1      35.530  58.338  44.970  1.00  0.00    -0.384 N 
ATOM     53  H   UNL     1      36.307  58.300  45.646  1.00  0.00     0.158 HD
ATOM     54  H   UNL     1      35.669  57.945  44.028  1.00  0.00     0.158 HD
ENDBRANCH  49  52
BRANCH  50  55
ATOM     55  C   UNL     1      32.978  61.033  48.116  1.00  0.00     0.413 C 
BRANCH  55  56
ATOM     56  N   UNL     1      32.255  60.319  49.161  1.00  0.00    -0.196 N 
ATOM     57  C   UNL     1      31.195  60.782  49.745  1.00  0.00     0.337 C 
ATOM     58  C   UNL     1      32.591  59.030  49.701  1.00  0.00     0.319 C 
ATOM     59  C   UNL     1      30.798  59.794  50.721  1.00  0.00     0.140 C 
ATOM     60  C   UNL     1      31.707  58.743  50.641  1.00  0.00     0.072 C 
ATOM     61  N   UNL     1      29.880  59.651  51.597  1.00  0.00    -0.250 NA
ATOM     62  C   UNL     1      31.283  57.779  51.629  1.00  0.00     0.037 C 
ATOM     63  C   UNL     1      30.152  58.379  52.198  1.00  0.00     0.113 C 
ENDBRANCH  55  56
ENDBRANCH  50  55
ENDBRANCH  41  46
ENDBRANCH  36  37
ENDBRANCH  35  36
ENDBRANCH   3  35
TORSDOF 11
ENDMDL
