REMARK  Name = 
REMARK  11 active torsions:
REMARK  status: ('A' for Active; 'I' for Inactive)
REMARK    1  A    between atoms: C_1  and  C_2
REMARK    2  A    between atoms: C_12  and  O_13
REMARK    3  A    between atoms: O_13  and  C_14
REMARK    4  A    between atoms: C_16  and  C_17
REMARK    5  A    between atoms: C_17  and  O_18
REMARK    6  A    between atoms: C_19  and  O_20
REMARK    7  A    between atoms: C_21  and  O_22
REMARK    8  A    between atoms: C_23  and  O_24
REMARK    9  A    between atoms: C_27  and  C_28
REMARK   10  A    between atoms: C_36  and  C_37
REMARK   11  A    between atoms: C_41  and  C_42
REMARK                            x       y       z     vdW  Elec       q    Type
REMARK                         _______ _______ _______ _____ _____    ______ ____
ROOT
ATOM      1  C   UNL     1      26.439  56.442  42.764  0.00  0.00    +0.000 C 
ATOM      2  C   UNL     1      27.049  57.769  42.348  0.00  0.00    +0.000 C 
ATOM      3  C   UNL     1      26.330  58.722  41.691  0.00  0.00    +0.000 C 
ATOM      4  C   UNL     1      24.901  58.754  41.297  0.00  0.00    +0.000 C 
ATOM      5  O   UNL     1      24.062  57.925  41.606  0.00  0.00    +0.000 OA
ATOM      6  C   UNL     1      24.568  60.132  40.830  0.00  0.00    +0.000 C 
ATOM      7  C   UNL     1      25.928  60.649  40.362  0.00  0.00    +0.000 C 
ATOM      8  C   UNL     1      25.898  62.172  40.200  0.00  0.00    +0.000 C 
ATOM      9  C   UNL     1      24.553  62.675  39.681  0.00  0.00    +0.000 C 
ATOM     10  C   UNL     1      23.468  61.880  39.441  0.00  0.00    +0.000 C 
ATOM     11  C   UNL     1      22.118  62.569  39.261  0.00  0.00    +0.000 C 
ATOM     12  C   UNL     1      21.124  61.657  38.536  0.00  0.00    +0.000 C 
ATOM     13  C   UNL     1      20.961  60.280  39.238  0.00  0.00    +0.000 C 
ATOM     14  C   UNL     1      22.113  59.923  40.206  0.00  0.00    +0.000 C 
ATOM     15  C   UNL     1      23.509  60.359  39.701  0.00  0.00    +0.000 C 
ATOM     16  C   UNL     1      23.853  59.576  38.396  0.00  0.00    +0.000 C 
ATOM     17  C   UNL     1      26.943  60.038  41.335  0.00  0.00    +0.000 C 
ATOM     18  C   UNL     1      28.393  59.932  40.802  0.00  0.00    +0.000 C 
ATOM     19  C   UNL     1      29.093  58.611  41.224  0.00  0.00    +0.000 C 
ATOM     20  C   UNL     1      28.572  57.995  42.561  0.00  0.00    +0.000 C 
ATOM     21  O   UNL     1      29.169  56.701  42.690  0.00  0.00    +0.000 OA
ATOM     22  C   UNL     1      29.532  56.549  44.043  0.00  0.00    +0.000 C 
ATOM     23  C   UNL     1      30.545  55.423  44.250  0.00  0.00    +0.000 C 
ATOM     24  C   UNL     1      31.871  55.764  43.565  0.00  0.00    +0.000 C 
ATOM     25  C   UNL     1      32.894  54.648  43.785  0.00  0.00    +0.000 C 
ATOM     26  C   UNL     1      32.372  57.110  44.124  0.00  0.00    +0.000 C 
ATOM     27  N   UNL     1      31.394  58.173  43.844  0.00  0.00    +0.000 NA
ATOM     28  C   UNL     1      30.073  57.898  44.466  0.00  0.00    +0.000 C 
ATOM     29  C   UNL     1      28.954  58.765  43.889  0.00  0.00    +0.000 C 
ATOM     30  C   UNL     1      29.341  60.254  43.870  0.00  0.00    +0.000 C 
ATOM     31  H   UNL     1      31.329  58.259  42.814  0.00  0.00    +0.000 HD
ENDROOT
BRANCH  12  32
ATOM     32  O   UNL     1      21.614  61.451  37.218  0.00  0.00    +0.000 OA
BRANCH  32  33
ATOM     33  C   UNL     1      20.609  61.443  36.215  0.00  0.00    +0.000 C 
ATOM     34  O   UNL     1      19.966  62.724  36.187  0.00  0.00    +0.000 OA
ATOM     35  C   UNL     1      20.146  63.450  34.980  0.00  0.00    +0.000 C 
ATOM     36  C   UNL     1      19.642  62.622  33.759  0.00  0.00    +0.000 C 
ATOM     37  C   UNL     1      20.242  61.182  33.737  0.00  0.00    +0.000 C 
ATOM     38  C   UNL     1      21.263  60.989  34.882  0.00  0.00    +0.000 C 
BRANCH  36  39
ATOM     39  O   UNL     1      19.893  63.282  32.544  0.00  0.00    +0.000 OA
ATOM     40  H   UNL     1      19.463  62.749  31.825  0.00  0.00    +0.000 HD
ENDBRANCH  36  39
BRANCH  37  41
ATOM     41  O   UNL     1      19.229  60.203  33.788  0.00  0.00    +0.000 OA
ATOM     42  H   UNL     1      18.417  60.555  33.342  0.00  0.00    +0.000 HD
ENDBRANCH  37  41
BRANCH  38  43
ATOM     43  O   UNL     1      22.426  61.750  34.655  0.00  0.00    +0.000 OA
ATOM     44  H   UNL     1      22.160  62.705  34.612  0.00  0.00    +0.000 HD
ENDBRANCH  38  43
BRANCH  35  45
ATOM     45  C   UNL     1      19.401  64.789  35.102  0.00  0.00    +0.000 C 
BRANCH  45  46
ATOM     46  O   UNL     1      20.276  65.833  35.444  0.00  0.00    +0.000 OA
ATOM     47  H   UNL     1      20.761  66.080  34.614  0.00  0.00    +0.000 HD
ENDBRANCH  45  46
ENDBRANCH  35  45
ENDBRANCH  32  33
ENDBRANCH  12  32
TORSDOF 7
