REMARK  Name = 
REMARK  24 active torsions:
REMARK  status: ('A' for Active; 'I' for Inactive)
REMARK    1  A    between atoms: C_1  and  C_2
REMARK    2  A    between atoms: C_4  and  O_5
REMARK    3  A    between atoms: O_5  and  C_6
REMARK    4  A    between atoms: C_7  and  O_8
REMARK    5  A    between atoms: C_10  and  O_11
REMARK    6  A    between atoms: O_11  and  C_12
REMARK    7  A    between atoms: C_15  and  C_16
REMARK    8  A    between atoms: C_19  and  O_20
REMARK    9  A    between atoms: C_21  and  C_22
REMARK   10  A    between atoms: C_23  and  C_24
REMARK   11  A    between atoms: C_32  and  O_33
REMARK   12  A    between atoms: C_40  and  C_41
REMARK   13  A    between atoms: C_43  and  O_44
REMARK   14  A    between atoms: C_45  and  O_46
REMARK   15  A    between atoms: O_46  and  C_47
REMARK   16  A    between atoms: C_49  and  O_50
REMARK   17  A    between atoms: C_51  and  O_52
REMARK   18  A    between atoms: O_52  and  C_53
REMARK   19  A    between atoms: C_55  and  C_56
REMARK   20  A    between atoms: C_56  and  O_57
REMARK   21  A    between atoms: C_58  and  O_59
REMARK   22  A    between atoms: C_60  and  O_61
REMARK   23  A    between atoms: C_62  and  O_63
REMARK   24  A    between atoms: C_64  and  C_65
REMARK                            x       y       z     vdW  Elec       q    Type
REMARK                         _______ _______ _______ _____ _____    ______ ____
ROOT
ATOM      1  C   UNL     1      21.725  60.544  36.902  0.00  0.00    +0.000 C 
ATOM      2  C   UNL     1      23.084  59.965  36.482  0.00  0.00    +0.000 C 
ATOM      3  C   UNL     1      24.164  61.026  36.700  0.00  0.00    +0.000 C 
ATOM      4  C   UNL     1      24.156  61.486  38.168  0.00  0.00    +0.000 C 
ATOM      5  O   UNL     1      22.875  61.977  38.570  0.00  0.00    +0.000 OA
ATOM      6  C   UNL     1      21.800  61.056  38.363  0.00  0.00    +0.000 C 
ATOM      7  C   UNL     1      21.770  59.923  39.408  0.00  0.00    +0.000 C 
ENDROOT
BRANCH   2   8
ATOM      8  O   UNL     1      23.059  59.518  35.148  0.00  0.00    +0.000 OA
ATOM      9  H   UNL     1      23.126  58.529  35.152  0.00  0.00    +0.000 HD
ENDBRANCH   2   8
BRANCH   1  10
ATOM     10  O   UNL     1      21.387  61.634  36.043  0.00  0.00    +0.000 OA
BRANCH  10  14
ATOM     11  C   UNL     1      19.670  65.215  34.500  0.00  0.00    +0.000 C 
ATOM     12  C   UNL     1      20.034  63.729  34.493  0.00  0.00    +0.000 C 
ATOM     13  O   UNL     1      19.650  63.177  35.747  0.00  0.00    +0.000 OA
ATOM     14  C   UNL     1      19.982  61.800  35.873  0.00  0.00    +0.000 C 
ATOM     15  C   UNL     1      19.434  60.936  34.708  0.00  0.00    +0.000 C 
ATOM     16  C   UNL     1      19.748  61.530  33.321  0.00  0.00    +0.000 C 
ATOM     17  C   UNL     1      19.304  62.998  33.341  0.00  0.00    +0.000 C 
BRANCH  16  18
ATOM     18  O   UNL     1      21.096  61.389  32.934  0.00  0.00    +0.000 OA
ATOM     19  H   UNL     1      21.237  61.796  32.046  0.00  0.00    +0.000 HD
ENDBRANCH  16  18
BRANCH  17  20
ATOM     20  O   UNL     1      19.562  63.623  32.085  0.00  0.00    +0.000 OA
BRANCH  20  21
ATOM     21  C   UNL     1      18.399  63.658  31.268  0.00  0.00    +0.000 C 
ATOM     22  C   UNL     1      17.322  64.556  31.918  0.00  0.00    +0.000 C 
ATOM     23  C   UNL     1      16.223  64.944  30.892  0.00  0.00    +0.000 C 
ATOM     24  C   UNL     1      16.214  63.951  29.717  0.00  0.00    +0.000 C 
ATOM     25  C   UNL     1      17.636  63.991  29.044  0.00  0.00    +0.000 C 
ATOM     26  C   UNL     1      17.764  65.154  28.048  0.00  0.00    +0.000 C 
ATOM     27  O   UNL     1      18.727  64.121  29.972  0.00  0.00    +0.000 OA
BRANCH  23  28
ATOM     28  O   UNL     1      14.970  65.062  31.516  0.00  0.00    +0.000 OA
ATOM     29  H   UNL     1      14.389  65.597  30.912  0.00  0.00    +0.000 HD
ENDBRANCH  23  28
BRANCH  24  30
ATOM     30  O   UNL     1      15.194  64.293  28.779  0.00  0.00    +0.000 OA
BRANCH  30  31
ATOM     31  C   UNL     1      15.087  63.394  27.681  0.00  0.00    +0.000 C 
ATOM     32  O   UNL     1      14.302  64.046  26.672  0.00  0.00    +0.000 OA
ATOM     33  C   UNL     1      13.534  63.131  25.916  0.00  0.00    +0.000 C 
ATOM     34  C   UNL     1      12.420  62.491  26.800  0.00  0.00    +0.000 C 
ATOM     35  C   UNL     1      12.935  62.221  28.252  0.00  0.00    +0.000 C 
ATOM     36  C   UNL     1      14.464  62.058  28.229  0.00  0.00    +0.000 C 
BRANCH  34  37
ATOM     37  O   UNL     1      11.939  61.319  26.187  0.00  0.00    +0.000 OA
ATOM     38  H   UNL     1      11.758  61.520  25.233  0.00  0.00    +0.000 HD
ENDBRANCH  34  37
BRANCH  35  39
ATOM     39  O   UNL     1      12.586  63.265  29.137  0.00  0.00    +0.000 OA
ATOM     40  H   UNL     1      13.408  63.642  29.544  0.00  0.00    +0.000 HD
ENDBRANCH  35  39
BRANCH  36  41
ATOM     41  O   UNL     1      14.792  60.964  27.409  0.00  0.00    +0.000 OA
ATOM     42  H   UNL     1      14.149  60.237  27.617  0.00  0.00    +0.000 HD
ENDBRANCH  36  41
BRANCH  33  43
ATOM     43  C   UNL     1      12.931  63.823  24.690  0.00  0.00    +0.000 C 
BRANCH  43  44
ATOM     44  O   UNL     1      12.238  62.899  23.895  0.00  0.00    +0.000 OA
ATOM     45  H   UNL     1      12.109  62.086  24.450  0.00  0.00    +0.000 HD
ENDBRANCH  43  44
ENDBRANCH  33  43
ENDBRANCH  30  31
ENDBRANCH  24  30
ENDBRANCH  20  21
ENDBRANCH  17  20
ENDBRANCH  10  14
ENDBRANCH   1  10
BRANCH   4  46
ATOM     46  O   UNL     1      24.573  60.429  39.021  0.00  0.00    +0.000 OA
BRANCH  46  47
ATOM     47  C   UNL     1      25.502  60.825  40.021  0.00  0.00    +0.000 C 
ATOM     48  C   UNL     1      24.770  60.854  41.387  0.00  0.00    +0.000 C 
ATOM     49  C   UNL     1      24.404  59.433  41.838  0.00  0.00    +0.000 C 
ATOM     50  C   UNL     1      25.654  58.466  41.906  0.00  0.00    +0.000 C 
ATOM     51  C   UNL     1      25.272  57.243  41.003  0.00  0.00    +0.000 C 
ATOM     52  C   UNL     1      25.922  57.938  43.371  0.00  0.00    +0.000 C 
ATOM     53  C   UNL     1      26.074  59.039  44.471  0.00  0.00    +0.000 C 
ATOM     54  C   UNL     1      26.066  58.405  45.888  0.00  0.00    +0.000 C 
ATOM     55  C   UNL     1      27.168  57.294  46.104  0.00  0.00    +0.000 C 
ATOM     56  C   UNL     1      26.774  56.484  47.385  0.00  0.00    +0.000 C 
ATOM     57  C   UNL     1      28.617  57.874  46.279  0.00  0.00    +0.000 C 
ATOM     58  C   UNL     1      29.578  56.852  45.625  0.00  0.00    +0.000 C 
ATOM     59  C   UNL     1      28.689  55.709  45.111  0.00  0.00    +0.000 C 
ATOM     60  C   UNL     1      27.301  56.339  44.858  0.00  0.00    +0.000 C 
ATOM     61  C   UNL     1      27.188  57.019  43.430  0.00  0.00    +0.000 C 
ATOM     62  C   UNL     1      28.428  57.759  42.845  0.00  0.00    +0.000 C 
ATOM     63  C   UNL     1      28.171  58.262  41.412  0.00  0.00    +0.000 C 
ATOM     64  C   UNL     1      26.951  59.197  41.391  0.00  0.00    +0.000 C 
ATOM     65  C   UNL     1      26.708  59.839  40.008  0.00  0.00    +0.000 C 
BRANCH  57  66
ATOM     66  C   UNL     1      29.077  58.278  47.685  0.00  0.00    +0.000 C 
ATOM     67  C   UNL     1      30.036  57.660  48.365  0.00  0.00    +0.000 C 
ATOM     68  C   UNL     1      30.132  58.339  49.633  0.00  0.00    +0.000 C 
ATOM     69  O   UNL     1      30.923  58.062  50.523  0.00  0.00    +0.000 OA
ATOM     70  O   UNL     1      29.236  59.331  49.727  0.00  0.00    +0.000 OA
ATOM     71  C   UNL     1      28.508  59.398  48.555  0.00  0.00    +0.000 C 
ENDBRANCH  57  66
BRANCH  54  72
ATOM     72  O   UNL     1      24.762  57.940  46.164  0.00  0.00    +0.000 OA
ATOM     73  H   UNL     1      24.209  58.687  46.501  0.00  0.00    +0.000 HD
ENDBRANCH  54  72
BRANCH  60  74
ATOM     74  O   UNL     1      26.287  55.357  44.915  0.00  0.00    +0.000 OA
ATOM     75  H   UNL     1      25.972  55.185  43.989  0.00  0.00    +0.000 HD
ENDBRANCH  60  74
ENDBRANCH  46  47
ENDBRANCH   4  46
TORSDOF 19
