MODEL 1
REMARK VINA RESULT:   -12.991      0.000      0.000
REMARK INTER + INTRA:         -20.524
REMARK INTER:                 -19.446
REMARK INTRA:                  -1.078
REMARK UNBOUND:                -1.078
REMARK SMILES C[C@@H]1O[C@@H](O[C@H]2CC[C@H](O[C@H]3C[C@H](c4ccc5c(c4O)C(=O)C4=C(C5=O)[C@]5(O)C(=O)C[C@](C)(O)C[C@@]5(O)C=C4)O[C@H](C)[C@@H]3O)O[C@H]2C)C[C@H](O)[C@@H]1O
REMARK SMILES IDX 6 1 7 2 8 3 9 4 45 5 46 6 47 7 5 8 4 9 2 10 3 11 51 12 49 13
REMARK SMILES IDX 48 14 1 15 52 16 50 18 10 20 11 21 12 22 43 23 13 24 41 25
REMARK SMILES IDX 40 26 42 27 44 28 14 30 15 31 19 32 16 33 18 34 17 35 21 36
REMARK SMILES IDX 25 37 23 38 22 39 26 40 24 41 39 42 27 43 38 44 29 45 36 46
REMARK SMILES IDX 31 47 30 48 35 49 32 50 33 51 20 52 28 54 37 56 34 58
REMARK H PARENT 52 17 50 19 44 29 20 53 28 55 37 57 34 59
ROOT
ATOM      1  C   UNL     1      28.203  59.412  47.760  1.00  0.00     0.150 C 
ATOM      2  C   UNL     1      26.664  59.275  47.759  1.00  0.00     0.040 C 
ATOM      3  C   UNL     1      26.187  59.034  46.332  1.00  0.00     0.065 C 
ATOM      4  C   UNL     1      26.540  60.302  45.484  1.00  0.00     0.250 C 
ATOM      5  O   UNL     1      27.745  60.959  45.904  1.00  0.00    -0.347 OA
ATOM      6  C   UNL     1      28.688  60.039  46.413  1.00  0.00     0.147 C 
ATOM      7  C   UNL     1      30.067  60.687  46.520  1.00  0.00     0.041 C 
ENDROOT
BRANCH   1   8
ATOM      8  O   UNL     1      28.595  60.177  48.900  1.00  0.00    -0.347 OA
BRANCH   8   9
ATOM      9  C   UNL     1      29.325  59.408  49.856  1.00  0.00     0.253 C 
ATOM     10  C   UNL     1      29.165  59.032  52.213  1.00  0.00     0.149 C 
ATOM     11  O   UNL     1      28.466  59.202  50.989  1.00  0.00    -0.347 OA
ATOM     12  C   UNL     1      29.968  60.323  52.584  1.00  0.00     0.172 C 
ATOM     13  C   UNL     1      30.358  61.141  51.325  1.00  0.00     0.150 C 
ATOM     14  C   UNL     1      30.645  60.179  50.178  1.00  0.00     0.096 C 
ATOM     15  C   UNL     1      29.961  57.705  52.208  1.00  0.00     0.041 C 
BRANCH  12  16
ATOM     16  O   UNL     1      31.067  60.017  53.412  1.00  0.00    -0.388 OA
ATOM     17  H   UNL     1      31.782  60.682  53.230  1.00  0.00     0.211 HD
ENDBRANCH  12  16
BRANCH  13  18
ATOM     18  O   UNL     1      31.410  62.037  51.585  1.00  0.00    -0.390 OA
ATOM     19  H   UNL     1      31.121  62.650  52.310  1.00  0.00     0.211 HD
ENDBRANCH  13  18
ENDBRANCH   8   9
ENDBRANCH   1   8
BRANCH   4  20
ATOM     20  O   UNL     1      26.626  59.989  44.095  1.00  0.00    -0.347 OA
BRANCH  20  21
ATOM     21  C   UNL     1      25.668  59.022  43.663  1.00  0.00     0.155 C 
ATOM     22  C   UNL     1      24.724  59.672  42.633  1.00  0.00     0.072 C 
ATOM     23  C   UNL     1      26.372  57.834  42.980  1.00  0.00     0.172 C 
ATOM     24  C   UNL     1      25.480  60.036  41.316  1.00  0.00     0.155 C 
ATOM     25  C   UNL     1      27.081  58.340  41.701  1.00  0.00     0.147 C 
ATOM     26  O   UNL     1      26.141  58.889  40.800  1.00  0.00    -0.368 OA
ATOM     27  C   UNL     1      27.808  57.191  40.996  1.00  0.00     0.041 C 
BRANCH  23  28
ATOM     28  O   UNL     1      25.451  56.797  42.712  1.00  0.00    -0.388 OA
ATOM     29  H   UNL     1      24.770  56.767  43.432  1.00  0.00     0.211 HD
ENDBRANCH  23  28
BRANCH  24  30
ATOM     30  C   UNL     1      24.496  60.597  40.270  1.00  0.00     0.023 A 
ATOM     31  C   UNL     1      23.492  61.469  40.719  1.00  0.00     0.011 A 
ATOM     32  C   UNL     1      24.552  60.286  38.875  1.00  0.00     0.133 A 
ATOM     33  C   UNL     1      22.552  61.998  39.845  1.00  0.00     0.013 A 
ATOM     34  C   UNL     1      23.589  60.846  37.967  1.00  0.00     0.076 A 
ATOM     35  C   UNL     1      22.582  61.693  38.477  1.00  0.00     0.037 A 
ATOM     36  C   UNL     1      23.590  60.612  36.483  1.00  0.00     0.198 C 
ATOM     37  C   UNL     1      21.558  62.286  37.573  1.00  0.00     0.194 C 
ATOM     38  C   UNL     1      22.560  61.230  35.596  1.00  0.00     0.033 C 
ATOM     39  O   UNL     1      24.452  59.932  35.954  1.00  0.00    -0.288 OA
ATOM     40  O   UNL     1      20.750  63.076  38.037  1.00  0.00    -0.289 OA
ATOM     41  C   UNL     1      21.550  61.989  36.104  1.00  0.00     0.054 C 
ATOM     42  C   UNL     1      22.743  61.107  34.119  1.00  0.00     0.011 C 
ATOM     43  C   UNL     1      20.564  62.702  35.140  1.00  0.00     0.185 C 
ATOM     44  C   UNL     1      21.823  61.542  33.258  1.00  0.00     0.012 C 
ATOM     45  C   UNL     1      19.084  62.730  35.596  1.00  0.00     0.175 C 
ATOM     46  C   UNL     1      20.473  61.962  33.767  1.00  0.00     0.126 C 
ATOM     47  C   UNL     1      17.970  63.033  34.602  1.00  0.00     0.114 C 
ATOM     48  O   UNL     1      18.754  62.253  36.671  1.00  0.00    -0.296 OA
ATOM     49  C   UNL     1      19.729  62.855  32.718  1.00  0.00     0.079 C 
ATOM     50  C   UNL     1      18.460  63.619  33.253  1.00  0.00     0.072 C 
ATOM     51  C   UNL     1      18.713  65.140  33.436  1.00  0.00     0.042 C 
BRANCH  32  52
ATOM     52  O   UNL     1      25.541  59.462  38.454  1.00  0.00    -0.507 OA
ATOM     53  H   UNL     1      25.478  58.676  37.909  1.00  0.00     0.293 HD
ENDBRANCH  32  52
BRANCH  43  54
ATOM     54  O   UNL     1      21.073  63.994  34.944  1.00  0.00    -0.374 OA
ATOM     55  H   UNL     1      20.353  64.637  35.183  1.00  0.00     0.212 HD
ENDBRANCH  43  54
BRANCH  46  56
ATOM     56  O   UNL     1      19.748  60.762  33.973  1.00  0.00    -0.382 OA
ATOM     57  H   UNL     1      20.062  60.083  33.318  1.00  0.00     0.212 HD
ENDBRANCH  46  56
BRANCH  50  58
ATOM     58  O   UNL     1      17.413  63.490  32.319  1.00  0.00    -0.390 OA
ATOM     59  H   UNL     1      16.673  62.987  32.755  1.00  0.00     0.211 HD
ENDBRANCH  50  58
ENDBRANCH  24  30
ENDBRANCH  20  21
ENDBRANCH   4  20
TORSDOF 12
ENDMDL
MODEL 2
REMARK VINA RESULT:   -12.742      3.707     14.965
REMARK INTER + INTRA:         -20.151
REMARK INTER:                 -18.754
REMARK INTRA:                  -1.397
REMARK UNBOUND:                -1.078
REMARK SMILES C[C@@H]1O[C@@H](O[C@H]2CC[C@H](O[C@H]3C[C@H](c4ccc5c(c4O)C(=O)C4=C(C5=O)[C@]5(O)C(=O)C[C@](C)(O)C[C@@]5(O)C=C4)O[C@H](C)[C@@H]3O)O[C@H]2C)C[C@H](O)[C@@H]1O
REMARK SMILES IDX 6 1 7 2 8 3 9 4 45 5 46 6 47 7 5 8 4 9 2 10 3 11 51 12 49 13
REMARK SMILES IDX 48 14 1 15 52 16 50 18 10 20 11 21 12 22 43 23 13 24 41 25
REMARK SMILES IDX 40 26 42 27 44 28 14 30 15 31 19 32 16 33 18 34 17 35 21 36
REMARK SMILES IDX 25 37 23 38 22 39 26 40 24 41 39 42 27 43 38 44 29 45 36 46
REMARK SMILES IDX 31 47 30 48 35 49 32 50 33 51 20 52 28 54 37 56 34 58
REMARK H PARENT 52 17 50 19 44 29 20 53 28 55 37 57 34 59
ROOT
ATOM      1  C   UNL     1      22.002  61.981  37.655  1.00  0.00     0.150 C 
ATOM      2  C   UNL     1      21.730  62.456  39.100  1.00  0.00     0.040 C 
ATOM      3  C   UNL     1      22.923  62.095  39.974  1.00  0.00     0.065 C 
ATOM      4  C   UNL     1      23.040  60.535  40.014  1.00  0.00     0.250 C 
ATOM      5  O   UNL     1      22.623  59.895  38.800  1.00  0.00    -0.347 OA
ATOM      6  C   UNL     1      22.893  60.698  37.669  1.00  0.00     0.147 C 
ATOM      7  C   UNL     1      22.776  59.876  36.386  1.00  0.00     0.041 C 
ENDROOT
BRANCH   1   8
ATOM      8  O   UNL     1      20.752  61.779  36.994  1.00  0.00    -0.347 OA
BRANCH   8   9
ATOM      9  C   UNL     1      20.420  62.846  36.104  1.00  0.00     0.253 C 
ATOM     10  C   UNL     1      18.775  63.187  34.401  1.00  0.00     0.149 C 
ATOM     11  O   UNL     1      19.061  62.647  35.683  1.00  0.00    -0.347 OA
ATOM     12  C   UNL     1      19.616  62.474  33.292  1.00  0.00     0.172 C 
ATOM     13  C   UNL     1      20.946  61.904  33.854  1.00  0.00     0.150 C 
ATOM     14  C   UNL     1      21.463  62.836  34.942  1.00  0.00     0.096 C 
ATOM     15  C   UNL     1      18.846  64.733  34.431  1.00  0.00     0.041 C 
BRANCH  12  16
ATOM     16  O   UNL     1      19.798  63.313  32.174  1.00  0.00    -0.388 OA
ATOM     17  H   UNL     1      19.478  64.221  32.416  1.00  0.00     0.211 HD
ENDBRANCH  12  16
BRANCH  13  18
ATOM     18  O   UNL     1      21.882  61.652  32.835  1.00  0.00    -0.390 OA
ATOM     19  H   UNL     1      22.480  60.921  33.139  1.00  0.00     0.211 HD
ENDBRANCH  13  18
ENDBRANCH   8   9
ENDBRANCH   1   8
BRANCH   4  20
ATOM     20  O   UNL     1      24.368  60.123  40.338  1.00  0.00    -0.347 OA
BRANCH  20  21
ATOM     21  C   UNL     1      24.949  60.855  41.417  1.00  0.00     0.155 C 
ATOM     22  C   UNL     1      25.129  59.917  42.626  1.00  0.00     0.072 C 
ATOM     23  C   UNL     1      26.338  61.389  41.019  1.00  0.00     0.172 C 
ATOM     24  C   UNL     1      26.189  58.808  42.336  1.00  0.00     0.155 C 
ATOM     25  C   UNL     1      27.279  60.188  40.756  1.00  0.00     0.147 C 
ATOM     26  O   UNL     1      27.413  59.400  41.922  1.00  0.00    -0.368 OA
ATOM     27  C   UNL     1      28.671  60.673  40.341  1.00  0.00     0.041 C 
BRANCH  23  28
ATOM     28  O   UNL     1      26.841  62.259  42.010  1.00  0.00    -0.388 OA
ATOM     29  H   UNL     1      26.085  62.646  42.523  1.00  0.00     0.211 HD
ENDBRANCH  23  28
BRANCH  24  30
ATOM     30  C   UNL     1      26.417  57.942  43.591  1.00  0.00     0.023 A 
ATOM     31  C   UNL     1      25.828  58.365  44.793  1.00  0.00     0.011 A 
ATOM     32  C   UNL     1      27.186  56.736  43.599  1.00  0.00     0.133 A 
ATOM     33  C   UNL     1      26.005  57.655  45.972  1.00  0.00     0.013 A 
ATOM     34  C   UNL     1      27.358  55.992  44.817  1.00  0.00     0.076 A 
ATOM     35  C   UNL     1      26.768  56.479  46.002  1.00  0.00     0.037 A 
ATOM     36  C   UNL     1      28.112  54.697  44.917  1.00  0.00     0.198 C 
ATOM     37  C   UNL     1      26.928  55.744  47.287  1.00  0.00     0.194 C 
ATOM     38  C   UNL     1      28.247  53.973  46.215  1.00  0.00     0.033 C 
ATOM     39  O   UNL     1      28.611  54.182  43.932  1.00  0.00    -0.288 OA
ATOM     40  O   UNL     1      26.339  56.153  48.277  1.00  0.00    -0.289 OA
ATOM     41  C   UNL     1      27.735  54.484  47.369  1.00  0.00     0.054 C 
ATOM     42  C   UNL     1      28.842  52.603  46.195  1.00  0.00     0.011 C 
ATOM     43  C   UNL     1      27.801  53.649  48.676  1.00  0.00     0.185 C 
ATOM     44  C   UNL     1      29.089  51.927  47.316  1.00  0.00     0.012 C 
ATOM     45  C   UNL     1      28.098  54.450  49.968  1.00  0.00     0.175 C 
ATOM     46  C   UNL     1      28.983  52.628  48.641  1.00  0.00     0.126 C 
ATOM     47  C   UNL     1      28.575  53.742  51.230  1.00  0.00     0.114 C 
ATOM     48  O   UNL     1      28.222  55.665  49.933  1.00  0.00    -0.296 OA
ATOM     49  C   UNL     1      28.845  51.599  49.813  1.00  0.00     0.079 C 
ATOM     50  C   UNL     1      28.405  52.202  51.200  1.00  0.00     0.072 C 
ATOM     51  C   UNL     1      26.934  51.858  51.560  1.00  0.00     0.042 C 
BRANCH  32  52
ATOM     52  O   UNL     1      27.730  56.330  42.426  1.00  0.00    -0.507 OA
ATOM     53  H   UNL     1      28.650  56.329  42.158  1.00  0.00     0.293 HD
ENDBRANCH  32  52
BRANCH  43  54
ATOM     54  O   UNL     1      26.585  52.956  48.762  1.00  0.00    -0.374 OA
ATOM     55  H   UNL     1      25.902  53.490  48.274  1.00  0.00     0.212 HD
ENDBRANCH  43  54
BRANCH  46  56
ATOM     56  O   UNL     1      30.188  53.360  48.788  1.00  0.00    -0.382 OA
ATOM     57  H   UNL     1      30.055  54.054  49.487  1.00  0.00     0.212 HD
ENDBRANCH  46  56
BRANCH  50  58
ATOM     58  O   UNL     1      29.211  51.657  52.219  1.00  0.00    -0.390 OA
ATOM     59  H   UNL     1      30.128  52.031  52.118  1.00  0.00     0.211 HD
ENDBRANCH  50  58
ENDBRANCH  24  30
ENDBRANCH  20  21
ENDBRANCH   4  20
TORSDOF 12
ENDMDL
MODEL 3
REMARK VINA RESULT:   -12.505      4.994     10.879
REMARK INTER + INTRA:         -19.797
REMARK INTER:                 -18.975
REMARK INTRA:                  -0.822
REMARK UNBOUND:                -1.078
REMARK SMILES C[C@@H]1O[C@@H](O[C@H]2CC[C@H](O[C@H]3C[C@H](c4ccc5c(c4O)C(=O)C4=C(C5=O)[C@]5(O)C(=O)C[C@](C)(O)C[C@@]5(O)C=C4)O[C@H](C)[C@@H]3O)O[C@H]2C)C[C@H](O)[C@@H]1O
REMARK SMILES IDX 6 1 7 2 8 3 9 4 45 5 46 6 47 7 5 8 4 9 2 10 3 11 51 12 49 13
REMARK SMILES IDX 48 14 1 15 52 16 50 18 10 20 11 21 12 22 43 23 13 24 41 25
REMARK SMILES IDX 40 26 42 27 44 28 14 30 15 31 19 32 16 33 18 34 17 35 21 36
REMARK SMILES IDX 25 37 23 38 22 39 26 40 24 41 39 42 27 43 38 44 29 45 36 46
REMARK SMILES IDX 31 47 30 48 35 49 32 50 33 51 20 52 28 54 37 56 34 58
REMARK H PARENT 52 17 50 19 44 29 20 53 28 55 37 57 34 59
ROOT
ATOM      1  C   UNL     1      22.996  61.210  38.705  1.00  0.00     0.150 C 
ATOM      2  C   UNL     1      21.601  61.571  39.264  1.00  0.00     0.040 C 
ATOM      3  C   UNL     1      20.692  61.969  38.109  1.00  0.00     0.065 C 
ATOM      4  C   UNL     1      21.279  63.264  37.455  1.00  0.00     0.250 C 
ATOM      5  O   UNL     1      22.711  63.335  37.503  1.00  0.00    -0.347 OA
ATOM      6  C   UNL     1      23.299  62.053  37.425  1.00  0.00     0.147 C 
ATOM      7  C   UNL     1      24.792  62.163  37.123  1.00  0.00     0.041 C 
ENDROOT
BRANCH   1   8
ATOM      8  O   UNL     1      23.967  61.399  39.736  1.00  0.00    -0.347 OA
BRANCH   8   9
ATOM      9  C   UNL     1      24.039  60.293  40.636  1.00  0.00     0.253 C 
ATOM     10  C   UNL     1      25.383  59.733  42.534  1.00  0.00     0.149 C 
ATOM     11  O   UNL     1      24.690  60.754  41.831  1.00  0.00    -0.347 OA
ATOM     12  C   UNL     1      26.553  59.153  41.672  1.00  0.00     0.172 C 
ATOM     13  C   UNL     1      26.275  59.298  40.152  1.00  0.00     0.150 C 
ATOM     14  C   UNL     1      24.781  59.131  39.903  1.00  0.00     0.096 C 
ATOM     15  C   UNL     1      24.389  58.704  43.124  1.00  0.00     0.041 C 
BRANCH  12  16
ATOM     16  O   UNL     1      26.863  57.834  42.058  1.00  0.00    -0.388 OA
ATOM     17  H   UNL     1      26.765  57.250  41.261  1.00  0.00     0.211 HD
ENDBRANCH  12  16
BRANCH  13  18
ATOM     18  O   UNL     1      27.074  58.430  39.386  1.00  0.00    -0.390 OA
ATOM     19  H   UNL     1      26.936  57.507  39.723  1.00  0.00     0.211 HD
ENDBRANCH  13  18
ENDBRANCH   8   9
ENDBRANCH   1   8
BRANCH   4  20
ATOM     20  O   UNL     1      20.839  63.408  36.105  1.00  0.00    -0.347 OA
BRANCH  20  21
ATOM     21  C   UNL     1      20.013  62.335  35.652  1.00  0.00     0.155 C 
ATOM     22  C   UNL     1      18.840  62.910  34.834  1.00  0.00     0.072 C 
ATOM     23  C   UNL     1      20.813  61.388  34.737  1.00  0.00     0.172 C 
ATOM     24  C   UNL     1      19.338  63.561  33.505  1.00  0.00     0.155 C 
ATOM     25  C   UNL     1      21.245  62.164  33.469  1.00  0.00     0.147 C 
ATOM     26  O   UNL     1      20.111  62.628  32.763  1.00  0.00    -0.368 OA
ATOM     27  C   UNL     1      22.057  61.263  32.535  1.00  0.00     0.041 C 
BRANCH  23  28
ATOM     28  O   UNL     1      20.057  60.235  34.431  1.00  0.00    -0.388 OA
ATOM     29  H   UNL     1      19.575  59.932  35.243  1.00  0.00     0.211 HD
ENDBRANCH  23  28
BRANCH  24  30
ATOM     30  C   UNL     1      18.140  64.044  32.662  1.00  0.00     0.023 A 
ATOM     31  C   UNL     1      18.101  63.674  31.309  1.00  0.00     0.011 A 
ATOM     32  C   UNL     1      17.068  64.838  33.180  1.00  0.00     0.133 A 
ATOM     33  C   UNL     1      17.071  64.088  30.477  1.00  0.00     0.013 A 
ATOM     34  C   UNL     1      15.993  65.254  32.322  1.00  0.00     0.076 A 
ATOM     35  C   UNL     1      16.020  64.879  30.962  1.00  0.00     0.037 A 
ATOM     36  C   UNL     1      14.806  66.053  32.782  1.00  0.00     0.198 C 
ATOM     37  C   UNL     1      14.931  65.297  30.037  1.00  0.00     0.194 C 
ATOM     38  C   UNL     1      13.721  66.448  31.837  1.00  0.00     0.033 C 
ATOM     39  O   UNL     1      14.680  66.378  33.949  1.00  0.00    -0.288 OA
ATOM     40  O   UNL     1      14.948  64.888  28.885  1.00  0.00    -0.289 OA
ATOM     41  C   UNL     1      13.788  66.143  30.510  1.00  0.00     0.054 C 
ATOM     42  C   UNL     1      12.488  67.071  32.405  1.00  0.00     0.011 C 
ATOM     43  C   UNL     1      12.589  66.475  29.583  1.00  0.00     0.185 C 
ATOM     44  C   UNL     1      11.515  67.541  31.627  1.00  0.00     0.012 C 
ATOM     45  C   UNL     1      12.959  66.981  28.166  1.00  0.00     0.175 C 
ATOM     46  C   UNL     1      11.743  67.661  30.147  1.00  0.00     0.126 C 
ATOM     47  C   UNL     1      11.930  67.704  27.306  1.00  0.00     0.114 C 
ATOM     48  O   UNL     1      14.127  67.059  27.818  1.00  0.00    -0.296 OA
ATOM     49  C   UNL     1      10.385  67.773  29.375  1.00  0.00     0.079 C 
ATOM     50  C   UNL     1      10.471  67.579  27.814  1.00  0.00     0.072 C 
ATOM     51  C   UNL     1       9.900  66.210  27.352  1.00  0.00     0.042 C 
BRANCH  32  52
ATOM     52  O   UNL     1      17.109  65.168  34.493  1.00  0.00    -0.507 OA
ATOM     53  H   UNL     1      16.524  64.893  35.201  1.00  0.00     0.293 HD
ENDBRANCH  32  52
BRANCH  43  54
ATOM     54  O   UNL     1      11.799  65.317  29.532  1.00  0.00    -0.374 OA
ATOM     55  H   UNL     1      12.365  64.586  29.164  1.00  0.00     0.212 HD
ENDBRANCH  43  54
BRANCH  46  56
ATOM     56  O   UNL     1      12.494  68.849  29.967  1.00  0.00    -0.382 OA
ATOM     57  H   UNL     1      13.195  68.892  30.672  1.00  0.00     0.212 HD
ENDBRANCH  46  56
BRANCH  50  58
ATOM     58  O   UNL     1       9.704  68.576  27.180  1.00  0.00    -0.390 OA
ATOM     59  H   UNL     1      10.184  68.853  26.353  1.00  0.00     0.211 HD
ENDBRANCH  50  58
ENDBRANCH  24  30
ENDBRANCH  20  21
ENDBRANCH   4  20
TORSDOF 12
ENDMDL
MODEL 4
REMARK VINA RESULT:   -12.443      2.845     15.034
REMARK INTER + INTRA:         -19.704
REMARK INTER:                 -18.545
REMARK INTRA:                  -1.159
REMARK UNBOUND:                -1.078
REMARK SMILES C[C@@H]1O[C@@H](O[C@H]2CC[C@H](O[C@H]3C[C@H](c4ccc5c(c4O)C(=O)C4=C(C5=O)[C@]5(O)C(=O)C[C@](C)(O)C[C@@]5(O)C=C4)O[C@H](C)[C@@H]3O)O[C@H]2C)C[C@H](O)[C@@H]1O
REMARK SMILES IDX 6 1 7 2 8 3 9 4 45 5 46 6 47 7 5 8 4 9 2 10 3 11 51 12 49 13
REMARK SMILES IDX 48 14 1 15 52 16 50 18 10 20 11 21 12 22 43 23 13 24 41 25
REMARK SMILES IDX 40 26 42 27 44 28 14 30 15 31 19 32 16 33 18 34 17 35 21 36
REMARK SMILES IDX 25 37 23 38 22 39 26 40 24 41 39 42 27 43 38 44 29 45 36 46
REMARK SMILES IDX 31 47 30 48 35 49 32 50 33 51 20 52 28 54 37 56 34 58
REMARK H PARENT 52 17 50 19 44 29 20 53 28 55 37 57 34 59
ROOT
ATOM      1  C   UNL     1      22.373  61.600  37.568  1.00  0.00     0.150 C 
ATOM      2  C   UNL     1      23.497  62.657  37.657  1.00  0.00     0.040 C 
ATOM      3  C   UNL     1      24.520  62.207  38.691  1.00  0.00     0.065 C 
ATOM      4  C   UNL     1      23.812  62.165  40.086  1.00  0.00     0.250 C 
ATOM      5  O   UNL     1      22.425  61.806  40.017  1.00  0.00    -0.347 OA
ATOM      6  C   UNL     1      22.171  60.910  38.955  1.00  0.00     0.147 C 
ATOM      7  C   UNL     1      20.792  60.271  39.109  1.00  0.00     0.041 C 
ENDROOT
BRANCH   1   8
ATOM      8  O   UNL     1      21.186  62.231  37.086  1.00  0.00    -0.347 OA
BRANCH   8   9
ATOM      9  C   UNL     1      21.308  62.678  35.735  1.00  0.00     0.253 C 
ATOM     10  C   UNL     1      19.893  63.839  34.195  1.00  0.00     0.149 C 
ATOM     11  O   UNL     1      20.340  63.721  35.537  1.00  0.00    -0.347 OA
ATOM     12  C   UNL     1      19.143  62.545  33.738  1.00  0.00     0.172 C 
ATOM     13  C   UNL     1      19.629  61.292  34.515  1.00  0.00     0.150 C 
ATOM     14  C   UNL     1      21.118  61.437  34.805  1.00  0.00     0.096 C 
ATOM     15  C   UNL     1      21.039  64.330  33.278  1.00  0.00     0.041 C 
BRANCH  12  16
ATOM     16  O   UNL     1      19.203  62.390  32.338  1.00  0.00    -0.388 OA
ATOM     17  H   UNL     1      18.916  63.245  31.923  1.00  0.00     0.211 HD
ENDBRANCH  12  16
BRANCH  13  18
ATOM     18  O   UNL     1      19.298  60.099  33.848  1.00  0.00    -0.390 OA
ATOM     19  H   UNL     1      18.323  59.950  33.949  1.00  0.00     0.211 HD
ENDBRANCH  13  18
ENDBRANCH   8   9
ENDBRANCH   1   8
BRANCH   4  20
ATOM     20  O   UNL     1      24.488  61.286  40.984  1.00  0.00    -0.347 OA
BRANCH  20  21
ATOM     21  C   UNL     1      25.725  60.786  40.476  1.00  0.00     0.155 C 
ATOM     22  C   UNL     1      26.807  60.909  41.567  1.00  0.00     0.072 C 
ATOM     23  C   UNL     1      25.591  59.296  40.106  1.00  0.00     0.172 C 
ATOM     24  C   UNL     1      26.510  59.965  42.774  1.00  0.00     0.155 C 
ATOM     25  C   UNL     1      25.292  58.485  41.390  1.00  0.00     0.147 C 
ATOM     26  O   UNL     1      26.347  58.629  42.321  1.00  0.00    -0.368 OA
ATOM     27  C   UNL     1      25.136  56.997  41.066  1.00  0.00     0.041 C 
BRANCH  23  28
ATOM     28  O   UNL     1      26.750  58.842  39.440  1.00  0.00    -0.388 OA
ATOM     29  H   UNL     1      27.222  59.615  39.035  1.00  0.00     0.211 HD
ENDBRANCH  23  28
BRANCH  24  30
ATOM     30  C   UNL     1      27.654  60.038  43.806  1.00  0.00     0.023 A 
ATOM     31  C   UNL     1      27.332  60.446  45.110  1.00  0.00     0.011 A 
ATOM     32  C   UNL     1      29.015  59.711  43.514  1.00  0.00     0.133 A 
ATOM     33  C   UNL     1      28.306  60.561  46.092  1.00  0.00     0.013 A 
ATOM     34  C   UNL     1      30.023  59.815  44.533  1.00  0.00     0.076 A 
ATOM     35  C   UNL     1      29.648  60.259  45.820  1.00  0.00     0.037 A 
ATOM     36  C   UNL     1      31.468  59.456  44.334  1.00  0.00     0.198 C 
ATOM     37  C   UNL     1      30.662  60.390  46.902  1.00  0.00     0.194 C 
ATOM     38  C   UNL     1      32.461  59.584  45.440  1.00  0.00     0.033 C 
ATOM     39  O   UNL     1      31.866  59.019  43.269  1.00  0.00    -0.288 OA
ATOM     40  O   UNL     1      30.288  60.702  48.024  1.00  0.00    -0.289 OA
ATOM     41  C   UNL     1      32.107  60.079  46.659  1.00  0.00     0.054 C 
ATOM     42  C   UNL     1      33.830  59.027  45.221  1.00  0.00     0.011 C 
ATOM     43  C   UNL     1      33.144  60.094  47.814  1.00  0.00     0.185 C 
ATOM     44  C   UNL     1      34.805  59.185  46.115  1.00  0.00     0.012 C 
ATOM     45  C   UNL     1      33.106  61.342  48.731  1.00  0.00     0.175 C 
ATOM     46  C   UNL     1      34.607  60.129  47.267  1.00  0.00     0.126 C 
ATOM     47  C   UNL     1      34.286  61.677  49.636  1.00  0.00     0.114 C 
ATOM     48  O   UNL     1      32.274  62.218  48.557  1.00  0.00    -0.296 OA
ATOM     49  C   UNL     1      35.624  59.831  48.421  1.00  0.00     0.079 C 
ATOM     50  C   UNL     1      35.313  60.528  49.798  1.00  0.00     0.072 C 
ATOM     51  C   UNL     1      34.777  59.531  50.862  1.00  0.00     0.042 C 
BRANCH  32  52
ATOM     52  O   UNL     1      29.306  59.298  42.256  1.00  0.00    -0.507 OA
ATOM     53  H   UNL     1      30.087  59.475  41.730  1.00  0.00     0.293 HD
ENDBRANCH  32  52
BRANCH  43  54
ATOM     54  O   UNL     1      32.941  58.910  48.538  1.00  0.00    -0.374 OA
ATOM     55  H   UNL     1      33.836  58.532  48.748  1.00  0.00     0.212 HD
ENDBRANCH  43  54
BRANCH  46  56
ATOM     56  O   UNL     1      34.840  61.427  46.747  1.00  0.00    -0.382 OA
ATOM     57  H   UNL     1      34.046  61.705  46.217  1.00  0.00     0.212 HD
ENDBRANCH  46  56
BRANCH  50  58
ATOM     58  O   UNL     1      36.501  61.079  50.318  1.00  0.00    -0.390 OA
ATOM     59  H   UNL     1      36.806  60.499  51.067  1.00  0.00     0.211 HD
ENDBRANCH  50  58
ENDBRANCH  24  30
ENDBRANCH  20  21
ENDBRANCH   4  20
TORSDOF 12
ENDMDL
MODEL 5
REMARK VINA RESULT:   -12.383      4.517     15.253
REMARK INTER + INTRA:         -19.614
REMARK INTER:                 -18.663
REMARK INTRA:                  -0.952
REMARK UNBOUND:                -1.078
REMARK SMILES C[C@@H]1O[C@@H](O[C@H]2CC[C@H](O[C@H]3C[C@H](c4ccc5c(c4O)C(=O)C4=C(C5=O)[C@]5(O)C(=O)C[C@](C)(O)C[C@@]5(O)C=C4)O[C@H](C)[C@@H]3O)O[C@H]2C)C[C@H](O)[C@@H]1O
REMARK SMILES IDX 6 1 7 2 8 3 9 4 45 5 46 6 47 7 5 8 4 9 2 10 3 11 51 12 49 13
REMARK SMILES IDX 48 14 1 15 52 16 50 18 10 20 11 21 12 22 43 23 13 24 41 25
REMARK SMILES IDX 40 26 42 27 44 28 14 30 15 31 19 32 16 33 18 34 17 35 21 36
REMARK SMILES IDX 25 37 23 38 22 39 26 40 24 41 39 42 27 43 38 44 29 45 36 46
REMARK SMILES IDX 31 47 30 48 35 49 32 50 33 51 20 52 28 54 37 56 34 58
REMARK H PARENT 52 17 50 19 44 29 20 53 28 55 37 57 34 59
ROOT
ATOM      1  C   UNL     1      22.675  60.549  37.656  1.00  0.00     0.150 C 
ATOM      2  C   UNL     1      24.176  60.795  37.383  1.00  0.00     0.040 C 
ATOM      3  C   UNL     1      24.999  59.854  38.252  1.00  0.00     0.065 C 
ATOM      4  C   UNL     1      24.735  60.222  39.750  1.00  0.00     0.250 C 
ATOM      5  O   UNL     1      23.405  60.702  39.999  1.00  0.00    -0.347 OA
ATOM      6  C   UNL     1      22.464  60.097  39.136  1.00  0.00     0.147 C 
ATOM      7  C   UNL     1      21.042  60.341  39.637  1.00  0.00     0.041 C 
ENDROOT
BRANCH   1   8
ATOM      8  O   UNL     1      21.949  61.735  37.330  1.00  0.00    -0.347 OA
BRANCH   8   9
ATOM      9  C   UNL     1      21.377  61.690  36.022  1.00  0.00     0.253 C 
ATOM     10  C   UNL     1      21.368  63.145  34.123  1.00  0.00     0.149 C 
ATOM     11  O   UNL     1      22.121  62.603  35.197  1.00  0.00    -0.347 OA
ATOM     12  C   UNL     1      20.176  64.009  34.653  1.00  0.00     0.172 C 
ATOM     13  C   UNL     1      19.707  63.544  36.057  1.00  0.00     0.150 C 
ATOM     14  C   UNL     1      19.859  62.031  36.154  1.00  0.00     0.096 C 
ATOM     15  C   UNL     1      21.014  62.044  33.092  1.00  0.00     0.041 C 
BRANCH  12  16
ATOM     16  O   UNL     1      19.132  64.068  33.708  1.00  0.00    -0.388 OA
ATOM     17  H   UNL     1      18.300  63.750  34.150  1.00  0.00     0.211 HD
ENDBRANCH  12  16
BRANCH  13  18
ATOM     18  O   UNL     1      18.411  64.001  36.356  1.00  0.00    -0.390 OA
ATOM     19  H   UNL     1      18.106  64.575  35.607  1.00  0.00     0.211 HD
ENDBRANCH  13  18
ENDBRANCH   8   9
ENDBRANCH   1   8
BRANCH   4  20
ATOM     20  O   UNL     1      25.013  59.120  40.612  1.00  0.00    -0.347 OA
BRANCH  20  21
ATOM     21  C   UNL     1      24.735  59.382  41.987  1.00  0.00     0.155 C 
ATOM     22  C   UNL     1      25.190  58.177  42.834  1.00  0.00     0.072 C 
ATOM     23  C   UNL     1      25.513  60.622  42.467  1.00  0.00     0.172 C 
ATOM     24  C   UNL     1      26.742  58.017  42.809  1.00  0.00     0.155 C 
ATOM     25  C   UNL     1      27.030  60.324  42.383  1.00  0.00     0.147 C 
ATOM     26  O   UNL     1      27.365  59.229  43.211  1.00  0.00    -0.368 OA
ATOM     27  C   UNL     1      27.845  61.538  42.837  1.00  0.00     0.041 C 
BRANCH  23  28
ATOM     28  O   UNL     1      25.109  60.992  43.769  1.00  0.00    -0.388 OA
ATOM     29  H   UNL     1      25.492  61.878  43.993  1.00  0.00     0.211 HD
ENDBRANCH  23  28
BRANCH  24  30
ATOM     30  C   UNL     1      27.178  56.864  43.737  1.00  0.00     0.023 A 
ATOM     31  C   UNL     1      27.898  55.803  43.166  1.00  0.00     0.011 A 
ATOM     32  C   UNL     1      26.898  56.819  45.139  1.00  0.00     0.133 A 
ATOM     33  C   UNL     1      28.305  54.716  43.927  1.00  0.00     0.013 A 
ATOM     34  C   UNL     1      27.333  55.701  45.931  1.00  0.00     0.076 A 
ATOM     35  C   UNL     1      28.027  54.647  45.299  1.00  0.00     0.037 A 
ATOM     36  C   UNL     1      27.122  55.582  47.413  1.00  0.00     0.198 C 
ATOM     37  C   UNL     1      28.487  53.466  46.081  1.00  0.00     0.194 C 
ATOM     38  C   UNL     1      27.605  54.394  48.176  1.00  0.00     0.033 C 
ATOM     39  O   UNL     1      26.574  56.470  48.044  1.00  0.00    -0.288 OA
ATOM     40  O   UNL     1      29.152  52.610  45.516  1.00  0.00    -0.289 OA
ATOM     41  C   UNL     1      28.211  53.347  47.549  1.00  0.00     0.054 C 
ATOM     42  C   UNL     1      27.529  54.439  49.667  1.00  0.00     0.011 C 
ATOM     43  C   UNL     1      28.797  52.181  48.390  1.00  0.00     0.185 C 
ATOM     44  C   UNL     1      27.846  53.387  50.419  1.00  0.00     0.012 C 
ATOM     45  C   UNL     1      28.616  50.765  47.789  1.00  0.00     0.175 C 
ATOM     46  C   UNL     1      28.071  52.051  49.767  1.00  0.00     0.126 C 
ATOM     47  C   UNL     1      28.777  49.525  48.659  1.00  0.00     0.114 C 
ATOM     48  O   UNL     1      28.083  50.614  46.700  1.00  0.00    -0.296 OA
ATOM     49  C   UNL     1      28.869  51.090  50.712  1.00  0.00     0.079 C 
ATOM     50  C   UNL     1      29.443  49.791  50.032  1.00  0.00     0.072 C 
ATOM     51  C   UNL     1      30.982  49.854  49.833  1.00  0.00     0.042 C 
BRANCH  32  52
ATOM     52  O   UNL     1      26.222  57.862  45.678  1.00  0.00    -0.507 OA
ATOM     53  H   UNL     1      26.027  58.717  45.292  1.00  0.00     0.293 HD
ENDBRANCH  32  52
BRANCH  43  54
ATOM     54  O   UNL     1      30.149  52.488  48.599  1.00  0.00    -0.374 OA
ATOM     55  H   UNL     1      30.635  51.629  48.718  1.00  0.00     0.212 HD
ENDBRANCH  43  54
BRANCH  46  56
ATOM     56  O   UNL     1      26.780  51.519  49.524  1.00  0.00    -0.382 OA
ATOM     57  H   UNL     1      26.123  52.266  49.520  1.00  0.00     0.212 HD
ENDBRANCH  46  56
BRANCH  50  58
ATOM     58  O   UNL     1      29.185  48.681  50.861  1.00  0.00    -0.390 OA
ATOM     59  H   UNL     1      28.616  48.989  51.618  1.00  0.00     0.211 HD
ENDBRANCH  50  58
ENDBRANCH  24  30
ENDBRANCH  20  21
ENDBRANCH   4  20
TORSDOF 12
ENDMDL
MODEL 6
REMARK VINA RESULT:   -12.322      2.034     15.206
REMARK INTER + INTRA:         -19.524
REMARK INTER:                 -18.275
REMARK INTRA:                  -1.249
REMARK UNBOUND:                -1.078
REMARK SMILES C[C@@H]1O[C@@H](O[C@H]2CC[C@H](O[C@H]3C[C@H](c4ccc5c(c4O)C(=O)C4=C(C5=O)[C@]5(O)C(=O)C[C@](C)(O)C[C@@]5(O)C=C4)O[C@H](C)[C@@H]3O)O[C@H]2C)C[C@H](O)[C@@H]1O
REMARK SMILES IDX 6 1 7 2 8 3 9 4 45 5 46 6 47 7 5 8 4 9 2 10 3 11 51 12 49 13
REMARK SMILES IDX 48 14 1 15 52 16 50 18 10 20 11 21 12 22 43 23 13 24 41 25
REMARK SMILES IDX 40 26 42 27 44 28 14 30 15 31 19 32 16 33 18 34 17 35 21 36
REMARK SMILES IDX 25 37 23 38 22 39 26 40 24 41 39 42 27 43 38 44 29 45 36 46
REMARK SMILES IDX 31 47 30 48 35 49 32 50 33 51 20 52 28 54 37 56 34 58
REMARK H PARENT 52 17 50 19 44 29 20 53 28 55 37 57 34 59
ROOT
ATOM      1  C   UNL     1      22.330  62.258  37.637  1.00  0.00     0.150 C 
ATOM      2  C   UNL     1      23.730  62.909  37.611  1.00  0.00     0.040 C 
ATOM      3  C   UNL     1      24.661  62.124  38.526  1.00  0.00     0.065 C 
ATOM      4  C   UNL     1      24.119  62.250  39.989  1.00  0.00     0.250 C 
ATOM      5  O   UNL     1      22.689  62.341  40.068  1.00  0.00    -0.347 OA
ATOM      6  C   UNL     1      22.063  61.610  39.033  1.00  0.00     0.147 C 
ATOM      7  C   UNL     1      20.576  61.425  39.330  1.00  0.00     0.041 C 
ENDROOT
BRANCH   1   8
ATOM      8  O   UNL     1      21.358  63.244  37.288  1.00  0.00    -0.347 OA
BRANCH   8   9
ATOM      9  C   UNL     1      20.979  63.184  35.913  1.00  0.00     0.253 C 
ATOM     10  C   UNL     1      19.630  64.526  34.463  1.00  0.00     0.149 C 
ATOM     11  O   UNL     1      20.578  64.507  35.519  1.00  0.00    -0.347 OA
ATOM     12  C   UNL     1      18.291  63.844  34.898  1.00  0.00     0.172 C 
ATOM     13  C   UNL     1      18.518  62.783  36.007  1.00  0.00     0.150 C 
ATOM     14  C   UNL     1      19.861  62.103  35.774  1.00  0.00     0.096 C 
ATOM     15  C   UNL     1      20.266  64.012  33.148  1.00  0.00     0.041 C 
BRANCH  12  16
ATOM     16  O   UNL     1      17.590  63.343  33.783  1.00  0.00    -0.388 OA
ATOM     17  H   UNL     1      17.197  64.114  33.295  1.00  0.00     0.211 HD
ENDBRANCH  12  16
BRANCH  13  18
ATOM     18  O   UNL     1      17.440  61.885  36.105  1.00  0.00    -0.390 OA
ATOM     19  H   UNL     1      16.762  62.143  35.428  1.00  0.00     0.211 HD
ENDBRANCH  13  18
ENDBRANCH   8   9
ENDBRANCH   1   8
BRANCH   4  20
ATOM     20  O   UNL     1      24.572  61.170  40.804  1.00  0.00    -0.347 OA
BRANCH  20  21
ATOM     21  C   UNL     1      25.848  60.657  40.420  1.00  0.00     0.155 C 
ATOM     22  C   UNL     1      26.827  60.797  41.603  1.00  0.00     0.072 C 
ATOM     23  C   UNL     1      25.742  59.162  40.065  1.00  0.00     0.172 C 
ATOM     24  C   UNL     1      26.417  59.876  42.794  1.00  0.00     0.155 C 
ATOM     25  C   UNL     1      25.324  58.375  41.330  1.00  0.00     0.147 C 
ATOM     26  O   UNL     1      26.290  58.532  42.351  1.00  0.00    -0.368 OA
ATOM     27  C   UNL     1      25.192  56.882  41.019  1.00  0.00     0.041 C 
BRANCH  23  28
ATOM     28  O   UNL     1      26.956  58.693  39.516  1.00  0.00    -0.388 OA
ATOM     29  H   UNL     1      26.771  58.223  38.662  1.00  0.00     0.211 HD
ENDBRANCH  23  28
BRANCH  24  30
ATOM     30  C   UNL     1      27.462  59.964  43.925  1.00  0.00     0.023 A 
ATOM     31  C   UNL     1      28.759  60.380  43.585  1.00  0.00     0.011 A 
ATOM     32  C   UNL     1      27.184  59.654  45.294  1.00  0.00     0.133 A 
ATOM     33  C   UNL     1      29.763  60.463  44.539  1.00  0.00     0.013 A 
ATOM     34  C   UNL     1      28.220  59.754  46.285  1.00  0.00     0.076 A 
ATOM     35  C   UNL     1      29.514  60.148  45.883  1.00  0.00     0.037 A 
ATOM     36  C   UNL     1      28.017  59.488  47.750  1.00  0.00     0.198 C 
ATOM     37  C   UNL     1      30.618  60.255  46.876  1.00  0.00     0.194 C 
ATOM     38  C   UNL     1      29.138  59.616  48.727  1.00  0.00     0.033 C 
ATOM     39  O   UNL     1      26.920  59.190  48.189  1.00  0.00    -0.288 OA
ATOM     40  O   UNL     1      31.705  60.675  46.505  1.00  0.00    -0.289 OA
ATOM     41  C   UNL     1      30.400  59.929  48.322  1.00  0.00     0.054 C 
ATOM     42  C   UNL     1      28.813  59.526  50.182  1.00  0.00     0.011 C 
ATOM     43  C   UNL     1      31.512  60.159  49.380  1.00  0.00     0.185 C 
ATOM     44  C   UNL     1      29.762  59.530  51.116  1.00  0.00     0.012 C 
ATOM     45  C   UNL     1      32.914  59.613  49.008  1.00  0.00     0.175 C 
ATOM     46  C   UNL     1      31.203  59.398  50.708  1.00  0.00     0.126 C 
ATOM     47  C   UNL     1      33.980  59.414  50.078  1.00  0.00     0.114 C 
ATOM     48  O   UNL     1      33.108  59.081  47.926  1.00  0.00    -0.296 OA
ATOM     49  C   UNL     1      32.158  59.886  51.849  1.00  0.00     0.079 C 
ATOM     50  C   UNL     1      33.662  60.100  51.431  1.00  0.00     0.072 C 
ATOM     51  C   UNL     1      34.043  61.602  51.327  1.00  0.00     0.042 C 
BRANCH  32  52
ATOM     52  O   UNL     1      25.922  59.275  45.609  1.00  0.00    -0.507 OA
ATOM     53  H   UNL     1      25.095  59.545  45.207  1.00  0.00     0.293 HD
ENDBRANCH  32  52
BRANCH  43  54
ATOM     54  O   UNL     1      31.541  61.540  49.626  1.00  0.00    -0.374 OA
ATOM     55  H   UNL     1      31.040  61.984  48.891  1.00  0.00     0.212 HD
ENDBRANCH  43  54
BRANCH  46  56
ATOM     56  O   UNL     1      31.410  58.015  50.470  1.00  0.00    -0.382 OA
ATOM     57  H   UNL     1      30.549  57.537  50.604  1.00  0.00     0.212 HD
ENDBRANCH  46  56
BRANCH  50  58
ATOM     58  O   UNL     1      34.501  59.534  52.412  1.00  0.00    -0.390 OA
ATOM     59  H   UNL     1      34.151  58.628  52.629  1.00  0.00     0.211 HD
ENDBRANCH  50  58
ENDBRANCH  24  30
ENDBRANCH  20  21
ENDBRANCH   4  20
TORSDOF 12
ENDMDL
MODEL 7
REMARK VINA RESULT:   -12.190      3.815      4.993
REMARK INTER + INTRA:         -19.325
REMARK INTER:                 -19.155
REMARK INTRA:                  -0.170
REMARK UNBOUND:                -1.078
REMARK SMILES C[C@@H]1O[C@@H](O[C@H]2CC[C@H](O[C@H]3C[C@H](c4ccc5c(c4O)C(=O)C4=C(C5=O)[C@]5(O)C(=O)C[C@](C)(O)C[C@@]5(O)C=C4)O[C@H](C)[C@@H]3O)O[C@H]2C)C[C@H](O)[C@@H]1O
REMARK SMILES IDX 6 1 7 2 8 3 9 4 45 5 46 6 47 7 5 8 4 9 2 10 3 11 51 12 49 13
REMARK SMILES IDX 48 14 1 15 52 16 50 18 10 20 11 21 12 22 43 23 13 24 41 25
REMARK SMILES IDX 40 26 42 27 44 28 14 30 15 31 19 32 16 33 18 34 17 35 21 36
REMARK SMILES IDX 25 37 23 38 22 39 26 40 24 41 39 42 27 43 38 44 29 45 36 46
REMARK SMILES IDX 31 47 30 48 35 49 32 50 33 51 20 52 28 54 37 56 34 58
REMARK H PARENT 52 17 50 19 44 29 20 53 28 55 37 57 34 59
ROOT
ATOM      1  C   UNL     1      28.380  54.769  45.058  1.00  0.00     0.150 C 
ATOM      2  C   UNL     1      28.517  54.493  43.544  1.00  0.00     0.040 C 
ATOM      3  C   UNL     1      28.231  55.778  42.777  1.00  0.00     0.065 C 
ATOM      4  C   UNL     1      26.742  56.178  43.042  1.00  0.00     0.250 C 
ATOM      5  O   UNL     1      26.273  55.819  44.350  1.00  0.00    -0.347 OA
ATOM      6  C   UNL     1      27.309  55.878  45.309  1.00  0.00     0.147 C 
ATOM      7  C   UNL     1      26.734  55.842  46.724  1.00  0.00     0.041 C 
ENDROOT
BRANCH   1   8
ATOM      8  O   UNL     1      28.074  53.542  45.722  1.00  0.00    -0.347 OA
BRANCH   8   9
ATOM      9  C   UNL     1      29.229  52.911  46.276  1.00  0.00     0.253 C 
ATOM     10  C   UNL     1      30.297  50.787  46.009  1.00  0.00     0.149 C 
ATOM     11  O   UNL     1      29.620  51.862  45.376  1.00  0.00    -0.347 OA
ATOM     12  C   UNL     1      29.365  50.066  47.039  1.00  0.00     0.172 C 
ATOM     13  C   UNL     1      28.277  51.021  47.598  1.00  0.00     0.150 C 
ATOM     14  C   UNL     1      28.861  52.424  47.714  1.00  0.00     0.096 C 
ATOM     15  C   UNL     1      31.679  51.246  46.537  1.00  0.00     0.041 C 
BRANCH  12  16
ATOM     16  O   UNL     1      30.117  49.428  48.045  1.00  0.00    -0.388 OA
ATOM     17  H   UNL     1      31.015  49.221  47.673  1.00  0.00     0.211 HD
ENDBRANCH  12  16
BRANCH  13  18
ATOM     18  O   UNL     1      27.723  50.541  48.799  1.00  0.00    -0.390 OA
ATOM     19  H   UNL     1      27.860  51.230  49.499  1.00  0.00     0.211 HD
ENDBRANCH  13  18
ENDBRANCH   8   9
ENDBRANCH   1   8
BRANCH   4  20
ATOM     20  O   UNL     1      26.534  57.574  42.828  1.00  0.00    -0.347 OA
BRANCH  20  21
ATOM     21  C   UNL     1      27.180  58.078  41.660  1.00  0.00     0.155 C 
ATOM     22  C   UNL     1      26.115  58.628  40.691  1.00  0.00     0.072 C 
ATOM     23  C   UNL     1      28.132  59.232  42.026  1.00  0.00     0.172 C 
ATOM     24  C   UNL     1      25.407  59.889  41.278  1.00  0.00     0.155 C 
ATOM     25  C   UNL     1      27.299  60.405  42.599  1.00  0.00     0.147 C 
ATOM     26  O   UNL     1      26.373  60.869  41.637  1.00  0.00    -0.368 OA
ATOM     27  C   UNL     1      28.209  61.572  42.991  1.00  0.00     0.041 C 
BRANCH  23  28
ATOM     28  O   UNL     1      28.904  59.616  40.908  1.00  0.00    -0.388 OA
ATOM     29  H   UNL     1      29.867  59.576  41.143  1.00  0.00     0.211 HD
ENDBRANCH  23  28
BRANCH  24  30
ATOM     30  C   UNL     1      24.415  60.475  40.252  1.00  0.00     0.023 A 
ATOM     31  C   UNL     1      23.359  61.260  40.740  1.00  0.00     0.011 A 
ATOM     32  C   UNL     1      24.513  60.269  38.840  1.00  0.00     0.133 A 
ATOM     33  C   UNL     1      22.410  61.804  39.886  1.00  0.00     0.013 A 
ATOM     34  C   UNL     1      23.539  60.844  37.954  1.00  0.00     0.076 A 
ATOM     35  C   UNL     1      22.480  61.600  38.501  1.00  0.00     0.037 A 
ATOM     36  C   UNL     1      23.579  60.718  36.457  1.00  0.00     0.198 C 
ATOM     37  C   UNL     1      21.445  62.206  37.619  1.00  0.00     0.194 C 
ATOM     38  C   UNL     1      22.536  61.347  35.595  1.00  0.00     0.033 C 
ATOM     39  O   UNL     1      24.485  60.123  35.901  1.00  0.00    -0.288 OA
ATOM     40  O   UNL     1      20.588  62.918  38.121  1.00  0.00    -0.289 OA
ATOM     41  C   UNL     1      21.478  62.015  36.133  1.00  0.00     0.054 C 
ATOM     42  C   UNL     1      22.752  61.340  34.117  1.00  0.00     0.011 C 
ATOM     43  C   UNL     1      20.475  62.746  35.201  1.00  0.00     0.185 C 
ATOM     44  C   UNL     1      21.827  61.790  33.269  1.00  0.00     0.012 C 
ATOM     45  C   UNL     1      18.988  62.667  35.625  1.00  0.00     0.175 C 
ATOM     46  C   UNL     1      20.448  62.104  33.777  1.00  0.00     0.126 C 
ATOM     47  C   UNL     1      17.878  62.985  34.630  1.00  0.00     0.114 C 
ATOM     48  O   UNL     1      18.663  62.097  36.655  1.00  0.00    -0.296 OA
ATOM     49  C   UNL     1      19.678  63.033  32.778  1.00  0.00     0.079 C 
ATOM     50  C   UNL     1      18.361  63.691  33.338  1.00  0.00     0.072 C 
ATOM     51  C   UNL     1      18.532  65.206  33.635  1.00  0.00     0.042 C 
BRANCH  32  52
ATOM     52  O   UNL     1      25.551  59.528  38.384  1.00  0.00    -0.507 OA
ATOM     53  H   UNL     1      25.665  59.116  37.526  1.00  0.00     0.293 HD
ENDBRANCH  32  52
BRANCH  43  54
ATOM     54  O   UNL     1      20.920  64.073  35.109  1.00  0.00    -0.374 OA
ATOM     55  H   UNL     1      21.712  64.082  34.508  1.00  0.00     0.212 HD
ENDBRANCH  43  54
BRANCH  46  56
ATOM     56  O   UNL     1      19.782  60.857  33.880  1.00  0.00    -0.382 OA
ATOM     57  H   UNL     1      20.353  60.234  34.403  1.00  0.00     0.212 HD
ENDBRANCH  46  56
BRANCH  50  58
ATOM     58  O   UNL     1      17.340  63.577  32.374  1.00  0.00    -0.390 OA
ATOM     59  H   UNL     1      16.499  63.928  32.775  1.00  0.00     0.211 HD
ENDBRANCH  50  58
ENDBRANCH  24  30
ENDBRANCH  20  21
ENDBRANCH   4  20
TORSDOF 12
ENDMDL
MODEL 8
REMARK VINA RESULT:   -12.040      3.714     15.346
REMARK INTER + INTRA:         -19.101
REMARK INTER:                 -17.924
REMARK INTRA:                  -1.177
REMARK UNBOUND:                -1.078
REMARK SMILES C[C@@H]1O[C@@H](O[C@H]2CC[C@H](O[C@H]3C[C@H](c4ccc5c(c4O)C(=O)C4=C(C5=O)[C@]5(O)C(=O)C[C@](C)(O)C[C@@]5(O)C=C4)O[C@H](C)[C@@H]3O)O[C@H]2C)C[C@H](O)[C@@H]1O
REMARK SMILES IDX 6 1 7 2 8 3 9 4 45 5 46 6 47 7 5 8 4 9 2 10 3 11 51 12 49 13
REMARK SMILES IDX 48 14 1 15 52 16 50 18 10 20 11 21 12 22 43 23 13 24 41 25
REMARK SMILES IDX 40 26 42 27 44 28 14 30 15 31 19 32 16 33 18 34 17 35 21 36
REMARK SMILES IDX 25 37 23 38 22 39 26 40 24 41 39 42 27 43 38 44 29 45 36 46
REMARK SMILES IDX 31 47 30 48 35 49 32 50 33 51 20 52 28 54 37 56 34 58
REMARK H PARENT 52 17 50 19 44 29 20 53 28 55 37 57 34 59
ROOT
ATOM      1  C   UNL     1      23.147  61.844  37.770  1.00  0.00     0.150 C 
ATOM      2  C   UNL     1      22.973  62.179  39.268  1.00  0.00     0.040 C 
ATOM      3  C   UNL     1      24.301  61.965  39.982  1.00  0.00     0.065 C 
ATOM      4  C   UNL     1      24.662  60.445  39.887  1.00  0.00     0.250 C 
ATOM      5  O   UNL     1      24.211  59.821  38.676  1.00  0.00    -0.347 OA
ATOM      6  C   UNL     1      24.222  60.724  37.590  1.00  0.00     0.147 C 
ATOM      7  C   UNL     1      24.086  59.974  36.266  1.00  0.00     0.041 C 
ENDROOT
BRANCH   1   8
ATOM      8  O   UNL     1      21.876  61.483  37.229  1.00  0.00    -0.347 OA
BRANCH   8   9
ATOM      9  C   UNL     1      21.264  62.547  36.500  1.00  0.00     0.253 C 
ATOM     10  C   UNL     1      19.274  62.787  35.194  1.00  0.00     0.149 C 
ATOM     11  O   UNL     1      19.872  62.222  36.350  1.00  0.00    -0.347 OA
ATOM     12  C   UNL     1      19.930  62.223  33.890  1.00  0.00     0.172 C 
ATOM     13  C   UNL     1      21.396  61.775  34.131  1.00  0.00     0.150 C 
ATOM     14  C   UNL     1      22.037  62.706  35.152  1.00  0.00     0.096 C 
ATOM     15  C   UNL     1      19.200  64.329  35.314  1.00  0.00     0.041 C 
BRANCH  12  16
ATOM     16  O   UNL     1      19.792  63.128  32.819  1.00  0.00    -0.388 OA
ATOM     17  H   UNL     1      20.547  62.977  32.191  1.00  0.00     0.211 HD
ENDBRANCH  12  16
BRANCH  13  18
ATOM     18  O   UNL     1      22.119  61.675  32.928  1.00  0.00    -0.390 OA
ATOM     19  H   UNL     1      22.498  62.568  32.720  1.00  0.00     0.211 HD
ENDBRANCH  13  18
ENDBRANCH   8   9
ENDBRANCH   1   8
BRANCH   4  20
ATOM     20  O   UNL     1      26.065  60.235  40.038  1.00  0.00    -0.347 OA
BRANCH  20  21
ATOM     21  C   UNL     1      26.409  58.900  40.410  1.00  0.00     0.155 C 
ATOM     22  C   UNL     1      27.799  58.903  41.076  1.00  0.00     0.072 C 
ATOM     23  C   UNL     1      25.394  58.347  41.429  1.00  0.00     0.172 C 
ATOM     24  C   UNL     1      27.775  59.658  42.442  1.00  0.00     0.155 C 
ATOM     25  C   UNL     1      25.475  59.190  42.724  1.00  0.00     0.147 C 
ATOM     26  O   UNL     1      26.770  59.111  43.285  1.00  0.00    -0.368 OA
ATOM     27  C   UNL     1      24.470  58.683  43.762  1.00  0.00     0.041 C 
BRANCH  23  28
ATOM     28  O   UNL     1      25.624  56.974  41.665  1.00  0.00    -0.388 OA
ATOM     29  H   UNL     1      25.479  56.776  42.626  1.00  0.00     0.211 HD
ENDBRANCH  23  28
BRANCH  24  30
ATOM     30  C   UNL     1      29.152  59.566  43.131  1.00  0.00     0.023 A 
ATOM     31  C   UNL     1      30.207  58.987  42.408  1.00  0.00     0.011 A 
ATOM     32  C   UNL     1      29.415  60.039  44.455  1.00  0.00     0.133 A 
ATOM     33  C   UNL     1      31.470  58.845  42.964  1.00  0.00     0.013 A 
ATOM     34  C   UNL     1      30.727  59.905  45.026  1.00  0.00     0.076 A 
ATOM     35  C   UNL     1      31.743  59.288  44.265  1.00  0.00     0.037 A 
ATOM     36  C   UNL     1      31.111  60.406  46.390  1.00  0.00     0.198 C 
ATOM     37  C   UNL     1      33.114  59.121  44.822  1.00  0.00     0.194 C 
ATOM     38  C   UNL     1      32.496  60.239  46.919  1.00  0.00     0.033 C 
ATOM     39  O   UNL     1      30.307  60.993  47.093  1.00  0.00    -0.288 OA
ATOM     40  O   UNL     1      33.987  58.654  44.107  1.00  0.00    -0.289 OA
ATOM     41  C   UNL     1      33.453  59.579  46.208  1.00  0.00     0.054 C 
ATOM     42  C   UNL     1      32.847  60.931  48.195  1.00  0.00     0.011 C 
ATOM     43  C   UNL     1      34.907  59.522  46.746  1.00  0.00     0.185 C 
ATOM     44  C   UNL     1      34.026  60.756  48.789  1.00  0.00     0.012 C 
ATOM     45  C   UNL     1      35.649  58.179  46.529  1.00  0.00     0.175 C 
ATOM     46  C   UNL     1      34.947  59.674  48.301  1.00  0.00     0.126 C 
ATOM     47  C   UNL     1      36.902  57.845  47.329  1.00  0.00     0.114 C 
ATOM     48  O   UNL     1      35.111  57.261  45.929  1.00  0.00    -0.296 OA
ATOM     49  C   UNL     1      36.416  59.924  48.783  1.00  0.00     0.079 C 
ATOM     50  C   UNL     1      37.522  59.051  48.079  1.00  0.00     0.072 C 
ATOM     51  C   UNL     1      38.378  59.871  47.075  1.00  0.00     0.042 C 
BRANCH  32  52
ATOM     52  O   UNL     1      28.392  60.615  45.131  1.00  0.00    -0.507 OA
ATOM     53  H   UNL     1      28.270  61.536  45.368  1.00  0.00     0.293 HD
ENDBRANCH  32  52
BRANCH  43  54
ATOM     54  O   UNL     1      35.589  60.594  46.152  1.00  0.00    -0.374 OA
ATOM     55  H   UNL     1      36.041  60.246  45.338  1.00  0.00     0.212 HD
ENDBRANCH  43  54
BRANCH  46  56
ATOM     56  O   UNL     1      34.458  58.468  48.863  1.00  0.00    -0.382 OA
ATOM     57  H   UNL     1      33.864  58.692  49.628  1.00  0.00     0.212 HD
ENDBRANCH  46  56
BRANCH  50  58
ATOM     58  O   UNL     1      38.406  58.548  49.053  1.00  0.00    -0.390 OA
ATOM     59  H   UNL     1      37.864  58.103  49.759  1.00  0.00     0.211 HD
ENDBRANCH  50  58
ENDBRANCH  24  30
ENDBRANCH  20  21
ENDBRANCH   4  20
TORSDOF 12
ENDMDL
MODEL 9
REMARK VINA RESULT:   -11.994      5.034     15.113
REMARK INTER + INTRA:         -19.032
REMARK INTER:                 -17.984
REMARK INTRA:                  -1.048
REMARK UNBOUND:                -1.078
REMARK SMILES C[C@@H]1O[C@@H](O[C@H]2CC[C@H](O[C@H]3C[C@H](c4ccc5c(c4O)C(=O)C4=C(C5=O)[C@]5(O)C(=O)C[C@](C)(O)C[C@@]5(O)C=C4)O[C@H](C)[C@@H]3O)O[C@H]2C)C[C@H](O)[C@@H]1O
REMARK SMILES IDX 6 1 7 2 8 3 9 4 45 5 46 6 47 7 5 8 4 9 2 10 3 11 51 12 49 13
REMARK SMILES IDX 48 14 1 15 52 16 50 18 10 20 11 21 12 22 43 23 13 24 41 25
REMARK SMILES IDX 40 26 42 27 44 28 14 30 15 31 19 32 16 33 18 34 17 35 21 36
REMARK SMILES IDX 25 37 23 38 22 39 26 40 24 41 39 42 27 43 38 44 29 45 36 46
REMARK SMILES IDX 31 47 30 48 35 49 32 50 33 51 20 52 28 54 37 56 34 58
REMARK H PARENT 52 17 50 19 44 29 20 53 28 55 37 57 34 59
ROOT
ATOM      1  C   UNL     1      22.594  61.336  37.983  1.00  0.00     0.150 C 
ATOM      2  C   UNL     1      21.984  60.281  38.932  1.00  0.00     0.040 C 
ATOM      3  C   UNL     1      22.955  60.023  40.078  1.00  0.00     0.065 C 
ATOM      4  C   UNL     1      24.260  59.406  39.476  1.00  0.00     0.250 C 
ATOM      5  O   UNL     1      24.571  59.885  38.159  1.00  0.00    -0.347 OA
ATOM      6  C   UNL     1      24.153  61.223  37.981  1.00  0.00     0.147 C 
ATOM      7  C   UNL     1      24.793  61.824  36.731  1.00  0.00     0.041 C 
ENDROOT
BRANCH   1   8
ATOM      8  O   UNL     1      22.025  61.170  36.684  1.00  0.00    -0.347 OA
BRANCH   8   9
ATOM      9  C   UNL     1      21.173  62.254  36.311  1.00  0.00     0.253 C 
ATOM     10  C   UNL     1      19.005  62.446  35.320  1.00  0.00     0.149 C 
ATOM     11  O   UNL     1      19.834  61.739  36.230  1.00  0.00    -0.347 OA
ATOM     12  C   UNL     1      19.542  62.318  33.856  1.00  0.00     0.172 C 
ATOM     13  C   UNL     1      21.075  62.083  33.824  1.00  0.00     0.150 C 
ATOM     14  C   UNL     1      21.718  62.848  34.974  1.00  0.00     0.096 C 
ATOM     15  C   UNL     1      18.733  63.883  35.829  1.00  0.00     0.041 C 
BRANCH  12  16
ATOM     16  O   UNL     1      19.129  63.409  33.065  1.00  0.00    -0.388 OA
ATOM     17  H   UNL     1      19.664  63.402  32.229  1.00  0.00     0.211 HD
ENDBRANCH  12  16
BRANCH  13  18
ATOM     18  O   UNL     1      21.627  62.387  32.566  1.00  0.00    -0.390 OA
ATOM     19  H   UNL     1      21.682  61.547  32.042  1.00  0.00     0.211 HD
ENDBRANCH  13  18
ENDBRANCH   8   9
ENDBRANCH   1   8
BRANCH   4  20
ATOM     20  O   UNL     1      25.379  59.618  40.337  1.00  0.00    -0.347 OA
BRANCH  20  21
ATOM     21  C   UNL     1      25.065  59.502  41.724  1.00  0.00     0.155 C 
ATOM     22  C   UNL     1      25.688  58.205  42.277  1.00  0.00     0.072 C 
ATOM     23  C   UNL     1      25.657  60.687  42.511  1.00  0.00     0.172 C 
ATOM     24  C   UNL     1      27.248  58.273  42.269  1.00  0.00     0.155 C 
ATOM     25  C   UNL     1      27.201  60.633  42.412  1.00  0.00     0.147 C 
ATOM     26  O   UNL     1      27.690  59.429  42.968  1.00  0.00    -0.368 OA
ATOM     27  C   UNL     1      27.833  61.804  43.169  1.00  0.00     0.041 C 
BRANCH  23  28
ATOM     28  O   UNL     1      25.203  60.674  43.848  1.00  0.00    -0.388 OA
ATOM     29  H   UNL     1      25.265  61.589  44.226  1.00  0.00     0.211 HD
ENDBRANCH  23  28
BRANCH  24  30
ATOM     30  C   UNL     1      27.844  57.005  42.912  1.00  0.00     0.023 A 
ATOM     31  C   UNL     1      28.788  56.278  42.170  1.00  0.00     0.011 A 
ATOM     32  C   UNL     1      27.496  56.532  44.217  1.00  0.00     0.133 A 
ATOM     33  C   UNL     1      29.354  55.112  42.667  1.00  0.00     0.013 A 
ATOM     34  C   UNL     1      28.093  55.333  44.738  1.00  0.00     0.076 A 
ATOM     35  C   UNL     1      29.014  54.626  43.937  1.00  0.00     0.037 A 
ATOM     36  C   UNL     1      27.822  54.781  46.109  1.00  0.00     0.198 C 
ATOM     37  C   UNL     1      29.648  53.374  44.435  1.00  0.00     0.194 C 
ATOM     38  C   UNL     1      28.482  53.532  46.589  1.00  0.00     0.033 C 
ATOM     39  O   UNL     1      27.077  55.356  46.883  1.00  0.00    -0.288 OA
ATOM     40  O   UNL     1      30.499  52.831  43.745  1.00  0.00    -0.289 OA
ATOM     41  C   UNL     1      29.316  52.815  45.785  1.00  0.00     0.054 C 
ATOM     42  C   UNL     1      28.311  53.156  48.025  1.00  0.00     0.011 C 
ATOM     43  C   UNL     1      30.066  51.583  46.358  1.00  0.00     0.185 C 
ATOM     44  C   UNL     1      28.782  52.009  48.512  1.00  0.00     0.012 C 
ATOM     45  C   UNL     1      30.199  50.375  45.397  1.00  0.00     0.175 C 
ATOM     46  C   UNL     1      29.300  50.961  47.568  1.00  0.00     0.126 C 
ATOM     47  C   UNL     1      30.547  48.991  45.933  1.00  0.00     0.114 C 
ATOM     48  O   UNL     1      29.770  50.436  44.255  1.00  0.00    -0.296 OA
ATOM     49  C   UNL     1      30.212  49.931  48.316  1.00  0.00     0.079 C 
ATOM     50  C   UNL     1      31.067  48.983  47.393  1.00  0.00     0.072 C 
ATOM     51  C   UNL     1      32.574  49.362  47.384  1.00  0.00     0.042 C 
BRANCH  32  52
ATOM     52  O   UNL     1      26.600  57.257  44.929  1.00  0.00    -0.507 OA
ATOM     53  H   UNL     1      26.683  58.149  45.271  1.00  0.00     0.293 HD
ENDBRANCH  32  52
BRANCH  43  54
ATOM     54  O   UNL     1      31.319  52.049  46.784  1.00  0.00    -0.374 OA
ATOM     55  H   UNL     1      31.789  51.287  47.215  1.00  0.00     0.212 HD
ENDBRANCH  43  54
BRANCH  46  56
ATOM     56  O   UNL     1      28.153  50.301  47.058  1.00  0.00    -0.382 OA
ATOM     57  H   UNL     1      28.308  49.320  47.096  1.00  0.00     0.212 HD
ENDBRANCH  46  56
BRANCH  50  58
ATOM     58  O   UNL     1      30.982  47.663  47.877  1.00  0.00    -0.390 OA
ATOM     59  H   UNL     1      30.109  47.564  48.345  1.00  0.00     0.211 HD
ENDBRANCH  50  58
ENDBRANCH  24  30
ENDBRANCH  20  21
ENDBRANCH   4  20
TORSDOF 12
ENDMDL
