REMARK  Name = 
REMARK  11 active torsions:
REMARK  status: ('A' for Active; 'I' for Inactive)
REMARK    1  A    between atoms: C_1  and  C_2
REMARK    2  A    between atoms: C_12  and  O_13
REMARK    3  A    between atoms: O_13  and  C_14
REMARK    4  A    between atoms: C_16  and  C_17
REMARK    5  A    between atoms: C_17  and  O_18
REMARK    6  A    between atoms: C_19  and  O_20
REMARK    7  A    between atoms: C_21  and  O_22
REMARK    8  A    between atoms: C_23  and  O_24
REMARK    9  A    between atoms: C_27  and  C_28
REMARK   10  A    between atoms: C_36  and  C_37
REMARK   11  A    between atoms: C_41  and  C_42
REMARK                            x       y       z     vdW  Elec       q    Type
REMARK                         _______ _______ _______ _____ _____    ______ ____
ROOT
ATOM      1  C   UNL     1      20.825  60.545  39.069  0.00  0.00    +0.000 C 
ATOM      2  C   UNL     1      21.786  61.326  38.191  0.00  0.00    +0.000 C 
ATOM      3  C   UNL     1      21.361  61.978  37.063  0.00  0.00    +0.000 C 
ATOM      4  C   UNL     1      19.997  62.164  36.493  0.00  0.00    +0.000 C 
ATOM      5  O   UNL     1      18.952  61.924  37.070  0.00  0.00    +0.000 OA
ATOM      6  C   UNL     1      20.103  63.008  35.247  0.00  0.00    +0.000 C 
ATOM      7  C   UNL     1      21.540  62.708  34.822  0.00  0.00    +0.000 C 
ATOM      8  C   UNL     1      22.031  63.693  33.758  0.00  0.00    +0.000 C 
ATOM      9  C   UNL     1      20.957  64.011  32.735  0.00  0.00    +0.000 C 
ATOM     10  C   UNL     1      19.660  63.618  32.854  0.00  0.00    +0.000 C 
ATOM     11  C   UNL     1      18.631  64.146  31.894  0.00  0.00    +0.000 C 
ATOM     12  C   UNL     1      17.634  65.075  32.649  0.00  0.00    +0.000 C 
ATOM     13  C   UNL     1      17.520  64.747  34.166  0.00  0.00    +0.000 C 
ATOM     14  C   UNL     1      17.669  63.240  34.395  0.00  0.00    +0.000 C 
ATOM     15  C   UNL     1      19.130  62.777  34.040  0.00  0.00    +0.000 C 
ATOM     16  C   UNL     1      19.046  61.287  33.623  0.00  0.00    +0.000 C 
ATOM     17  C   UNL     1      22.302  62.692  36.142  0.00  0.00    +0.000 C 
ATOM     18  C   UNL     1      23.679  62.033  36.125  0.00  0.00    +0.000 C 
ATOM     19  C   UNL     1      24.180  62.139  37.560  0.00  0.00    +0.000 C 
ATOM     20  C   UNL     1      23.300  61.311  38.566  0.00  0.00    +0.000 C 
ATOM     21  O   UNL     1      23.757  59.956  38.487  0.00  0.00    +0.000 OA
ATOM     22  C   UNL     1      24.558  59.770  39.632  0.00  0.00    +0.000 C 
ATOM     23  C   UNL     1      24.789  58.309  40.026  0.00  0.00    +0.000 C 
ATOM     24  C   UNL     1      25.616  58.306  41.336  0.00  0.00    +0.000 C 
ATOM     25  C   UNL     1      25.913  56.882  41.808  0.00  0.00    +0.000 C 
ATOM     26  C   UNL     1      24.867  59.108  42.436  0.00  0.00    +0.000 C 
ATOM     27  N   UNL     1      24.581  60.487  41.999  0.00  0.00    +0.000 NA
ATOM     28  C   UNL     1      23.811  60.463  40.739  0.00  0.00    +0.000 C 
ATOM     29  C   UNL     1      23.511  61.792  40.070  0.00  0.00    +0.000 C 
ATOM     30  C   UNL     1      24.621  62.847  40.306  0.00  0.00    +0.000 C 
ATOM     31  H   UNL     1      25.504  60.960  41.853  0.00  0.00    +0.000 HD
ENDROOT
BRANCH  12  32
ATOM     32  O   UNL     1      16.348  64.930  32.071  0.00  0.00    +0.000 OA
BRANCH  32  33
ATOM     33  C   UNL     1      15.299  65.395  32.906  0.00  0.00    +0.000 C 
ATOM     34  O   UNL     1      15.348  66.825  33.002  0.00  0.00    +0.000 OA
ATOM     35  C   UNL     1      14.453  67.457  32.111  0.00  0.00    +0.000 C 
ATOM     36  C   UNL     1      12.974  67.144  32.495  0.00  0.00    +0.000 C 
ATOM     37  C   UNL     1      12.804  65.663  32.965  0.00  0.00    +0.000 C 
ATOM     38  C   UNL     1      13.942  64.804  32.396  0.00  0.00    +0.000 C 
BRANCH  36  39
ATOM     39  O   UNL     1      12.128  67.446  31.412  0.00  0.00    +0.000 OA
ATOM     40  H   UNL     1      12.689  67.798  30.674  0.00  0.00    +0.000 HD
ENDBRANCH  36  39
BRANCH  37  41
ATOM     41  O   UNL     1      12.796  65.561  34.373  0.00  0.00    +0.000 OA
ATOM     42  H   UNL     1      13.345  66.292  34.758  0.00  0.00    +0.000 HD
ENDBRANCH  37  41
BRANCH  38  43
ATOM     43  O   UNL     1      13.871  64.821  30.990  0.00  0.00    +0.000 OA
ATOM     44  H   UNL     1      14.250  65.688  30.689  0.00  0.00    +0.000 HD
ENDBRANCH  38  43
BRANCH  35  45
ATOM     45  C   UNL     1      14.705  68.970  32.098  0.00  0.00    +0.000 C 
BRANCH  45  46
ATOM     46  O   UNL     1      14.710  69.480  33.404  0.00  0.00    +0.000 OA
ATOM     47  H   UNL     1      15.383  70.209  33.425  0.00  0.00    +0.000 HD
ENDBRANCH  45  46
ENDBRANCH  35  45
ENDBRANCH  32  33
ENDBRANCH  12  32
TORSDOF 7
