REMARK  Name = 
REMARK  18 active torsions:
REMARK  status: ('A' for Active; 'I' for Inactive)
REMARK    1  A    between atoms: C_1  and  C_2
REMARK    2  A    between atoms: C_2  and  O_4
REMARK    3  A    between atoms: O_4  and  C_5
REMARK    4  A    between atoms: C_6  and  O_7
REMARK    5  A    between atoms: C_8  and  O_9
REMARK    6  A    between atoms: O_9  and  C_10
REMARK    7  A    between atoms: C_19  and  C_20
REMARK    8  A    between atoms: C_21  and  C_22
REMARK    9  A    between atoms: C_31  and  O_32
REMARK   10  A    between atoms: C_33  and  C_34
REMARK   11  A    between atoms: C_38  and  C_39
REMARK   12  A    between atoms: C_40  and  O_41
REMARK   13  A    between atoms: O_41  and  C_42
REMARK   14  A    between atoms: C_44  and  C_45
REMARK   15  A    between atoms: C_45  and  O_46
REMARK   16  A    between atoms: C_47  and  O_48
REMARK   17  A    between atoms: C_49  and  O_50
REMARK   18  A    between atoms: C_51  and  O_52
REMARK                            x       y       z     vdW  Elec       q    Type
REMARK                         _______ _______ _______ _____ _____    ______ ____
ROOT
ATOM      1  C   UNL     1      26.828  60.040  43.260  0.00  0.00    +0.000 C 
ATOM      2  C   UNL     1      25.815  60.888  42.463  0.00  0.00    +0.000 C 
ATOM      3  C   UNL     1      25.321  60.162  41.180  0.00  0.00    +0.000 C 
ATOM      4  O   UNL     1      25.357  58.759  41.338  0.00  0.00    +0.000 OA
ATOM      5  C   UNL     1      26.661  58.226  41.583  0.00  0.00    +0.000 C 
ATOM      6  C   UNL     1      27.243  57.641  40.298  0.00  0.00    +0.000 C 
ATOM      7  C   UNL     1      27.655  59.196  42.297  0.00  0.00    +0.000 C 
ENDROOT
BRANCH   2   8
ATOM      8  O   UNL     1      26.322  62.157  42.127  0.00  0.00    +0.000 OA
ATOM      9  H   UNL     1      25.810  62.493  41.346  0.00  0.00    +0.000 HD
ENDBRANCH   2   8
BRANCH   1  10
ATOM     10  O   UNL     1      27.628  60.860  44.040  0.00  0.00    +0.000 OA
BRANCH  10  12
ATOM     11  C   UNL     1      29.000  61.001  46.075  0.00  0.00    +0.000 C 
ATOM     12  C   UNL     1      27.677  60.862  45.397  0.00  0.00    +0.000 C 
ATOM     13  O   UNL     1      26.659  60.759  46.068  0.00  0.00    +0.000 OA
ENDBRANCH  10  12
ENDBRANCH   1  10
BRANCH   3  14
ATOM     14  O   UNL     1      23.968  60.510  41.007  0.00  0.00    +0.000 OA
BRANCH  14  15
ATOM     15  C   UNL     1      23.248  59.815  40.010  0.00  0.00    +0.000 C 
ATOM     16  C   UNL     1      23.876  60.133  38.658  0.00  0.00    +0.000 C 
ATOM     17  C   UNL     1      23.272  60.843  37.676  0.00  0.00    +0.000 C 
ATOM     18  C   UNL     1      24.090  61.216  36.459  0.00  0.00    +0.000 C 
ATOM     19  C   UNL     1      23.239  61.520  35.224  0.00  0.00    +0.000 C 
ATOM     20  C   UNL     1      22.084  62.504  35.531  0.00  0.00    +0.000 C 
ATOM     21  C   UNL     1      21.169  61.837  36.603  0.00  0.00    +0.000 C 
ATOM     22  C   UNL     1      19.920  62.722  36.850  0.00  0.00    +0.000 C 
ATOM     23  C   UNL     1      19.110  62.796  35.576  0.00  0.00    +0.000 C 
ATOM     24  C   UNL     1      19.867  63.502  34.415  0.00  0.00    +0.000 C 
ATOM     25  C   UNL     1      19.869  65.035  34.680  0.00  0.00    +0.000 C 
ATOM     26  C   UNL     1      19.122  63.057  33.098  0.00  0.00    +0.000 C 
ATOM     27  C   UNL     1      20.228  62.737  32.113  0.00  0.00    +0.000 C 
ATOM     28  C   UNL     1      21.199  61.979  33.046  0.00  0.00    +0.000 C 
ATOM     29  C   UNL     1      21.357  62.981  34.205  0.00  0.00    +0.000 C 
ATOM     30  C   UNL     1      21.943  61.536  37.950  0.00  0.00    +0.000 C 
ATOM     31  C   UNL     1      22.279  62.858  38.710  0.00  0.00    +0.000 C 
ATOM     32  C   UNL     1      21.091  60.560  38.831  0.00  0.00    +0.000 C 
ATOM     33  C   UNL     1      21.784  60.287  40.163  0.00  0.00    +0.000 C 
BRANCH  26  34
ATOM     34  C   UNL     1      17.911  63.845  32.623  0.00  0.00    +0.000 A 
ATOM     35  C   UNL     1      17.654  63.945  31.241  0.00  0.00    +0.000 A 
ATOM     36  O   UNL     1      16.602  64.615  30.787  0.00  0.00    +0.000 OA
ATOM     37  C   UNL     1      15.740  65.225  31.594  0.00  0.00    +0.000 A 
ATOM     38  O   UNL     1      14.792  65.822  31.120  0.00  0.00    +0.000 OA
ATOM     39  C   UNL     1      15.925  65.182  32.978  0.00  0.00    +0.000 A 
ATOM     40  C   UNL     1      17.021  64.490  33.497  0.00  0.00    +0.000 A 
ENDBRANCH  26  34
BRANCH  29  41
ATOM     41  O   UNL     1      22.137  64.042  33.673  0.00  0.00    +0.000 OA
ATOM     42  H   UNL     1      23.039  64.028  34.085  0.00  0.00    +0.000 HD
ENDBRANCH  29  41
ENDBRANCH  14  15
ENDBRANCH   3  14
BRANCH   7  43
ATOM     43  O   UNL     1      28.579  58.440  43.064  0.00  0.00    +0.000 OA
BRANCH  43  44
ATOM     44  C   UNL     1      29.927  58.526  42.637  0.00  0.00    +0.000 C 
ATOM     45  O   UNL     1      30.294  57.357  41.903  0.00  0.00    +0.000 OA
ATOM     46  C   UNL     1      30.327  56.154  42.678  0.00  0.00    +0.000 C 
ATOM     47  C   UNL     1      31.231  56.289  43.944  0.00  0.00    +0.000 C 
ATOM     48  C   UNL     1      30.835  57.522  44.776  0.00  0.00    +0.000 C 
ATOM     49  C   UNL     1      30.852  58.767  43.867  0.00  0.00    +0.000 C 
BRANCH  47  50
ATOM     50  O   UNL     1      32.598  56.372  43.600  0.00  0.00    +0.000 OA
ATOM     51  H   UNL     1      32.944  55.473  43.363  0.00  0.00    +0.000 HD
ENDBRANCH  47  50
BRANCH  48  52
ATOM     52  O   UNL     1      29.561  57.330  45.334  0.00  0.00    +0.000 OA
ATOM     53  H   UNL     1      29.232  58.222  45.618  0.00  0.00    +0.000 HD
ENDBRANCH  48  52
BRANCH  49  54
ATOM     54  O   UNL     1      32.185  59.052  43.501  0.00  0.00    +0.000 OA
ATOM     55  H   UNL     1      32.806  58.799  44.233  0.00  0.00    +0.000 HD
ENDBRANCH  49  54
BRANCH  46  56
ATOM     56  C   UNL     1      28.916  55.572  42.937  0.00  0.00    +0.000 C 
BRANCH  56  57
ATOM     57  O   UNL     1      28.570  54.654  41.934  0.00  0.00    +0.000 OA
ATOM     58  H   UNL     1      29.108  53.835  42.096  0.00  0.00    +0.000 HD
ENDBRANCH  56  57
ENDBRANCH  46  56
ENDBRANCH  43  44
ENDBRANCH   7  43
TORSDOF 14
