REMARK  Name = 
REMARK  18 active torsions:
REMARK  status: ('A' for Active; 'I' for Inactive)
REMARK    1  A    between atoms: C_1  and  C_2
REMARK    2  A    between atoms: C_4  and  O_5
REMARK    3  A    between atoms: O_5  and  C_6
REMARK    4  A    between atoms: C_9  and  C_10
REMARK    5  A    between atoms: C_22  and  C_23
REMARK    6  A    between atoms: C_23  and  O_24
REMARK    7  A    between atoms: C_26  and  O_27
REMARK    8  A    between atoms: C_28  and  C_29
REMARK    9  A    between atoms: C_31  and  C_32
REMARK   10  A    between atoms: C_38  and  O_39
REMARK   11  A    between atoms: C_40  and  O_41
REMARK   12  A    between atoms: C_42  and  O_43
REMARK   13  A    between atoms: O_43  and  C_44
REMARK   14  A    between atoms: C_46  and  C_47
REMARK   15  A    between atoms: C_47  and  O_48
REMARK   16  A    between atoms: C_49  and  O_50
REMARK   17  A    between atoms: C_51  and  O_52
REMARK   18  A    between atoms: C_53  and  O_54
REMARK                            x       y       z     vdW  Elec       q    Type
REMARK                         _______ _______ _______ _____ _____    ______ ____
ROOT
ATOM      1  C   UNL     1      25.269  60.016  40.171  0.00  0.00    +0.000 C 
ATOM      2  C   UNL     1      24.439  59.349  41.283  0.00  0.00    +0.000 C 
ATOM      3  C   UNL     1      25.190  59.468  42.609  0.00  0.00    +0.000 C 
ATOM      4  C   UNL     1      26.632  58.863  42.594  0.00  0.00    +0.000 C 
ATOM      5  C   UNL     1      26.562  57.314  42.580  0.00  0.00    +0.000 C 
ATOM      6  C   UNL     1      27.348  59.295  41.304  0.00  0.00    +0.000 C 
ATOM      7  C   UNL     1      28.616  59.762  41.298  0.00  0.00    +0.000 C 
ATOM      8  C   UNL     1      29.483  59.877  42.525  0.00  0.00    +0.000 C 
ATOM      9  C   UNL     1      28.913  59.184  43.784  0.00  0.00    +0.000 C 
ATOM     10  C   UNL     1      29.591  59.796  45.043  0.00  0.00    +0.000 C 
ATOM     11  C   UNL     1      31.103  59.667  45.264  0.00  0.00    +0.000 C 
ATOM     12  C   UNL     1      31.225  60.331  46.648  0.00  0.00    +0.000 C 
ATOM     13  O   UNL     1      32.252  59.855  47.493  0.00  0.00    +0.000 OA
ATOM     14  C   UNL     1      31.746  60.081  48.809  0.00  0.00    +0.000 C 
ATOM     15  O   UNL     1      31.789  61.478  49.119  0.00  0.00    +0.000 OA
ATOM     16  C   UNL     1      33.117  61.981  49.028  0.00  0.00    +0.000 C 
ATOM     17  C   UNL     1      34.046  61.317  50.068  0.00  0.00    +0.000 C 
ATOM     18  C   UNL     1      34.019  59.793  49.853  0.00  0.00    +0.000 C 
ATOM     19  C   UNL     1      32.571  59.285  49.861  0.00  0.00    +0.000 C 
ATOM     20  C   UNL     1      30.284  59.588  48.720  0.00  0.00    +0.000 C 
ATOM     21  C   UNL     1      29.307  59.995  49.832  0.00  0.00    +0.000 C 
ATOM     22  C   UNL     1      29.880  60.133  47.360  0.00  0.00    +0.000 C 
ATOM     23  C   UNL     1      29.021  59.279  46.377  0.00  0.00    +0.000 C 
ATOM     24  C   UNL     1      29.218  57.740  46.581  0.00  0.00    +0.000 C 
ATOM     25  C   UNL     1      27.544  59.571  46.361  0.00  0.00    +0.000 C 
ATOM     26  O   UNL     1      27.019  60.303  47.186  0.00  0.00    +0.000 OA
ATOM     27  C   UNL     1      26.751  58.991  45.218  0.00  0.00    +0.000 C 
ATOM     28  C   UNL     1      27.379  59.443  43.859  0.00  0.00    +0.000 C 
ATOM     29  C   UNL     1      26.572  59.232  39.991  0.00  0.00    +0.000 C 
ENDROOT
BRANCH  19  30
ATOM     30  O   UNL     1      32.029  59.372  51.160  0.00  0.00    +0.000 OA
ATOM     31  H   UNL     1      31.352  58.658  51.274  0.00  0.00    +0.000 HD
ENDBRANCH  19  30
BRANCH   1  32
ATOM     32  O   UNL     1      24.523  60.060  38.960  0.00  0.00    +0.000 OA
BRANCH  32  36
ATOM     33  C   UNL     1      20.305  60.713  38.597  0.00  0.00    +0.000 C 
ATOM     34  C   UNL     1      21.757  60.669  38.115  0.00  0.00    +0.000 C 
ATOM     35  O   UNL     1      22.550  61.325  39.096  0.00  0.00    +0.000 OA
ATOM     36  C   UNL     1      23.936  61.351  38.777  0.00  0.00    +0.000 C 
ATOM     37  C   UNL     1      24.221  61.948  37.374  0.00  0.00    +0.000 C 
ATOM     38  C   UNL     1      23.348  61.324  36.271  0.00  0.00    +0.000 C 
ATOM     39  C   UNL     1      21.890  61.387  36.750  0.00  0.00    +0.000 C 
BRANCH  37  40
ATOM     40  O   UNL     1      25.590  61.924  37.053  0.00  0.00    +0.000 OA
ATOM     41  H   UNL     1      25.957  61.057  37.366  0.00  0.00    +0.000 HD
ENDBRANCH  37  40
BRANCH  38  42
ATOM     42  O   UNL     1      23.735  60.015  35.918  0.00  0.00    +0.000 OA
ATOM     43  H   UNL     1      24.598  60.042  35.438  0.00  0.00    +0.000 HD
ENDBRANCH  38  42
BRANCH  39  44
ATOM     44  O   UNL     1      21.036  60.821  35.758  0.00  0.00    +0.000 OA
BRANCH  44  45
ATOM     45  C   UNL     1      20.779  61.725  34.687  0.00  0.00    +0.000 C 
ATOM     46  O   UNL     1      20.852  63.050  35.232  0.00  0.00    +0.000 OA
ATOM     47  C   UNL     1      20.086  64.015  34.534  0.00  0.00    +0.000 C 
ATOM     48  C   UNL     1      18.555  63.660  34.555  0.00  0.00    +0.000 C 
ATOM     49  C   UNL     1      18.286  62.131  34.723  0.00  0.00    +0.000 C 
ATOM     50  C   UNL     1      19.411  61.374  34.021  0.00  0.00    +0.000 C 
BRANCH  48  51
ATOM     51  O   UNL     1      17.893  64.193  33.433  0.00  0.00    +0.000 OA
ATOM     52  H   UNL     1      18.534  64.202  32.675  0.00  0.00    +0.000 HD
ENDBRANCH  48  51
BRANCH  49  53
ATOM     53  O   UNL     1      18.211  61.747  36.078  0.00  0.00    +0.000 OA
ATOM     54  H   UNL     1      18.757  60.932  36.221  0.00  0.00    +0.000 HD
ENDBRANCH  49  53
BRANCH  50  55
ATOM     55  O   UNL     1      19.196  59.984  33.958  0.00  0.00    +0.000 OA
ATOM     56  H   UNL     1      19.965  59.534  34.393  0.00  0.00    +0.000 HD
ENDBRANCH  50  55
BRANCH  47  57
ATOM     57  C   UNL     1      20.738  64.301  33.157  0.00  0.00    +0.000 C 
BRANCH  57  58
ATOM     58  O   UNL     1      22.131  64.389  33.285  0.00  0.00    +0.000 OA
ATOM     59  H   UNL     1      22.483  64.539  32.369  0.00  0.00    +0.000 HD
ENDBRANCH  57  58
ENDBRANCH  47  57
ENDBRANCH  44  45
ENDBRANCH  39  44
ENDBRANCH  32  36
ENDBRANCH   1  32
BRANCH  17  60
ATOM     60  C   UNL     1      35.489  61.840  49.963  0.00  0.00    +0.000 C 
BRANCH  60  61
ATOM     61  O   UNL     1      35.924  61.840  48.629  0.00  0.00    +0.000 OA
ATOM     62  H   UNL     1      36.366  60.965  48.468  0.00  0.00    +0.000 HD
ENDBRANCH  60  61
ENDBRANCH  17  60
TORSDOF 14
