REMARK  Name = 
REMARK  16 active torsions:
REMARK  status: ('A' for Active; 'I' for Inactive)
REMARK    1  A    between atoms: C_1  and  C_2
REMARK    2  A    between atoms: C_4  and  O_5
REMARK    3  A    between atoms: O_5  and  C_6
REMARK    4  A    between atoms: C_9  and  O_10
REMARK    5  A    between atoms: O_10  and  C_11
REMARK    6  A    between atoms: C_11  and  C_12
REMARK    7  A    between atoms: C_16  and  O_17
REMARK    8  A    between atoms: C_22  and  O_23
REMARK    9  A    between atoms: C_31  and  C_32
REMARK   10  A    between atoms: C_34  and  O_35
REMARK   11  A    between atoms: C_36  and  O_37
REMARK   12  A    between atoms: O_37  and  C_38
REMARK   13  A    between atoms: C_43  and  C_44
REMARK   14  A    between atoms: C_46  and  C_47
REMARK   15  A    between atoms: C_49  and  O_50
REMARK   16  A    between atoms: C_54  and  C_55
REMARK                            x       y       z     vdW  Elec       q    Type
REMARK                         _______ _______ _______ _____ _____    ______ ____
ROOT
ATOM      1  C   UNL     1      18.885  62.950  33.133  0.00  0.00    +0.000 C 
ATOM      2  C   UNL     1      18.807  61.415  33.322  0.00  0.00    +0.000 C 
ATOM      3  C   UNL     1      20.365  63.385  33.141  0.00  0.00    +0.000 C 
ATOM      4  C   UNL     1      20.929  63.066  34.495  0.00  0.00    +0.000 C 
ATOM      5  O   UNL     1      21.855  62.270  34.575  0.00  0.00    +0.000 OA
ATOM      6  C   UNL     1      20.284  63.682  35.751  0.00  0.00    +0.000 C 
ATOM      7  C   UNL     1      20.945  63.006  36.977  0.00  0.00    +0.000 C 
ATOM      8  C   UNL     1      20.359  61.913  37.539  0.00  0.00    +0.000 C 
ATOM      9  C   UNL     1      19.040  61.421  37.073  0.00  0.00    +0.000 C 
ATOM     10  C   UNL     1      18.299  62.105  36.209  0.00  0.00    +0.000 C 
ATOM     11  C   UNL     1      18.714  63.467  35.717  0.00  0.00    +0.000 C 
ATOM     12  C   UNL     1      18.139  63.723  34.279  0.00  0.00    +0.000 C 
ATOM     13  C   UNL     1      21.054  61.115  38.583  0.00  0.00    +0.000 C 
ATOM     14  O   UNL     1      20.478  60.159  39.082  0.00  0.00    +0.000 OA
ATOM     15  C   UNL     1      22.456  61.425  38.966  0.00  0.00    +0.000 A 
ATOM     16  C   UNL     1      23.073  62.553  38.395  0.00  0.00    +0.000 A 
ATOM     17  C   UNL     1      24.400  62.860  38.738  0.00  0.00    +0.000 A 
ATOM     18  C   UNL     1      25.117  62.045  39.611  0.00  0.00    +0.000 A 
ATOM     19  C   UNL     1      24.533  60.896  40.168  0.00  0.00    +0.000 A 
ATOM     20  C   UNL     1      23.181  60.593  39.855  0.00  0.00    +0.000 A 
ATOM     21  C   UNL     1      22.330  63.387  37.411  0.00  0.00    +0.000 C 
ATOM     22  O   UNL     1      22.882  64.352  36.906  0.00  0.00    +0.000 OA
ENDROOT
BRANCH  19  23
ATOM     23  C   UNL     1      25.368  59.997  41.063  0.00  0.00    +0.000 C 
ATOM     24  C   UNL     1      26.672  60.738  41.492  0.00  0.00    +0.000 C 
ATOM     25  C   UNL     1      27.780  59.745  41.897  0.00  0.00    +0.000 C 
ATOM     26  C   UNL     1      27.169  58.443  42.416  0.00  0.00    +0.000 C 
ATOM     27  C   UNL     1      26.365  57.835  41.215  0.00  0.00    +0.000 C 
ATOM     28  C   UNL     1      25.471  56.677  41.652  0.00  0.00    +0.000 C 
ATOM     29  O   UNL     1      25.622  58.766  40.415  0.00  0.00    +0.000 OA
BRANCH  25  30
ATOM     30  O   UNL     1      28.701  60.320  42.789  0.00  0.00    +0.000 OA
ATOM     31  H   UNL     1      28.603  59.860  43.661  0.00  0.00    +0.000 HD
ENDBRANCH  25  30
BRANCH  26  32
ATOM     32  O   UNL     1      26.312  58.706  43.525  0.00  0.00    +0.000 OA
BRANCH  32  33
ATOM     33  C   UNL     1      26.743  58.119  44.744  0.00  0.00    +0.000 C 
ATOM     34  C   UNL     1      25.835  58.679  45.834  0.00  0.00    +0.000 C 
ATOM     35  C   UNL     1      26.325  59.268  46.928  0.00  0.00    +0.000 C 
ATOM     36  C   UNL     1      27.774  59.285  47.114  0.00  0.00    +0.000 C 
ATOM     37  O   UNL     1      28.296  59.993  47.962  0.00  0.00    +0.000 OA
ATOM     38  C   UNL     1      28.587  58.370  46.245  0.00  0.00    +0.000 C 
ATOM     39  C   UNL     1      28.582  56.928  46.777  0.00  0.00    +0.000 C 
ATOM     40  O   UNL     1      28.128  58.439  44.904  0.00  0.00    +0.000 OA
ENDBRANCH  32  33
ENDBRANCH  26  32
ENDBRANCH  19  23
BRANCH   6  41
ATOM     41  O   UNL     1      20.498  65.081  35.779  0.00  0.00    +0.000 OA
ATOM     42  H   UNL     1      20.243  65.484  34.909  0.00  0.00    +0.000 HD
ENDBRANCH   6  41
BRANCH  11  43
ATOM     43  O   UNL     1      18.134  64.389  36.615  0.00  0.00    +0.000 OA
ATOM     44  H   UNL     1      18.855  64.792  37.167  0.00  0.00    +0.000 HD
ENDBRANCH  11  43
BRANCH  20  45
ATOM     45  O   UNL     1      22.563  59.509  40.382  0.00  0.00    +0.000 OA
ATOM     46  H   UNL     1      22.625  59.221  41.300  0.00  0.00    +0.000 HD
ENDBRANCH  20  45
BRANCH   1  47
ATOM     47  O   UNL     1      18.294  63.126  31.855  0.00  0.00    +0.000 OA
BRANCH  47  51
ATOM     48  C   UNL     1      16.096  64.102  29.471  0.00  0.00    +0.000 C 
ATOM     49  C   UNL     1      17.414  63.392  29.137  0.00  0.00    +0.000 C 
ATOM     50  C   UNL     1      18.591  64.190  29.712  0.00  0.00    +0.000 C 
ATOM     51  C   UNL     1      18.371  64.393  31.222  0.00  0.00    +0.000 C 
ATOM     52  O   UNL     1      17.161  65.111  31.441  0.00  0.00    +0.000 OA
ATOM     53  C   UNL     1      16.033  64.357  30.997  0.00  0.00    +0.000 C 
ATOM     54  C   UNL     1      14.749  65.093  31.381  0.00  0.00    +0.000 C 
BRANCH  48  55
ATOM     55  O   UNL     1      16.048  65.337  28.770  0.00  0.00    +0.000 OA
BRANCH  55  59
ATOM     56  C   UNL     1      18.074  66.453  25.235  0.00  0.00    +0.000 C 
ATOM     57  C   UNL     1      17.287  65.465  26.094  0.00  0.00    +0.000 C 
ATOM     58  O   UNL     1      16.090  66.063  26.547  0.00  0.00    +0.000 OA
ATOM     59  C   UNL     1      15.423  65.229  27.499  0.00  0.00    +0.000 C 
ATOM     60  C   UNL     1      15.335  63.763  27.094  0.00  0.00    +0.000 C 
ATOM     61  C   UNL     1      16.020  63.288  26.045  0.00  0.00    +0.000 C 
ATOM     62  C   UNL     1      16.943  64.195  25.358  0.00  0.00    +0.000 C 
ATOM     63  O   UNL     1      17.416  63.909  24.269  0.00  0.00    +0.000 OA
ENDBRANCH  55  59
ENDBRANCH  48  55
ENDBRANCH  47  51
ENDBRANCH   1  47
TORSDOF 11
