MODEL 1
REMARK VINA RESULT:   -12.948      0.000      0.000
REMARK INTER + INTRA:         -22.288
REMARK INTER:                 -20.895
REMARK INTRA:                  -1.392
REMARK UNBOUND:                -1.392
REMARK SMILES Cc1cc(=O)c2c(O)c3c(cc2o1)OC(C)(C)[C@H](OC(=O)[C@@]1(C)O[C@@H]1CCc1cc(N)nc(-c2cc(N)nc(C[N+]4=CC5=CC=NC5=C4)c2)c1)C3
REMARK SMILES IDX 22 1 23 2 24 3 25 4 20 5 21 6 19 7 18 8 2 9 3 10 13 11 4 12
REMARK SMILES IDX 12 13 5 14 6 15 11 16 7 17 10 18 9 19 14 20 51 21 15 22 1 23
REMARK SMILES IDX 16 24 17 25 8 26 26 28 27 29 28 30 29 31 50 32 30 33 33 34
REMARK SMILES IDX 32 35 31 36 34 39 35 40 49 41 36 42 39 43 38 44 37 45 40 48
REMARK SMILES IDX 41 49 42 50 48 51 43 52 47 53 44 54 46 55 45 56
REMARK H PARENT 8 27 31 37 31 38 37 46 37 47
ROOT
ATOM      1  C   UNL     1      21.294  61.197  38.210  1.00  0.00     0.188 C 
ATOM      2  C   UNL     1      21.529  60.308  36.982  1.00  0.00     0.058 C 
ATOM      3  O   UNL     1      20.197  62.082  38.144  1.00  0.00    -0.354 OA
ATOM      4  C   UNL     1      21.487  62.670  38.106  1.00  0.00     0.163 C 
ENDROOT
BRANCH   1   5
ATOM      5  C   UNL     1      21.549  60.627  39.578  1.00  0.00     0.341 C 
ATOM      6  O   UNL     1      20.697  59.930  40.116  1.00  0.00    -0.249 OA
BRANCH   5   7
ATOM      7  O   UNL     1      22.754  60.840  40.174  1.00  0.00    -0.456 OA
BRANCH   7   8
ATOM      8  C   UNL     1      23.764  59.897  40.282  1.00  0.00     0.224 C 
ATOM      9  C   UNL     1      28.907  55.505  43.178  1.00  0.00     0.105 A 
ATOM     10  C   UNL     1      28.120  55.550  44.330  1.00  0.00     0.095 A 
ATOM     11  O   UNL     1      28.585  56.245  42.128  1.00  0.00    -0.461 OA
ATOM     12  C   UNL     1      26.989  56.368  44.358  1.00  0.00     0.196 A 
ATOM     13  C   UNL     1      27.519  57.040  42.098  1.00  0.00     0.145 A 
ATOM     14  O   UNL     1      26.321  56.381  45.373  1.00  0.00    -0.289 OA
ATOM     15  C   UNL     1      26.650  57.146  43.218  1.00  0.00     0.107 A 
ATOM     16  C   UNL     1      27.280  57.773  40.937  1.00  0.00     0.094 A 
ATOM     17  C   UNL     1      25.505  58.002  43.116  1.00  0.00     0.137 A 
ATOM     18  C   UNL     1      26.174  58.606  40.840  1.00  0.00     0.131 A 
ATOM     19  C   UNL     1      25.265  58.703  41.915  1.00  0.00     0.041 A 
ATOM     20  O   UNL     1      25.991  59.329  39.702  1.00  0.00    -0.483 OA
ATOM     21  C   UNL     1      24.028  59.568  41.764  1.00  0.00     0.093 C 
ATOM     22  C   UNL     1      25.066  60.357  39.584  1.00  0.00     0.140 C 
ATOM     23  C   UNL     1      30.114  54.625  43.100  1.00  0.00     0.088 C 
ATOM     24  C   UNL     1      24.809  60.603  38.087  1.00  0.00     0.060 C 
ATOM     25  C   UNL     1      25.642  61.651  40.203  1.00  0.00     0.060 C 
BRANCH  17  26
ATOM     26  O   UNL     1      24.604  58.176  44.114  1.00  0.00    -0.507 OA
ATOM     27  H   UNL     1      24.031  58.935  44.256  1.00  0.00     0.293 HD
ENDBRANCH  17  26
ENDBRANCH   7   8
ENDBRANCH   5   7
ENDBRANCH   1   5
BRANCH   4  28
ATOM     28  C   UNL     1      21.808  63.276  36.739  1.00  0.00     0.040 C 
BRANCH  28  29
ATOM     29  C   UNL     1      20.606  64.036  36.175  1.00  0.00     0.038 C 
BRANCH  29  30
ATOM     30  C   UNL     1      20.407  63.634  34.738  1.00  0.00    -0.042 A 
ATOM     31  C   UNL     1      21.329  62.777  34.127  1.00  0.00     0.050 A 
ATOM     32  C   UNL     1      19.287  64.078  34.014  1.00  0.00     0.033 A 
ATOM     33  C   UNL     1      21.109  62.354  32.818  1.00  0.00     0.124 A 
ATOM     34  C   UNL     1      19.101  63.652  32.685  1.00  0.00     0.073 A 
ATOM     35  N   UNL     1      20.017  62.797  32.143  1.00  0.00    -0.231 NA
BRANCH  33  36
ATOM     36  N   UNL     1      22.005  61.458  32.192  1.00  0.00    -0.384 N 
ATOM     37  H   UNL     1      22.189  61.516  31.180  1.00  0.00     0.158 HD
ATOM     38  H   UNL     1      22.502  60.749  32.750  1.00  0.00     0.158 HD
ENDBRANCH  33  36
BRANCH  34  39
ATOM     39  C   UNL     1      17.966  64.108  31.824  1.00  0.00     0.006 A 
ATOM     40  C   UNL     1      16.799  64.705  32.344  1.00  0.00     0.057 A 
ATOM     41  C   UNL     1      18.071  63.966  30.430  1.00  0.00     0.041 A 
ATOM     42  C   UNL     1      15.798  65.164  31.470  1.00  0.00     0.124 A 
ATOM     43  C   UNL     1      17.057  64.435  29.589  1.00  0.00     0.108 A 
ATOM     44  N   UNL     1      15.958  65.030  30.128  1.00  0.00    -0.230 NA
BRANCH  42  45
ATOM     45  N   UNL     1      14.627  65.773  31.980  1.00  0.00    -0.384 N 
ATOM     46  H   UNL     1      14.653  66.727  32.371  1.00  0.00     0.158 HD
ATOM     47  H   UNL     1      13.732  65.261  31.971  1.00  0.00     0.158 HD
ENDBRANCH  42  45
BRANCH  43  48
ATOM     48  C   UNL     1      17.190  64.311  28.099  1.00  0.00     0.413 C 
BRANCH  48  49
ATOM     49  N   UNL     1      16.065  63.579  27.560  1.00  0.00    -0.196 N 
ATOM     50  C   UNL     1      15.794  62.333  27.793  1.00  0.00     0.319 C 
ATOM     51  C   UNL     1      15.112  64.138  26.653  1.00  0.00     0.337 C 
ATOM     52  C   UNL     1      14.605  62.012  27.016  1.00  0.00     0.072 C 
ATOM     53  C   UNL     1      14.266  63.175  26.357  1.00  0.00     0.140 C 
ATOM     54  C   UNL     1      13.719  61.097  26.663  1.00  0.00     0.037 C 
ATOM     55  N   UNL     1      13.133  62.991  25.563  1.00  0.00    -0.250 NA
ATOM     56  C   UNL     1      12.831  61.746  25.768  1.00  0.00     0.113 C 
ENDBRANCH  48  49
ENDBRANCH  43  48
ENDBRANCH  34  39
ENDBRANCH  29  30
ENDBRANCH  28  29
ENDBRANCH   4  28
TORSDOF 12
ENDMDL
MODEL 2
REMARK VINA RESULT:   -12.888      1.601      2.820
REMARK INTER + INTRA:         -22.191
REMARK INTER:                 -21.421
REMARK INTRA:                  -0.770
REMARK UNBOUND:                -1.392
REMARK SMILES Cc1cc(=O)c2c(O)c3c(cc2o1)OC(C)(C)[C@H](OC(=O)[C@@]1(C)O[C@@H]1CCc1cc(N)nc(-c2cc(N)nc(C[N+]4=CC5=CC=NC5=C4)c2)c1)C3
REMARK SMILES IDX 22 1 23 2 24 3 25 4 20 5 21 6 19 7 18 8 2 9 3 10 13 11 4 12
REMARK SMILES IDX 12 13 5 14 6 15 11 16 7 17 10 18 9 19 14 20 51 21 15 22 1 23
REMARK SMILES IDX 16 24 17 25 8 26 26 28 27 29 28 30 29 31 50 32 30 33 33 34
REMARK SMILES IDX 32 35 31 36 34 39 35 40 49 41 36 42 39 43 38 44 37 45 40 48
REMARK SMILES IDX 41 49 42 50 48 51 43 52 47 53 44 54 46 55 45 56
REMARK H PARENT 8 27 31 37 31 38 37 46 37 47
ROOT
ATOM      1  C   UNL     1      23.358  61.295  36.317  1.00  0.00     0.188 C 
ATOM      2  C   UNL     1      23.619  59.897  35.739  1.00  0.00     0.058 C 
ATOM      3  O   UNL     1      22.023  61.588  36.669  1.00  0.00    -0.354 OA
ATOM      4  C   UNL     1      22.547  62.277  35.544  1.00  0.00     0.163 C 
ENDROOT
BRANCH   1   5
ATOM      5  C   UNL     1      24.387  61.908  37.224  1.00  0.00     0.341 C 
ATOM      6  O   UNL     1      25.505  62.163  36.794  1.00  0.00    -0.249 OA
BRANCH   5   7
ATOM      7  O   UNL     1      24.040  62.234  38.500  1.00  0.00    -0.456 OA
BRANCH   7   8
ATOM      8  C   UNL     1      24.345  61.480  39.622  1.00  0.00     0.224 C 
ATOM      9  C   UNL     1      26.875  56.036  43.876  1.00  0.00     0.105 A 
ATOM     10  C   UNL     1      27.805  55.838  42.855  1.00  0.00     0.095 A 
ATOM     11  O   UNL     1      25.909  56.931  43.727  1.00  0.00    -0.461 OA
ATOM     12  C   UNL     1      27.716  56.597  41.687  1.00  0.00     0.196 A 
ATOM     13  C   UNL     1      25.777  57.683  42.638  1.00  0.00     0.145 A 
ATOM     14  O   UNL     1      28.545  56.405  40.819  1.00  0.00    -0.289 OA
ATOM     15  C   UNL     1      26.683  57.562  41.547  1.00  0.00     0.107 A 
ATOM     16  C   UNL     1      24.722  58.592  42.592  1.00  0.00     0.094 A 
ATOM     17  C   UNL     1      26.501  58.417  40.411  1.00  0.00     0.137 A 
ATOM     18  C   UNL     1      24.543  59.415  41.489  1.00  0.00     0.131 A 
ATOM     19  C   UNL     1      25.447  59.356  40.408  1.00  0.00     0.041 A 
ATOM     20  O   UNL     1      23.483  60.268  41.468  1.00  0.00    -0.483 OA
ATOM     21  C   UNL     1      25.273  60.310  39.242  1.00  0.00     0.093 C 
ATOM     22  C   UNL     1      23.074  60.960  40.336  1.00  0.00     0.140 C 
ATOM     23  C   UNL     1      26.948  55.258  45.152  1.00  0.00     0.088 C 
ATOM     24  C   UNL     1      22.196  62.140  40.786  1.00  0.00     0.060 C 
ATOM     25  C   UNL     1      22.229  60.032  39.435  1.00  0.00     0.060 C 
BRANCH  17  26
ATOM     26  O   UNL     1      27.304  58.397  39.320  1.00  0.00    -0.507 OA
ATOM     27  H   UNL     1      27.516  59.133  38.739  1.00  0.00     0.293 HD
ENDBRANCH  17  26
ENDBRANCH   7   8
ENDBRANCH   5   7
ENDBRANCH   1   5
BRANCH   4  28
ATOM     28  C   UNL     1      21.897  61.826  34.236  1.00  0.00     0.040 C 
BRANCH  28  29
ATOM     29  C   UNL     1      21.648  63.014  33.303  1.00  0.00     0.038 C 
BRANCH  29  30
ATOM     30  C   UNL     1      20.245  63.514  33.515  1.00  0.00    -0.042 A 
ATOM     31  C   UNL     1      19.792  63.769  34.815  1.00  0.00     0.050 A 
ATOM     32  C   UNL     1      19.396  63.764  32.424  1.00  0.00     0.033 A 
ATOM     33  C   UNL     1      18.515  64.293  35.005  1.00  0.00     0.124 A 
ATOM     34  C   UNL     1      18.102  64.274  32.647  1.00  0.00     0.073 A 
ATOM     35  N   UNL     1      17.717  64.528  33.931  1.00  0.00    -0.231 NA
BRANCH  33  36
ATOM     36  N   UNL     1      18.049  64.596  36.305  1.00  0.00    -0.384 N 
ATOM     37  H   UNL     1      18.107  63.899  37.062  1.00  0.00     0.158 HD
ATOM     38  H   UNL     1      17.665  65.528  36.513  1.00  0.00     0.158 HD
ENDBRANCH  33  36
BRANCH  34  39
ATOM     39  C   UNL     1      17.115  64.528  31.552  1.00  0.00     0.006 A 
ATOM     40  C   UNL     1      15.879  65.170  31.764  1.00  0.00     0.057 A 
ATOM     41  C   UNL     1      17.442  64.139  30.241  1.00  0.00     0.041 A 
ATOM     42  C   UNL     1      15.028  65.430  30.676  1.00  0.00     0.124 A 
ATOM     43  C   UNL     1      16.572  64.413  29.181  1.00  0.00     0.108 A 
ATOM     44  N   UNL     1      15.399  65.059  29.423  1.00  0.00    -0.230 NA
BRANCH  42  45
ATOM     45  N   UNL     1      13.788  66.082  30.877  1.00  0.00    -0.384 N 
ATOM     46  H   UNL     1      13.140  66.242  30.092  1.00  0.00     0.158 HD
ATOM     47  H   UNL     1      13.524  66.412  31.818  1.00  0.00     0.158 HD
ENDBRANCH  42  45
BRANCH  43  48
ATOM     48  C   UNL     1      16.941  64.024  27.778  1.00  0.00     0.413 C 
BRANCH  48  49
ATOM     49  N   UNL     1      15.783  63.498  27.089  1.00  0.00    -0.196 N 
ATOM     50  C   UNL     1      15.087  64.127  26.195  1.00  0.00     0.319 C 
ATOM     51  C   UNL     1      15.226  62.205  27.341  1.00  0.00     0.337 C 
ATOM     52  C   UNL     1      14.001  63.237  25.809  1.00  0.00     0.072 C 
ATOM     53  C   UNL     1      14.172  62.093  26.562  1.00  0.00     0.140 C 
ATOM     54  C   UNL     1      12.925  63.050  25.064  1.00  0.00     0.037 C 
ATOM     55  N   UNL     1      13.176  61.156  26.285  1.00  0.00    -0.250 NA
ATOM     56  C   UNL     1      12.451  61.754  25.390  1.00  0.00     0.113 C 
ENDBRANCH  48  49
ENDBRANCH  43  48
ENDBRANCH  34  39
ENDBRANCH  29  30
ENDBRANCH  28  29
ENDBRANCH   4  28
TORSDOF 12
ENDMDL
MODEL 3
REMARK VINA RESULT:   -12.747      1.773      2.681
REMARK INTER + INTRA:         -21.963
REMARK INTER:                 -20.812
REMARK INTRA:                  -1.151
REMARK UNBOUND:                -1.392
REMARK SMILES Cc1cc(=O)c2c(O)c3c(cc2o1)OC(C)(C)[C@H](OC(=O)[C@@]1(C)O[C@@H]1CCc1cc(N)nc(-c2cc(N)nc(C[N+]4=CC5=CC=NC5=C4)c2)c1)C3
REMARK SMILES IDX 22 1 23 2 24 3 25 4 20 5 21 6 19 7 18 8 2 9 3 10 13 11 4 12
REMARK SMILES IDX 12 13 5 14 6 15 11 16 7 17 10 18 9 19 14 20 51 21 15 22 1 23
REMARK SMILES IDX 16 24 17 25 8 26 26 28 27 29 28 30 29 31 50 32 30 33 33 34
REMARK SMILES IDX 32 35 31 36 34 39 35 40 49 41 36 42 39 43 38 44 37 45 40 48
REMARK SMILES IDX 41 49 42 50 48 51 43 52 47 53 44 54 46 55 45 56
REMARK H PARENT 8 27 31 37 31 38 37 46 37 47
ROOT
ATOM      1  C   UNL     1      21.392  61.179  38.214  1.00  0.00     0.188 C 
ATOM      2  C   UNL     1      21.699  60.289  37.002  1.00  0.00     0.058 C 
ATOM      3  O   UNL     1      20.276  62.035  38.096  1.00  0.00    -0.354 OA
ATOM      4  C   UNL     1      21.551  62.657  38.107  1.00  0.00     0.163 C 
ENDROOT
BRANCH   1   5
ATOM      5  C   UNL     1      21.604  60.624  39.594  1.00  0.00     0.341 C 
ATOM      6  O   UNL     1      20.732  59.943  40.119  1.00  0.00    -0.249 OA
BRANCH   5   7
ATOM      7  O   UNL     1      22.796  60.832  40.219  1.00  0.00    -0.456 OA
BRANCH   7   8
ATOM      8  C   UNL     1      23.812  59.895  40.323  1.00  0.00     0.224 C 
ATOM      9  C   UNL     1      28.967  55.506  43.204  1.00  0.00     0.105 A 
ATOM     10  C   UNL     1      28.173  55.535  44.351  1.00  0.00     0.095 A 
ATOM     11  O   UNL     1      28.646  56.255  42.159  1.00  0.00    -0.461 OA
ATOM     12  C   UNL     1      27.037  56.345  44.382  1.00  0.00     0.196 A 
ATOM     13  C   UNL     1      27.576  57.044  42.131  1.00  0.00     0.145 A 
ATOM     14  O   UNL     1      26.363  56.343  45.393  1.00  0.00    -0.289 OA
ATOM     15  C   UNL     1      26.699  57.132  43.248  1.00  0.00     0.107 A 
ATOM     16  C   UNL     1      27.338  57.786  40.976  1.00  0.00     0.094 A 
ATOM     17  C   UNL     1      25.549  57.982  43.148  1.00  0.00     0.137 A 
ATOM     18  C   UNL     1      26.228  58.614  40.882  1.00  0.00     0.131 A 
ATOM     19  C   UNL     1      25.311  58.693  41.952  1.00  0.00     0.041 A 
ATOM     20  O   UNL     1      26.045  59.346  39.750  1.00  0.00    -0.483 OA
ATOM     21  C   UNL     1      24.069  59.552  41.803  1.00  0.00     0.093 C 
ATOM     22  C   UNL     1      25.114  60.370  39.637  1.00  0.00     0.140 C 
ATOM     23  C   UNL     1      30.181  54.636  43.124  1.00  0.00     0.088 C 
ATOM     24  C   UNL     1      24.865  60.629  38.141  1.00  0.00     0.060 C 
ATOM     25  C   UNL     1      25.679  61.661  40.273  1.00  0.00     0.060 C 
BRANCH  17  26
ATOM     26  O   UNL     1      24.642  58.140  44.142  1.00  0.00    -0.507 OA
ATOM     27  H   UNL     1      23.858  58.696  44.132  1.00  0.00     0.293 HD
ENDBRANCH  17  26
ENDBRANCH   7   8
ENDBRANCH   5   7
ENDBRANCH   1   5
BRANCH   4  28
ATOM     28  C   UNL     1      21.911  63.262  36.751  1.00  0.00     0.040 C 
BRANCH  28  29
ATOM     29  C   UNL     1      20.767  64.118  36.205  1.00  0.00     0.038 C 
BRANCH  29  30
ATOM     30  C   UNL     1      20.500  63.721  34.778  1.00  0.00    -0.042 A 
ATOM     31  C   UNL     1      21.369  62.834  34.134  1.00  0.00     0.050 A 
ATOM     32  C   UNL     1      19.367  64.199  34.097  1.00  0.00     0.033 A 
ATOM     33  C   UNL     1      21.086  62.417  32.835  1.00  0.00     0.124 A 
ATOM     34  C   UNL     1      19.116  63.777  32.776  1.00  0.00     0.073 A 
ATOM     35  N   UNL     1      19.983  62.894  32.202  1.00  0.00    -0.231 NA
BRANCH  33  36
ATOM     36  N   UNL     1      21.928  61.492  32.177  1.00  0.00    -0.384 N 
ATOM     37  H   UNL     1      21.541  60.645  31.737  1.00  0.00     0.158 HD
ATOM     38  H   UNL     1      22.941  61.670  32.112  1.00  0.00     0.158 HD
ENDBRANCH  33  36
BRANCH  34  39
ATOM     39  C   UNL     1      17.963  64.268  31.960  1.00  0.00     0.006 A 
ATOM     40  C   UNL     1      17.871  64.075  30.566  1.00  0.00     0.057 A 
ATOM     41  C   UNL     1      16.903  64.925  32.608  1.00  0.00     0.041 A 
ATOM     42  C   UNL     1      16.729  64.511  29.873  1.00  0.00     0.124 A 
ATOM     43  C   UNL     1      15.780  65.345  31.888  1.00  0.00     0.108 A 
ATOM     44  N   UNL     1      15.717  65.116  30.548  1.00  0.00    -0.230 NA
BRANCH  42  45
ATOM     45  N   UNL     1      16.621  64.314  28.475  1.00  0.00    -0.384 N 
ATOM     46  H   UNL     1      15.778  64.609  27.961  1.00  0.00     0.158 HD
ATOM     47  H   UNL     1      17.391  63.865  27.956  1.00  0.00     0.158 HD
ENDBRANCH  42  45
BRANCH  43  48
ATOM     48  C   UNL     1      14.636  66.016  32.591  1.00  0.00     0.413 C 
BRANCH  48  49
ATOM     49  N   UNL     1      13.388  65.669  31.948  1.00  0.00    -0.196 N 
ATOM     50  C   UNL     1      12.636  66.481  31.272  1.00  0.00     0.319 C 
ATOM     51  C   UNL     1      12.794  64.370  32.011  1.00  0.00     0.337 C 
ATOM     52  C   UNL     1      11.471  65.716  30.849  1.00  0.00     0.072 C 
ATOM     53  C   UNL     1      11.660  64.444  31.347  1.00  0.00     0.140 C 
ATOM     54  C   UNL     1      10.316  65.711  30.206  1.00  0.00     0.037 C 
ATOM     55  N   UNL     1      10.594  63.609  31.010  1.00  0.00    -0.250 NA
ATOM     56  C   UNL     1       9.813  64.391  30.332  1.00  0.00     0.113 C 
ENDBRANCH  48  49
ENDBRANCH  43  48
ENDBRANCH  34  39
ENDBRANCH  29  30
ENDBRANCH  28  29
ENDBRANCH   4  28
TORSDOF 12
ENDMDL
MODEL 4
REMARK VINA RESULT:   -12.608      2.325      3.953
REMARK INTER + INTRA:         -21.740
REMARK INTER:                 -21.048
REMARK INTRA:                  -0.692
REMARK UNBOUND:                -1.392
REMARK SMILES Cc1cc(=O)c2c(O)c3c(cc2o1)OC(C)(C)[C@H](OC(=O)[C@@]1(C)O[C@@H]1CCc1cc(N)nc(-c2cc(N)nc(C[N+]4=CC5=CC=NC5=C4)c2)c1)C3
REMARK SMILES IDX 22 1 23 2 24 3 25 4 20 5 21 6 19 7 18 8 2 9 3 10 13 11 4 12
REMARK SMILES IDX 12 13 5 14 6 15 11 16 7 17 10 18 9 19 14 20 51 21 15 22 1 23
REMARK SMILES IDX 16 24 17 25 8 26 26 28 27 29 28 30 29 31 50 32 30 33 33 34
REMARK SMILES IDX 32 35 31 36 34 39 35 40 49 41 36 42 39 43 38 44 37 45 40 48
REMARK SMILES IDX 41 49 42 50 48 51 43 52 47 53 44 54 46 55 45 56
REMARK H PARENT 8 27 31 37 31 38 37 46 37 47
ROOT
ATOM      1  C   UNL     1      19.977  61.625  35.202  1.00  0.00     0.188 C 
ATOM      2  C   UNL     1      19.370  61.078  33.904  1.00  0.00     0.058 C 
ATOM      3  O   UNL     1      19.102  61.743  36.303  1.00  0.00    -0.354 OA
ATOM      4  C   UNL     1      19.550  62.956  35.718  1.00  0.00     0.163 C 
ENDROOT
BRANCH   1   5
ATOM      5  C   UNL     1      21.382  61.234  35.567  1.00  0.00     0.341 C 
ATOM      6  O   UNL     1      22.296  61.436  34.777  1.00  0.00    -0.249 OA
BRANCH   5   7
ATOM      7  O   UNL     1      21.630  60.720  36.803  1.00  0.00    -0.456 OA
BRANCH   7   8
ATOM      8  C   UNL     1      22.748  61.004  37.571  1.00  0.00     0.224 C 
ATOM      9  C   UNL     1      27.931  60.515  42.770  1.00  0.00     0.105 A 
ATOM     10  C   UNL     1      27.679  59.144  42.717  1.00  0.00     0.095 A 
ATOM     11  O   UNL     1      27.191  61.351  42.057  1.00  0.00    -0.461 OA
ATOM     12  C   UNL     1      26.653  58.664  41.901  1.00  0.00     0.196 A 
ATOM     13  C   UNL     1      26.204  60.951  41.262  1.00  0.00     0.145 A 
ATOM     14  O   UNL     1      26.462  57.464  41.872  1.00  0.00    -0.289 OA
ATOM     15  C   UNL     1      25.877  59.573  41.132  1.00  0.00     0.107 A 
ATOM     16  C   UNL     1      25.492  61.922  40.560  1.00  0.00     0.094 A 
ATOM     17  C   UNL     1      24.818  59.203  40.241  1.00  0.00     0.137 A 
ATOM     18  C   UNL     1      24.462  61.564  39.701  1.00  0.00     0.131 A 
ATOM     19  C   UNL     1      24.139  60.204  39.513  1.00  0.00     0.041 A 
ATOM     20  O   UNL     1      23.771  62.543  39.057  1.00  0.00    -0.483 OA
ATOM     21  C   UNL     1      23.055  59.830  38.520  1.00  0.00     0.093 C 
ATOM     22  C   UNL     1      22.586  62.322  38.367  1.00  0.00     0.140 C 
ATOM     23  C   UNL     1      29.034  61.067  43.616  1.00  0.00     0.088 C 
ATOM     24  C   UNL     1      22.364  63.501  37.404  1.00  0.00     0.060 C 
ATOM     25  C   UNL     1      21.405  62.269  39.362  1.00  0.00     0.060 C 
BRANCH  17  26
ATOM     26  O   UNL     1      24.424  57.923  40.031  1.00  0.00    -0.507 OA
ATOM     27  H   UNL     1      23.558  57.620  39.745  1.00  0.00     0.293 HD
ENDBRANCH  17  26
ENDBRANCH   7   8
ENDBRANCH   5   7
ENDBRANCH   1   5
BRANCH   4  28
ATOM     28  C   UNL     1      18.426  63.698  34.994  1.00  0.00     0.040 C 
BRANCH  28  29
ATOM     29  C   UNL     1      18.986  64.716  33.998  1.00  0.00     0.038 C 
BRANCH  29  30
ATOM     30  C   UNL     1      18.085  64.763  32.793  1.00  0.00    -0.042 A 
ATOM     31  C   UNL     1      18.584  64.382  31.543  1.00  0.00     0.050 A 
ATOM     32  C   UNL     1      16.739  65.149  32.915  1.00  0.00     0.033 A 
ATOM     33  C   UNL     1      17.731  64.365  30.441  1.00  0.00     0.124 A 
ATOM     34  C   UNL     1      15.905  65.142  31.779  1.00  0.00     0.073 A 
ATOM     35  N   UNL     1      16.435  64.740  30.588  1.00  0.00    -0.231 NA
BRANCH  33  36
ATOM     36  N   UNL     1      18.202  63.947  29.175  1.00  0.00    -0.384 N 
ATOM     37  H   UNL     1      18.856  63.156  29.090  1.00  0.00     0.158 HD
ATOM     38  H   UNL     1      17.876  64.420  28.320  1.00  0.00     0.158 HD
ENDBRANCH  33  36
BRANCH  34  39
ATOM     39  C   UNL     1      14.475  65.580  31.804  1.00  0.00     0.006 A 
ATOM     40  C   UNL     1      14.063  66.834  32.298  1.00  0.00     0.057 A 
ATOM     41  C   UNL     1      13.492  64.718  31.286  1.00  0.00     0.041 A 
ATOM     42  C   UNL     1      12.708  67.201  32.235  1.00  0.00     0.124 A 
ATOM     43  C   UNL     1      12.153  65.115  31.237  1.00  0.00     0.108 A 
ATOM     44  N   UNL     1      11.799  66.346  31.699  1.00  0.00    -0.230 NA
BRANCH  42  45
ATOM     45  N   UNL     1      12.284  68.462  32.719  1.00  0.00    -0.384 N 
ATOM     46  H   UNL     1      11.551  68.535  33.439  1.00  0.00     0.158 HD
ATOM     47  H   UNL     1      12.706  69.327  32.346  1.00  0.00     0.158 HD
ENDBRANCH  42  45
BRANCH  43  48
ATOM     48  C   UNL     1      11.113  64.204  30.652  1.00  0.00     0.413 C 
BRANCH  48  49
ATOM     49  N   UNL     1      11.683  63.433  29.569  1.00  0.00    -0.196 N 
ATOM     50  C   UNL     1      12.210  62.254  29.678  1.00  0.00     0.319 C 
ATOM     51  C   UNL     1      11.774  63.900  28.221  1.00  0.00     0.337 C 
ATOM     52  C   UNL     1      12.688  61.885  28.353  1.00  0.00     0.072 C 
ATOM     53  C   UNL     1      12.377  62.952  27.536  1.00  0.00     0.140 C 
ATOM     54  C   UNL     1      13.293  60.985  27.598  1.00  0.00     0.037 C 
ATOM     55  N   UNL     1      12.797  62.720  26.225  1.00  0.00    -0.250 NA
ATOM     56  C   UNL     1      13.337  61.542  26.295  1.00  0.00     0.113 C 
ENDBRANCH  48  49
ENDBRANCH  43  48
ENDBRANCH  34  39
ENDBRANCH  29  30
ENDBRANCH  28  29
ENDBRANCH   4  28
TORSDOF 12
ENDMDL
MODEL 5
REMARK VINA RESULT:   -12.593      2.161      2.833
REMARK INTER + INTRA:         -21.715
REMARK INTER:                 -21.186
REMARK INTRA:                  -0.529
REMARK UNBOUND:                -1.392
REMARK SMILES Cc1cc(=O)c2c(O)c3c(cc2o1)OC(C)(C)[C@H](OC(=O)[C@@]1(C)O[C@@H]1CCc1cc(N)nc(-c2cc(N)nc(C[N+]4=CC5=CC=NC5=C4)c2)c1)C3
REMARK SMILES IDX 22 1 23 2 24 3 25 4 20 5 21 6 19 7 18 8 2 9 3 10 13 11 4 12
REMARK SMILES IDX 12 13 5 14 6 15 11 16 7 17 10 18 9 19 14 20 51 21 15 22 1 23
REMARK SMILES IDX 16 24 17 25 8 26 26 28 27 29 28 30 29 31 50 32 30 33 33 34
REMARK SMILES IDX 32 35 31 36 34 39 35 40 49 41 36 42 39 43 38 44 37 45 40 48
REMARK SMILES IDX 41 49 42 50 48 51 43 52 47 53 44 54 46 55 45 56
REMARK H PARENT 8 27 31 37 31 38 37 46 37 47
ROOT
ATOM      1  C   UNL     1      22.249  60.972  36.087  1.00  0.00     0.188 C 
ATOM      2  C   UNL     1      20.777  60.946  36.519  1.00  0.00     0.058 C 
ATOM      3  O   UNL     1      22.744  62.209  35.623  1.00  0.00    -0.354 OA
ATOM      4  C   UNL     1      22.596  61.184  34.654  1.00  0.00     0.163 C 
ENDROOT
BRANCH   1   5
ATOM      5  C   UNL     1      23.247  60.155  36.859  1.00  0.00     0.341 C 
ATOM      6  O   UNL     1      24.178  59.616  36.273  1.00  0.00    -0.249 OA
BRANCH   5   7
ATOM      7  O   UNL     1      23.139  60.080  38.214  1.00  0.00    -0.456 OA
BRANCH   7   8
ATOM      8  C   UNL     1      24.178  60.291  39.106  1.00  0.00     0.224 C 
ATOM      9  C   UNL     1      28.201  60.170  45.265  1.00  0.00     0.105 A 
ATOM     10  C   UNL     1      27.529  58.977  45.533  1.00  0.00     0.095 A 
ATOM     11  O   UNL     1      27.871  60.892  44.204  1.00  0.00    -0.461 OA
ATOM     12  C   UNL     1      26.519  58.549  44.670  1.00  0.00     0.196 A 
ATOM     13  C   UNL     1      26.919  60.532  43.347  1.00  0.00     0.145 A 
ATOM     14  O   UNL     1      25.956  57.502  44.927  1.00  0.00    -0.289 OA
ATOM     15  C   UNL     1      26.185  59.327  43.529  1.00  0.00     0.107 A 
ATOM     16  C   UNL     1      26.658  61.371  42.267  1.00  0.00     0.094 A 
ATOM     17  C   UNL     1      25.188  58.982  42.559  1.00  0.00     0.137 A 
ATOM     18  C   UNL     1      25.689  61.040  41.330  1.00  0.00     0.131 A 
ATOM     19  C   UNL     1      24.971  59.831  41.452  1.00  0.00     0.041 A 
ATOM     20  O   UNL     1      25.441  61.900  40.305  1.00  0.00    -0.483 OA
ATOM     21  C   UNL     1      23.963  59.456  40.382  1.00  0.00     0.093 C 
ATOM     22  C   UNL     1      24.349  61.789  39.454  1.00  0.00     0.140 C 
ATOM     23  C   UNL     1      29.303  60.653  46.153  1.00  0.00     0.088 C 
ATOM     24  C   UNL     1      24.647  62.602  38.183  1.00  0.00     0.060 C 
ATOM     25  C   UNL     1      23.095  62.383  40.136  1.00  0.00     0.060 C 
BRANCH  17  26
ATOM     26  O   UNL     1      24.433  57.859  42.623  1.00  0.00    -0.507 OA
ATOM     27  H   UNL     1      24.672  56.978  42.320  1.00  0.00     0.293 HD
ENDBRANCH  17  26
ENDBRANCH   7   8
ENDBRANCH   5   7
ENDBRANCH   1   5
BRANCH   4  28
ATOM     28  C   UNL     1      21.473  61.484  33.661  1.00  0.00     0.040 C 
BRANCH  28  29
ATOM     29  C   UNL     1      21.457  62.964  33.273  1.00  0.00     0.038 C 
BRANCH  29  30
ATOM     30  C   UNL     1      20.078  63.515  33.513  1.00  0.00    -0.042 A 
ATOM     31  C   UNL     1      19.668  63.806  34.820  1.00  0.00     0.050 A 
ATOM     32  C   UNL     1      19.209  63.778  32.440  1.00  0.00     0.033 A 
ATOM     33  C   UNL     1      18.415  64.377  35.035  1.00  0.00     0.124 A 
ATOM     34  C   UNL     1      17.940  64.336  32.689  1.00  0.00     0.073 A 
ATOM     35  N   UNL     1      17.598  64.622  33.978  1.00  0.00    -0.231 NA
BRANCH  33  36
ATOM     36  N   UNL     1      17.994  64.714  36.341  1.00  0.00    -0.384 N 
ATOM     37  H   UNL     1      18.228  65.630  36.751  1.00  0.00     0.158 HD
ATOM     38  H   UNL     1      17.428  64.051  36.890  1.00  0.00     0.158 HD
ENDBRANCH  33  36
BRANCH  34  39
ATOM     39  C   UNL     1      16.934  64.607  31.615  1.00  0.00     0.006 A 
ATOM     40  C   UNL     1      15.665  65.164  31.873  1.00  0.00     0.057 A 
ATOM     41  C   UNL     1      17.273  64.324  30.280  1.00  0.00     0.041 A 
ATOM     42  C   UNL     1      14.794  65.448  30.807  1.00  0.00     0.124 A 
ATOM     43  C   UNL     1      16.383  64.620  29.243  1.00  0.00     0.108 A 
ATOM     44  N   UNL     1      15.178  65.183  29.531  1.00  0.00    -0.230 NA
BRANCH  42  45
ATOM     45  N   UNL     1      13.522  66.016  31.054  1.00  0.00    -0.384 N 
ATOM     46  H   UNL     1      12.762  65.456  31.468  1.00  0.00     0.158 HD
ATOM     47  H   UNL     1      13.341  67.002  30.813  1.00  0.00     0.158 HD
ENDBRANCH  42  45
BRANCH  43  48
ATOM     48  C   UNL     1      16.764  64.346  27.817  1.00  0.00     0.413 C 
BRANCH  48  49
ATOM     49  N   UNL     1      15.660  63.722  27.120  1.00  0.00    -0.196 N 
ATOM     50  C   UNL     1      14.918  64.289  26.222  1.00  0.00     0.319 C 
ATOM     51  C   UNL     1      15.216  62.386  27.368  1.00  0.00     0.337 C 
ATOM     52  C   UNL     1      13.916  63.309  25.829  1.00  0.00     0.072 C 
ATOM     53  C   UNL     1      14.181  62.183  26.582  1.00  0.00     0.140 C 
ATOM     54  C   UNL     1      12.865  63.030  25.077  1.00  0.00     0.037 C 
ATOM     55  N   UNL     1      13.272  61.163  26.298  1.00  0.00    -0.250 NA
ATOM     56  C   UNL     1      12.504  61.697  25.400  1.00  0.00     0.113 C 
ENDBRANCH  48  49
ENDBRANCH  43  48
ENDBRANCH  34  39
ENDBRANCH  29  30
ENDBRANCH  28  29
ENDBRANCH   4  28
TORSDOF 12
ENDMDL
MODEL 6
REMARK VINA RESULT:   -12.369      2.815      3.630
REMARK INTER + INTRA:         -21.354
REMARK INTER:                 -20.640
REMARK INTRA:                  -0.714
REMARK UNBOUND:                -1.392
REMARK SMILES Cc1cc(=O)c2c(O)c3c(cc2o1)OC(C)(C)[C@H](OC(=O)[C@@]1(C)O[C@@H]1CCc1cc(N)nc(-c2cc(N)nc(C[N+]4=CC5=CC=NC5=C4)c2)c1)C3
REMARK SMILES IDX 22 1 23 2 24 3 25 4 20 5 21 6 19 7 18 8 2 9 3 10 13 11 4 12
REMARK SMILES IDX 12 13 5 14 6 15 11 16 7 17 10 18 9 19 14 20 51 21 15 22 1 23
REMARK SMILES IDX 16 24 17 25 8 26 26 28 27 29 28 30 29 31 50 32 30 33 33 34
REMARK SMILES IDX 32 35 31 36 34 39 35 40 49 41 36 42 39 43 38 44 37 45 40 48
REMARK SMILES IDX 41 49 42 50 48 51 43 52 47 53 44 54 46 55 45 56
REMARK H PARENT 8 27 31 37 31 38 37 46 37 47
ROOT
ATOM      1  C   UNL     1      22.031  60.713  35.818  1.00  0.00     0.188 C 
ATOM      2  C   UNL     1      20.741  59.925  35.555  1.00  0.00     0.058 C 
ATOM      3  O   UNL     1      21.889  62.105  36.005  1.00  0.00    -0.354 OA
ATOM      4  C   UNL     1      22.523  61.689  34.805  1.00  0.00     0.163 C 
ENDROOT
BRANCH   1   5
ATOM      5  C   UNL     1      23.109  60.083  36.655  1.00  0.00     0.341 C 
ATOM      6  O   UNL     1      24.061  59.535  36.112  1.00  0.00    -0.249 OA
BRANCH   5   7
ATOM      7  O   UNL     1      23.045  60.186  38.010  1.00  0.00    -0.456 OA
BRANCH   7   8
ATOM      8  C   UNL     1      24.142  60.276  38.852  1.00  0.00     0.224 C 
ATOM      9  C   UNL     1      28.575  59.292  44.641  1.00  0.00     0.105 A 
ATOM     10  C   UNL     1      27.925  58.065  44.773  1.00  0.00     0.095 A 
ATOM     11  O   UNL     1      28.171  60.160  43.725  1.00  0.00    -0.461 OA
ATOM     12  C   UNL     1      26.860  57.756  43.925  1.00  0.00     0.196 A 
ATOM     13  C   UNL     1      27.165  59.919  42.890  1.00  0.00     0.145 A 
ATOM     14  O   UNL     1      26.319  56.676  44.061  1.00  0.00    -0.289 OA
ATOM     15  C   UNL     1      26.447  58.692  42.938  1.00  0.00     0.107 A 
ATOM     16  C   UNL     1      26.828  60.906  41.966  1.00  0.00     0.094 A 
ATOM     17  C   UNL     1      25.388  58.482  41.996  1.00  0.00     0.137 A 
ATOM     18  C   UNL     1      25.798  60.706  41.058  1.00  0.00     0.131 A 
ATOM     19  C   UNL     1      25.093  59.483  41.046  1.00  0.00     0.041 A 
ATOM     20  O   UNL     1      25.479  61.705  40.191  1.00  0.00    -0.483 OA
ATOM     21  C   UNL     1      24.016  59.258  40.002  1.00  0.00     0.093 C 
ATOM     22  C   UNL     1      24.332  61.708  39.408  1.00  0.00     0.140 C 
ATOM     23  C   UNL     1      29.734  59.653  45.516  1.00  0.00     0.088 C 
ATOM     24  C   UNL     1      24.541  62.704  38.255  1.00  0.00     0.060 C 
ATOM     25  C   UNL     1      23.126  62.178  40.253  1.00  0.00     0.060 C 
BRANCH  17  26
ATOM     26  O   UNL     1      24.642  57.352  41.942  1.00  0.00    -0.507 OA
ATOM     27  H   UNL     1      24.344  56.887  41.156  1.00  0.00     0.293 HD
ENDBRANCH  17  26
ENDBRANCH   7   8
ENDBRANCH   5   7
ENDBRANCH   1   5
BRANCH   4  28
ATOM     28  C   UNL     1      21.664  61.965  33.571  1.00  0.00     0.040 C 
BRANCH  28  29
ATOM     29  C   UNL     1      21.504  63.468  33.332  1.00  0.00     0.038 C 
BRANCH  29  30
ATOM     30  C   UNL     1      20.090  63.866  33.662  1.00  0.00    -0.042 A 
ATOM     31  C   UNL     1      19.702  63.988  35.001  1.00  0.00     0.050 A 
ATOM     32  C   UNL     1      19.166  64.153  32.643  1.00  0.00     0.033 A 
ATOM     33  C   UNL     1      18.412  64.419  35.305  1.00  0.00     0.124 A 
ATOM     34  C   UNL     1      17.862  64.566  32.980  1.00  0.00     0.073 A 
ATOM     35  N   UNL     1      17.541  64.691  34.300  1.00  0.00    -0.231 NA
BRANCH  33  36
ATOM     36  N   UNL     1      18.008  64.587  36.649  1.00  0.00    -0.384 N 
ATOM     37  H   UNL     1      18.469  64.064  37.407  1.00  0.00     0.158 HD
ATOM     38  H   UNL     1      17.261  65.254  36.885  1.00  0.00     0.158 HD
ENDBRANCH  33  36
BRANCH  34  39
ATOM     39  C   UNL     1      16.799  64.849  31.965  1.00  0.00     0.006 A 
ATOM     40  C   UNL     1      16.921  64.494  30.606  1.00  0.00     0.057 A 
ATOM     41  C   UNL     1      15.609  65.470  32.383  1.00  0.00     0.041 A 
ATOM     42  C   UNL     1      15.857  64.738  29.721  1.00  0.00     0.124 A 
ATOM     43  C   UNL     1      14.569  65.696  31.476  1.00  0.00     0.108 A 
ATOM     44  N   UNL     1      14.714  65.314  30.178  1.00  0.00    -0.230 NA
BRANCH  42  45
ATOM     45  N   UNL     1      15.964  64.377  28.356  1.00  0.00    -0.384 N 
ATOM     46  H   UNL     1      15.123  64.252  27.773  1.00  0.00     0.158 HD
ATOM     47  H   UNL     1      16.892  64.229  27.932  1.00  0.00     0.158 HD
ENDBRANCH  42  45
BRANCH  43  48
ATOM     48  C   UNL     1      13.288  66.329  31.935  1.00  0.00     0.413 C 
BRANCH  48  49
ATOM     49  N   UNL     1      12.161  65.687  31.293  1.00  0.00    -0.196 N 
ATOM     50  C   UNL     1      11.924  64.413  31.283  1.00  0.00     0.319 C 
ATOM     51  C   UNL     1      11.168  66.389  30.542  1.00  0.00     0.337 C 
ATOM     52  C   UNL     1      10.717  64.219  30.492  1.00  0.00     0.072 C 
ATOM     53  C   UNL     1      10.333  65.480  30.084  1.00  0.00     0.140 C 
ATOM     54  C   UNL     1       9.839  63.368  29.989  1.00  0.00     0.037 C 
ATOM     55  N   UNL     1       9.179  65.426  29.303  1.00  0.00    -0.250 NA
ATOM     56  C   UNL     1       8.910  64.157  29.265  1.00  0.00     0.113 C 
ENDBRANCH  48  49
ENDBRANCH  43  48
ENDBRANCH  34  39
ENDBRANCH  29  30
ENDBRANCH  28  29
ENDBRANCH   4  28
TORSDOF 12
ENDMDL
MODEL 7
REMARK VINA RESULT:   -12.209      2.224      3.599
REMARK INTER + INTRA:         -21.095
REMARK INTER:                 -20.723
REMARK INTRA:                  -0.372
REMARK UNBOUND:                -1.392
REMARK SMILES Cc1cc(=O)c2c(O)c3c(cc2o1)OC(C)(C)[C@H](OC(=O)[C@@]1(C)O[C@@H]1CCc1cc(N)nc(-c2cc(N)nc(C[N+]4=CC5=CC=NC5=C4)c2)c1)C3
REMARK SMILES IDX 22 1 23 2 24 3 25 4 20 5 21 6 19 7 18 8 2 9 3 10 13 11 4 12
REMARK SMILES IDX 12 13 5 14 6 15 11 16 7 17 10 18 9 19 14 20 51 21 15 22 1 23
REMARK SMILES IDX 16 24 17 25 8 26 26 28 27 29 28 30 29 31 50 32 30 33 33 34
REMARK SMILES IDX 32 35 31 36 34 39 35 40 49 41 36 42 39 43 38 44 37 45 40 48
REMARK SMILES IDX 41 49 42 50 48 51 43 52 47 53 44 54 46 55 45 56
REMARK H PARENT 8 27 31 37 31 38 37 46 37 47
ROOT
ATOM      1  C   UNL     1      21.309  61.720  36.048  1.00  0.00     0.188 C 
ATOM      2  C   UNL     1      20.879  62.978  36.813  1.00  0.00     0.058 C 
ATOM      3  O   UNL     1      21.796  61.919  34.738  1.00  0.00    -0.354 OA
ATOM      4  C   UNL     1      20.535  61.278  34.854  1.00  0.00     0.163 C 
ENDROOT
BRANCH   1   5
ATOM      5  C   UNL     1      21.989  60.610  36.799  1.00  0.00     0.341 C 
ATOM      6  O   UNL     1      22.279  59.570  36.221  1.00  0.00    -0.249 OA
BRANCH   5   7
ATOM      7  O   UNL     1      22.334  60.802  38.102  1.00  0.00    -0.456 OA
BRANCH   7   8
ATOM      8  C   UNL     1      23.561  60.474  38.655  1.00  0.00     0.224 C 
ATOM      9  C   UNL     1      28.724  58.688  43.584  1.00  0.00     0.105 A 
ATOM     10  C   UNL     1      27.670  58.114  44.295  1.00  0.00     0.095 A 
ATOM     11  O   UNL     1      28.480  59.367  42.473  1.00  0.00    -0.461 OA
ATOM     12  C   UNL     1      26.365  58.250  43.819  1.00  0.00     0.196 A 
ATOM     13  C   UNL     1      27.258  59.527  41.972  1.00  0.00     0.145 A 
ATOM     14  O   UNL     1      25.469  57.732  44.458  1.00  0.00    -0.289 OA
ATOM     15  C   UNL     1      26.121  58.969  42.618  1.00  0.00     0.107 A 
ATOM     16  C   UNL     1      27.122  60.261  40.796  1.00  0.00     0.094 A 
ATOM     17  C   UNL     1      24.833  59.156  42.017  1.00  0.00     0.137 A 
ATOM     18  C   UNL     1      25.875  60.448  40.216  1.00  0.00     0.131 A 
ATOM     19  C   UNL     1      24.729  59.872  40.805  1.00  0.00     0.041 A 
ATOM     20  O   UNL     1      25.778  61.196  39.084  1.00  0.00    -0.483 OA
ATOM     21  C   UNL     1      23.384  60.031  40.120  1.00  0.00     0.093 C 
ATOM     22  C   UNL     1      24.574  61.641  38.556  1.00  0.00     0.140 C 
ATOM     23  C   UNL     1      30.139  58.548  44.049  1.00  0.00     0.088 C 
ATOM     24  C   UNL     1      24.807  62.020  37.083  1.00  0.00     0.060 C 
ATOM     25  C   UNL     1      24.102  62.899  39.319  1.00  0.00     0.060 C 
BRANCH  17  26
ATOM     26  O   UNL     1      23.682  58.666  42.536  1.00  0.00    -0.507 OA
ATOM     27  H   UNL     1      23.556  57.824  42.982  1.00  0.00     0.293 HD
ENDBRANCH  17  26
ENDBRANCH   7   8
ENDBRANCH   5   7
ENDBRANCH   1   5
BRANCH   4  28
ATOM     28  C   UNL     1      19.390  62.159  34.352  1.00  0.00     0.040 C 
BRANCH  28  29
ATOM     29  C   UNL     1      19.846  63.055  33.199  1.00  0.00     0.038 C 
BRANCH  29  30
ATOM     30  C   UNL     1      18.632  63.631  32.522  1.00  0.00    -0.042 A 
ATOM     31  C   UNL     1      17.758  64.448  33.249  1.00  0.00     0.050 A 
ATOM     32  C   UNL     1      18.384  63.392  31.159  1.00  0.00     0.033 A 
ATOM     33  C   UNL     1      16.669  65.033  32.604  1.00  0.00     0.124 A 
ATOM     34  C   UNL     1      17.265  63.979  30.539  1.00  0.00     0.073 A 
ATOM     35  N   UNL     1      16.457  64.785  31.286  1.00  0.00    -0.231 NA
BRANCH  33  36
ATOM     36  N   UNL     1      15.794  65.892  33.308  1.00  0.00    -0.384 N 
ATOM     37  H   UNL     1      15.622  66.852  32.980  1.00  0.00     0.158 HD
ATOM     38  H   UNL     1      15.302  65.554  34.147  1.00  0.00     0.158 HD
ENDBRANCH  33  36
BRANCH  34  39
ATOM     39  C   UNL     1      16.898  63.744  29.107  1.00  0.00     0.006 A 
ATOM     40  C   UNL     1      17.640  64.266  28.028  1.00  0.00     0.057 A 
ATOM     41  C   UNL     1      15.781  62.942  28.815  1.00  0.00     0.041 A 
ATOM     42  C   UNL     1      17.271  63.954  26.708  1.00  0.00     0.124 A 
ATOM     43  C   UNL     1      15.442  62.650  27.491  1.00  0.00     0.108 A 
ATOM     44  N   UNL     1      16.200  63.151  26.477  1.00  0.00    -0.230 NA
BRANCH  42  45
ATOM     45  N   UNL     1      18.014  64.465  25.617  1.00  0.00    -0.384 N 
ATOM     46  H   UNL     1      19.045  64.458  25.628  1.00  0.00     0.158 HD
ATOM     47  H   UNL     1      17.526  64.857  24.798  1.00  0.00     0.158 HD
ENDBRANCH  42  45
BRANCH  43  48
ATOM     48  C   UNL     1      14.269  61.765  27.186  1.00  0.00     0.413 C 
BRANCH  48  49
ATOM     49  N   UNL     1      13.090  62.255  27.865  1.00  0.00    -0.196 N 
ATOM     50  C   UNL     1      12.146  62.960  27.325  1.00  0.00     0.319 C 
ATOM     51  C   UNL     1      12.830  62.052  29.257  1.00  0.00     0.337 C 
ATOM     52  C   UNL     1      11.191  63.261  28.383  1.00  0.00     0.072 C 
ATOM     53  C   UNL     1      11.696  62.665  29.520  1.00  0.00     0.140 C 
ATOM     54  C   UNL     1      10.064  63.859  28.729  1.00  0.00     0.037 C 
ATOM     55  N   UNL     1      10.865  62.891  30.617  1.00  0.00    -0.250 NA
ATOM     56  C   UNL     1       9.903  63.603  30.114  1.00  0.00     0.113 C 
ENDBRANCH  48  49
ENDBRANCH  43  48
ENDBRANCH  34  39
ENDBRANCH  29  30
ENDBRANCH  28  29
ENDBRANCH   4  28
TORSDOF 12
ENDMDL
MODEL 8
REMARK VINA RESULT:   -12.069      1.621      2.345
REMARK INTER + INTRA:         -20.870
REMARK INTER:                 -20.520
REMARK INTRA:                  -0.350
REMARK UNBOUND:                -1.392
REMARK SMILES Cc1cc(=O)c2c(O)c3c(cc2o1)OC(C)(C)[C@H](OC(=O)[C@@]1(C)O[C@@H]1CCc1cc(N)nc(-c2cc(N)nc(C[N+]4=CC5=CC=NC5=C4)c2)c1)C3
REMARK SMILES IDX 22 1 23 2 24 3 25 4 20 5 21 6 19 7 18 8 2 9 3 10 13 11 4 12
REMARK SMILES IDX 12 13 5 14 6 15 11 16 7 17 10 18 9 19 14 20 51 21 15 22 1 23
REMARK SMILES IDX 16 24 17 25 8 26 26 28 27 29 28 30 29 31 50 32 30 33 33 34
REMARK SMILES IDX 32 35 31 36 34 39 35 40 49 41 36 42 39 43 38 44 37 45 40 48
REMARK SMILES IDX 41 49 42 50 48 51 43 52 47 53 44 54 46 55 45 56
REMARK H PARENT 8 27 31 37 31 38 37 46 37 47
ROOT
ATOM      1  C   UNL     1      22.711  60.660  38.619  1.00  0.00     0.188 C 
ATOM      2  C   UNL     1      21.697  60.280  39.707  1.00  0.00     0.058 C 
ATOM      3  O   UNL     1      22.817  62.034  38.314  1.00  0.00    -0.354 OA
ATOM      4  C   UNL     1      22.232  61.208  37.319  1.00  0.00     0.163 C 
ENDROOT
BRANCH   1   5
ATOM      5  C   UNL     1      24.009  59.906  38.542  1.00  0.00     0.341 C 
ATOM      6  O   UNL     1      24.668  59.930  37.510  1.00  0.00    -0.249 OA
BRANCH   5   7
ATOM      7  O   UNL     1      24.468  59.257  39.647  1.00  0.00    -0.456 OA
BRANCH   7   8
ATOM      8  C   UNL     1      25.757  59.354  40.146  1.00  0.00     0.224 C 
ATOM      9  C   UNL     1      31.990  57.721  43.698  1.00  0.00     0.105 A 
ATOM     10  C   UNL     1      31.626  56.394  43.471  1.00  0.00     0.095 A 
ATOM     11  O   UNL     1      31.168  58.701  43.353  1.00  0.00    -0.461 OA
ATOM     12  C   UNL     1      30.399  56.111  42.869  1.00  0.00     0.196 A 
ATOM     13  C   UNL     1      29.989  58.491  42.776  1.00  0.00     0.145 A 
ATOM     14  O   UNL     1      30.113  54.945  42.678  1.00  0.00    -0.289 OA
ATOM     15  C   UNL     1      29.533  57.174  42.493  1.00  0.00     0.107 A 
ATOM     16  C   UNL     1      29.207  59.600  42.458  1.00  0.00     0.094 A 
ATOM     17  C   UNL     1      28.264  57.013  41.848  1.00  0.00     0.137 A 
ATOM     18  C   UNL     1      27.975  59.445  41.838  1.00  0.00     0.131 A 
ATOM     19  C   UNL     1      27.510  58.156  41.501  1.00  0.00     0.041 A 
ATOM     20  O   UNL     1      27.227  60.550  41.571  1.00  0.00    -0.483 OA
ATOM     21  C   UNL     1      26.191  58.012  40.765  1.00  0.00     0.093 C 
ATOM     22  C   UNL     1      25.897  60.502  41.175  1.00  0.00     0.140 C 
ATOM     23  C   UNL     1      33.305  58.067  44.321  1.00  0.00     0.088 C 
ATOM     24  C   UNL     1      25.542  61.848  40.522  1.00  0.00     0.060 C 
ATOM     25  C   UNL     1      24.992  60.299  42.411  1.00  0.00     0.060 C 
BRANCH  17  26
ATOM     26  O   UNL     1      27.731  55.811  41.522  1.00  0.00    -0.507 OA
ATOM     27  H   UNL     1      27.469  55.108  42.123  1.00  0.00     0.293 HD
ENDBRANCH  17  26
ENDBRANCH   7   8
ENDBRANCH   5   7
ENDBRANCH   1   5
BRANCH   4  28
ATOM     28  C   UNL     1      20.739  61.484  37.142  1.00  0.00     0.040 C 
BRANCH  28  29
ATOM     29  C   UNL     1      20.496  62.900  36.616  1.00  0.00     0.038 C 
BRANCH  29  30
ATOM     30  C   UNL     1      20.363  62.846  35.118  1.00  0.00    -0.042 A 
ATOM     31  C   UNL     1      21.340  62.189  34.361  1.00  0.00     0.050 A 
ATOM     32  C   UNL     1      19.252  63.415  34.472  1.00  0.00     0.033 A 
ATOM     33  C   UNL     1      21.183  62.084  32.981  1.00  0.00     0.124 A 
ATOM     34  C   UNL     1      19.129  63.311  33.072  1.00  0.00     0.073 A 
ATOM     35  N   UNL     1      20.097  62.640  32.384  1.00  0.00    -0.231 NA
BRANCH  33  36
ATOM     36  N   UNL     1      22.136  61.391  32.199  1.00  0.00    -0.384 N 
ATOM     37  H   UNL     1      22.434  61.758  31.284  1.00  0.00     0.158 HD
ATOM     38  H   UNL     1      22.558  60.521  32.551  1.00  0.00     0.158 HD
ENDBRANCH  33  36
BRANCH  34  39
ATOM     39  C   UNL     1      18.006  63.923  32.296  1.00  0.00     0.006 A 
ATOM     40  C   UNL     1      16.905  64.557  32.908  1.00  0.00     0.057 A 
ATOM     41  C   UNL     1      18.058  63.897  30.892  1.00  0.00     0.041 A 
ATOM     42  C   UNL     1      15.916  65.163  32.114  1.00  0.00     0.124 A 
ATOM     43  C   UNL     1      17.057  64.511  30.132  1.00  0.00     0.108 A 
ATOM     44  N   UNL     1      16.025  65.136  30.760  1.00  0.00    -0.230 NA
BRANCH  42  45
ATOM     45  N   UNL     1      14.811  65.810  32.717  1.00  0.00    -0.384 N 
ATOM     46  H   UNL     1      13.925  65.934  32.205  1.00  0.00     0.158 HD
ATOM     47  H   UNL     1      14.887  66.172  33.680  1.00  0.00     0.158 HD
ENDBRANCH  42  45
BRANCH  43  48
ATOM     48  C   UNL     1      17.135  64.508  28.633  1.00  0.00     0.413 C 
BRANCH  48  49
ATOM     49  N   UNL     1      16.087  63.677  28.084  1.00  0.00    -0.196 N 
ATOM     50  C   UNL     1      15.791  62.478  28.476  1.00  0.00     0.319 C 
ATOM     51  C   UNL     1      15.251  64.068  26.991  1.00  0.00     0.337 C 
ATOM     52  C   UNL     1      14.707  62.014  27.621  1.00  0.00     0.072 C 
ATOM     53  C   UNL     1      14.450  63.053  26.750  1.00  0.00     0.140 C 
ATOM     54  C   UNL     1      13.874  61.036  27.311  1.00  0.00     0.037 C 
ATOM     55  N   UNL     1      13.423  62.723  25.865  1.00  0.00    -0.250 NA
ATOM     56  C   UNL     1      13.101  61.519  26.224  1.00  0.00     0.113 C 
ENDBRANCH  48  49
ENDBRANCH  43  48
ENDBRANCH  34  39
ENDBRANCH  29  30
ENDBRANCH  28  29
ENDBRANCH   4  28
TORSDOF 12
ENDMDL
MODEL 9
REMARK VINA RESULT:   -12.061      2.439      3.590
REMARK INTER + INTRA:         -20.856
REMARK INTER:                 -20.198
REMARK INTRA:                  -0.659
REMARK UNBOUND:                -1.392
REMARK SMILES Cc1cc(=O)c2c(O)c3c(cc2o1)OC(C)(C)[C@H](OC(=O)[C@@]1(C)O[C@@H]1CCc1cc(N)nc(-c2cc(N)nc(C[N+]4=CC5=CC=NC5=C4)c2)c1)C3
REMARK SMILES IDX 22 1 23 2 24 3 25 4 20 5 21 6 19 7 18 8 2 9 3 10 13 11 4 12
REMARK SMILES IDX 12 13 5 14 6 15 11 16 7 17 10 18 9 19 14 20 51 21 15 22 1 23
REMARK SMILES IDX 16 24 17 25 8 26 26 28 27 29 28 30 29 31 50 32 30 33 33 34
REMARK SMILES IDX 32 35 31 36 34 39 35 40 49 41 36 42 39 43 38 44 37 45 40 48
REMARK SMILES IDX 41 49 42 50 48 51 43 52 47 53 44 54 46 55 45 56
REMARK H PARENT 8 27 31 37 31 38 37 46 37 47
ROOT
ATOM      1  C   UNL     1      23.439  61.623  38.847  1.00  0.00     0.188 C 
ATOM      2  C   UNL     1      24.705  61.785  37.995  1.00  0.00     0.058 C 
ATOM      3  O   UNL     1      22.432  60.786  38.321  1.00  0.00    -0.354 OA
ATOM      4  C   UNL     1      22.143  62.175  38.363  1.00  0.00     0.163 C 
ENDROOT
BRANCH   1   5
ATOM      5  C   UNL     1      23.575  61.564  40.343  1.00  0.00     0.341 C 
ATOM      6  O   UNL     1      22.618  61.843  41.054  1.00  0.00    -0.249 OA
BRANCH   5   7
ATOM      7  O   UNL     1      24.747  61.135  40.888  1.00  0.00    -0.456 OA
BRANCH   7   8
ATOM      8  C   UNL     1      24.869  60.077  41.776  1.00  0.00     0.224 C 
ATOM      9  C   UNL     1      26.934  56.071  47.591  1.00  0.00     0.105 A 
ATOM     10  C   UNL     1      27.061  57.302  48.237  1.00  0.00     0.095 A 
ATOM     11  O   UNL     1      26.636  56.029  46.301  1.00  0.00    -0.461 OA
ATOM     12  C   UNL     1      26.860  58.480  47.517  1.00  0.00     0.196 A 
ATOM     13  C   UNL     1      26.432  57.118  45.566  1.00  0.00     0.145 A 
ATOM     14  O   UNL     1      26.971  59.536  48.109  1.00  0.00    -0.289 OA
ATOM     15  C   UNL     1      26.528  58.418  46.137  1.00  0.00     0.107 A 
ATOM     16  C   UNL     1      26.124  56.952  44.217  1.00  0.00     0.094 A 
ATOM     17  C   UNL     1      26.274  59.552  45.298  1.00  0.00     0.137 A 
ATOM     18  C   UNL     1      25.884  58.051  43.404  1.00  0.00     0.131 A 
ATOM     19  C   UNL     1      25.926  59.354  43.944  1.00  0.00     0.041 A 
ATOM     20  O   UNL     1      25.617  57.849  42.085  1.00  0.00    -0.483 OA
ATOM     21  C   UNL     1      25.595  60.537  43.054  1.00  0.00     0.093 C 
ATOM     22  C   UNL     1      25.593  58.866  41.140  1.00  0.00     0.140 C 
ATOM     23  C   UNL     1      27.121  54.785  48.332  1.00  0.00     0.088 C 
ATOM     24  C   UNL     1      24.814  58.364  39.913  1.00  0.00     0.060 C 
ATOM     25  C   UNL     1      27.037  59.205  40.703  1.00  0.00     0.060 C 
BRANCH  17  26
ATOM     26  O   UNL     1      26.328  60.835  45.731  1.00  0.00    -0.507 OA
ATOM     27  H   UNL     1      26.125  61.162  46.612  1.00  0.00     0.293 HD
ENDBRANCH  17  26
ENDBRANCH   7   8
ENDBRANCH   5   7
ENDBRANCH   1   5
BRANCH   4  28
ATOM     28  C   UNL     1      22.084  62.796  36.967  1.00  0.00     0.040 C 
BRANCH  28  29
ATOM     29  C   UNL     1      20.652  63.188  36.596  1.00  0.00     0.038 C 
BRANCH  29  30
ATOM     30  C   UNL     1      20.482  63.057  35.106  1.00  0.00    -0.042 A 
ATOM     31  C   UNL     1      21.418  62.325  34.367  1.00  0.00     0.050 A 
ATOM     32  C   UNL     1      19.376  63.626  34.454  1.00  0.00     0.033 A 
ATOM     33  C   UNL     1      21.225  62.150  32.998  1.00  0.00     0.124 A 
ATOM     34  C   UNL     1      19.217  63.451  33.065  1.00  0.00     0.073 A 
ATOM     35  N   UNL     1      20.145  62.710  32.395  1.00  0.00    -0.231 NA
BRANCH  33  36
ATOM     36  N   UNL     1      22.136  61.383  32.236  1.00  0.00    -0.384 N 
ATOM     37  H   UNL     1      21.800  60.683  31.560  1.00  0.00     0.158 HD
ATOM     38  H   UNL     1      23.150  61.535  32.336  1.00  0.00     0.158 HD
ENDBRANCH  33  36
BRANCH  34  39
ATOM     39  C   UNL     1      18.096  64.058  32.281  1.00  0.00     0.006 A 
ATOM     40  C   UNL     1      17.993  63.949  30.879  1.00  0.00     0.057 A 
ATOM     41  C   UNL     1      17.080  64.743  32.968  1.00  0.00     0.041 A 
ATOM     42  C   UNL     1      16.880  64.494  30.215  1.00  0.00     0.124 A 
ATOM     43  C   UNL     1      15.986  65.272  32.276  1.00  0.00     0.108 A 
ATOM     44  N   UNL     1      15.908  65.123  30.926  1.00  0.00    -0.230 NA
BRANCH  42  45
ATOM     45  N   UNL     1      16.761  64.383  28.809  1.00  0.00    -0.384 N 
ATOM     46  H   UNL     1      17.558  64.078  28.232  1.00  0.00     0.158 HD
ATOM     47  H   UNL     1      15.869  64.615  28.346  1.00  0.00     0.158 HD
ENDBRANCH  42  45
BRANCH  43  48
ATOM     48  C   UNL     1      14.886  65.973  33.020  1.00  0.00     0.413 C 
BRANCH  48  49
ATOM     49  N   UNL     1      13.618  65.739  32.365  1.00  0.00    -0.196 N 
ATOM     50  C   UNL     1      12.901  64.665  32.470  1.00  0.00     0.319 C 
ATOM     51  C   UNL     1      13.001  66.669  31.470  1.00  0.00     0.337 C 
ATOM     52  C   UNL     1      11.739  64.852  31.613  1.00  0.00     0.072 C 
ATOM     53  C   UNL     1      11.891  66.101  31.048  1.00  0.00     0.140 C 
ATOM     54  C   UNL     1      10.614  64.348  31.138  1.00  0.00     0.037 C 
ATOM     55  N   UNL     1      10.831  66.397  30.191  1.00  0.00    -0.250 NA
ATOM     56  C   UNL     1      10.088  65.336  30.266  1.00  0.00     0.113 C 
ENDBRANCH  48  49
ENDBRANCH  43  48
ENDBRANCH  34  39
ENDBRANCH  29  30
ENDBRANCH  28  29
ENDBRANCH   4  28
TORSDOF 12
ENDMDL
