MODEL 1
REMARK VINA RESULT:   -11.923      0.000      0.000
REMARK INTER + INTRA:         -20.709
REMARK INTER:                 -18.893
REMARK INTRA:                  -1.817
REMARK UNBOUND:                -1.817
REMARK SMILES CO[C@H]1[C@H](O)[C@H](O[C@H]2CC[C@@]3(C)[C@@H](C2)C[C@@H]2O[C@]24[C@@H]3CC[C@]2(C)[C@H](C3=CC(=O)OC3)CC[C@]42O)O[C@@H](C)[C@@H]1O[C@@H]1O[C@H](CO)[C@@H](O)[C@H](O)[C@H]1O
REMARK SMILES IDX 3 1 4 2 6 3 35 4 36 5 37 6 38 7 2 8 1 9 5 10 39 12 40 13
REMARK SMILES IDX 41 14 49 15 42 16 47 17 45 18 50 19 43 21 44 22 48 24 46 26
REMARK SMILES IDX 7 28 8 29 9 30 14 31 10 32 13 33 11 34 15 35 19 36 16 37
REMARK SMILES IDX 18 38 20 39 17 40 33 41 21 42 32 43 22 44 31 45 24 46 12 47
REMARK SMILES IDX 23 48 34 49 25 51 26 52 30 53 27 54 29 55 28 56
REMARK H PARENT 5 11 50 20 44 23 48 25 46 27 34 50
ROOT
ATOM      1  C   UNL     1      22.693  60.520  37.520  1.00  0.00     0.183 C 
ATOM      2  C   UNL     1      22.681  60.287  39.047  1.00  0.00     0.202 C 
ATOM      3  C   UNL     1      23.967  60.903  39.635  1.00  0.00     0.282 C 
ATOM      4  O   UNL     1      23.977  62.312  39.433  1.00  0.00    -0.344 OA
ATOM      5  C   UNL     1      24.040  62.653  38.045  1.00  0.00     0.150 C 
ATOM      6  C   UNL     1      25.447  62.416  37.456  1.00  0.00     0.041 C 
ATOM      7  C   UNL     1      22.888  62.016  37.207  1.00  0.00     0.182 C 
ENDROOT
BRANCH   1   8
ATOM      8  O   UNL     1      23.776  59.791  36.955  1.00  0.00    -0.376 OA
ATOM      9  C   UNL     1      23.757  59.873  35.546  1.00  0.00     0.195 C 
ENDBRANCH   1   8
BRANCH   2  10
ATOM     10  O   UNL     1      21.512  60.800  39.648  1.00  0.00    -0.385 OA
ATOM     11  H   UNL     1      21.578  60.701  40.631  1.00  0.00     0.211 HD
ENDBRANCH   2  10
BRANCH   7  12
ATOM     12  O   UNL     1      21.664  62.709  37.455  1.00  0.00    -0.341 OA
BRANCH  12  13
ATOM     13  C   UNL     1      20.726  62.581  36.384  1.00  0.00     0.282 C 
ATOM     14  O   UNL     1      20.665  63.815  35.685  1.00  0.00    -0.341 OA
ATOM     15  C   UNL     1      19.332  62.226  36.943  1.00  0.00     0.202 C 
ATOM     16  C   UNL     1      19.866  63.692  34.513  1.00  0.00     0.178 C 
ATOM     17  C   UNL     1      18.352  62.088  35.757  1.00  0.00     0.179 C 
ATOM     18  C   UNL     1      18.396  63.366  34.896  1.00  0.00     0.177 C 
BRANCH  15  19
ATOM     19  O   UNL     1      19.368  61.041  37.699  1.00  0.00    -0.385 OA
ATOM     20  H   UNL     1      20.090  61.134  38.375  1.00  0.00     0.211 HD
ENDBRANCH  15  19
BRANCH  16  21
ATOM     21  C   UNL     1      19.939  65.008  33.728  1.00  0.00     0.191 C 
BRANCH  21  22
ATOM     22  O   UNL     1      19.451  64.830  32.425  1.00  0.00    -0.394 OA
ATOM     23  H   UNL     1      18.717  65.488  32.301  1.00  0.00     0.210 HD
ENDBRANCH  21  22
ENDBRANCH  16  21
BRANCH  17  24
ATOM     24  O   UNL     1      17.046  61.807  36.194  1.00  0.00    -0.387 OA
ATOM     25  H   UNL     1      16.780  62.526  36.824  1.00  0.00     0.211 HD
ENDBRANCH  17  24
BRANCH  18  26
ATOM     26  O   UNL     1      17.585  63.226  33.756  1.00  0.00    -0.387 OA
ATOM     27  H   UNL     1      17.838  63.943  33.117  1.00  0.00     0.211 HD
ENDBRANCH  18  26
ENDBRANCH  12  13
ENDBRANCH   7  12
BRANCH   3  28
ATOM     28  O   UNL     1      24.050  60.615  41.031  1.00  0.00    -0.347 OA
BRANCH  28  29
ATOM     29  C   UNL     1      24.382  59.250  41.296  1.00  0.00     0.122 C 
ATOM     30  C   UNL     1      25.422  58.757  40.278  1.00  0.00     0.033 C 
ATOM     31  C   UNL     1      24.820  59.048  42.763  1.00  0.00     0.036 C 
ATOM     32  C   UNL     1      26.253  57.614  40.878  1.00  0.00     0.010 C 
ATOM     33  C   UNL     1      26.345  59.118  43.012  1.00  0.00     0.000 C 
ATOM     34  C   UNL     1      27.152  58.117  42.072  1.00  0.00    -0.024 C 
ATOM     35  C   UNL     1      26.544  58.876  44.538  1.00  0.00     0.039 C 
ATOM     36  C   UNL     1      27.660  56.869  42.904  1.00  0.00     0.033 C 
ATOM     37  C   UNL     1      27.890  58.348  45.034  1.00  0.00     0.155 C 
ATOM     38  C   UNL     1      28.443  57.246  44.209  1.00  0.00     0.127 C 
ATOM     39  C   UNL     1      28.491  55.867  42.059  1.00  0.00     0.008 C 
ATOM     40  O   UNL     1      29.039  58.527  44.232  1.00  0.00    -0.363 OA
ATOM     41  C   UNL     1      29.172  56.123  45.007  1.00  0.00     0.102 C 
ATOM     42  C   UNL     1      28.985  54.677  42.894  1.00  0.00     0.011 C 
ATOM     43  C   UNL     1      28.184  55.180  45.746  1.00  0.00     0.040 C 
ATOM     44  C   UNL     1      29.926  55.127  44.072  1.00  0.00     0.006 C 
ATOM     45  C   UNL     1      28.906  53.823  45.868  1.00  0.00     0.012 C 
ATOM     46  C   UNL     1      30.223  53.986  45.092  1.00  0.00     0.028 C 
ATOM     47  C   UNL     1      28.351  58.902  41.426  1.00  0.00     0.012 C 
ATOM     48  C   UNL     1      31.239  55.739  43.514  1.00  0.00     0.015 C 
BRANCH  41  49
ATOM     49  O   UNL     1      30.100  56.679  45.924  1.00  0.00    -0.386 OA
ATOM     50  H   UNL     1      31.025  56.482  45.625  1.00  0.00     0.211 HD
ENDBRANCH  41  49
BRANCH  46  51
ATOM     51  C   UNL     1      30.842  52.659  44.676  1.00  0.00    -0.022 C 
ATOM     52  C   UNL     1      30.259  51.471  44.557  1.00  0.00     0.096 C 
ATOM     53  C   UNL     1      32.299  52.533  44.290  1.00  0.00     0.265 C 
ATOM     54  C   UNL     1      31.290  50.565  44.115  1.00  0.00     0.331 C 
ATOM     55  O   UNL     1      32.462  51.200  43.968  1.00  0.00    -0.458 OA
ATOM     56  O   UNL     1      31.132  49.377  43.893  1.00  0.00    -0.247 OA
ENDBRANCH  46  51
ENDBRANCH  28  29
ENDBRANCH   3  28
TORSDOF 13
ENDMDL
MODEL 2
REMARK VINA RESULT:   -11.587      3.334      5.401
REMARK INTER + INTRA:         -20.177
REMARK INTER:                 -19.007
REMARK INTRA:                  -1.170
REMARK UNBOUND:                -1.817
REMARK SMILES CO[C@H]1[C@H](O)[C@H](O[C@H]2CC[C@@]3(C)[C@@H](C2)C[C@@H]2O[C@]24[C@@H]3CC[C@]2(C)[C@H](C3=CC(=O)OC3)CC[C@]42O)O[C@@H](C)[C@@H]1O[C@@H]1O[C@H](CO)[C@@H](O)[C@H](O)[C@H]1O
REMARK SMILES IDX 3 1 4 2 6 3 35 4 36 5 37 6 38 7 2 8 1 9 5 10 39 12 40 13
REMARK SMILES IDX 41 14 49 15 42 16 47 17 45 18 50 19 43 21 44 22 48 24 46 26
REMARK SMILES IDX 7 28 8 29 9 30 14 31 10 32 13 33 11 34 15 35 19 36 16 37
REMARK SMILES IDX 18 38 20 39 17 40 33 41 21 42 32 43 22 44 31 45 24 46 12 47
REMARK SMILES IDX 23 48 34 49 25 51 26 52 30 53 27 54 29 55 28 56
REMARK H PARENT 5 11 50 20 44 23 48 25 46 27 34 50
ROOT
ATOM      1  C   UNL     1      23.227  62.720  38.822  1.00  0.00     0.183 C 
ATOM      2  C   UNL     1      24.682  62.320  39.156  1.00  0.00     0.202 C 
ATOM      3  C   UNL     1      24.684  60.840  39.590  1.00  0.00     0.282 C 
ATOM      4  O   UNL     1      24.265  60.009  38.513  1.00  0.00    -0.344 OA
ATOM      5  C   UNL     1      22.904  60.254  38.147  1.00  0.00     0.150 C 
ATOM      6  C   UNL     1      21.914  59.665  39.174  1.00  0.00     0.041 C 
ATOM      7  C   UNL     1      22.628  61.748  37.787  1.00  0.00     0.182 C 
ENDROOT
BRANCH   1   8
ATOM      8  O   UNL     1      22.452  62.655  40.012  1.00  0.00    -0.376 OA
ATOM      9  C   UNL     1      21.078  62.806  39.726  1.00  0.00     0.195 C 
ENDBRANCH   1   8
BRANCH   2  10
ATOM     10  O   UNL     1      25.556  62.568  38.076  1.00  0.00    -0.385 OA
ATOM     11  H   UNL     1      25.767  63.535  38.039  1.00  0.00     0.211 HD
ENDBRANCH   2  10
BRANCH   7  12
ATOM     12  O   UNL     1      23.166  62.047  36.499  1.00  0.00    -0.341 OA
BRANCH  12  13
ATOM     13  C   UNL     1      22.155  62.262  35.511  1.00  0.00     0.282 C 
ATOM     14  O   UNL     1      21.256  63.252  35.989  1.00  0.00    -0.341 OA
ATOM     15  C   UNL     1      21.391  60.947  35.244  1.00  0.00     0.202 C 
ATOM     16  C   UNL     1      20.324  63.617  34.978  1.00  0.00     0.178 C 
ATOM     17  C   UNL     1      20.317  61.217  34.167  1.00  0.00     0.179 C 
ATOM     18  C   UNL     1      19.431  62.401  34.605  1.00  0.00     0.177 C 
BRANCH  15  19
ATOM     19  O   UNL     1      22.261  59.922  34.832  1.00  0.00    -0.385 OA
ATOM     20  H   UNL     1      21.707  59.144  34.560  1.00  0.00     0.211 HD
ENDBRANCH  15  19
BRANCH  16  21
ATOM     21  C   UNL     1      19.464  64.776  35.497  1.00  0.00     0.191 C 
BRANCH  21  22
ATOM     22  O   UNL     1      18.384  64.289  36.250  1.00  0.00    -0.394 OA
ATOM     23  H   UNL     1      18.681  64.274  37.198  1.00  0.00     0.210 HD
ENDBRANCH  21  22
ENDBRANCH  16  21
BRANCH  17  24
ATOM     24  O   UNL     1      19.550  60.071  33.903  1.00  0.00    -0.387 OA
ATOM     25  H   UNL     1      19.823  59.370  34.550  1.00  0.00     0.211 HD
ENDBRANCH  17  24
BRANCH  18  26
ATOM     26  O   UNL     1      18.507  62.729  33.597  1.00  0.00    -0.387 OA
ATOM     27  H   UNL     1      17.710  63.124  34.038  1.00  0.00     0.211 HD
ENDBRANCH  18  26
ENDBRANCH  12  13
ENDBRANCH   7  12
BRANCH   3  28
ATOM     28  O   UNL     1      25.993  60.459  40.012  1.00  0.00    -0.347 OA
BRANCH  28  29
ATOM     29  C   UNL     1      26.348  61.012  41.282  1.00  0.00     0.122 C 
ATOM     30  C   UNL     1      25.385  60.500  42.364  1.00  0.00     0.033 C 
ATOM     31  C   UNL     1      27.834  60.753  41.617  1.00  0.00     0.036 C 
ATOM     32  C   UNL     1      26.070  60.514  43.737  1.00  0.00     0.010 C 
ATOM     33  C   UNL     1      28.110  59.490  42.464  1.00  0.00     0.000 C 
ATOM     34  C   UNL     1      27.250  59.469  43.805  1.00  0.00    -0.024 C 
ATOM     35  C   UNL     1      29.652  59.446  42.683  1.00  0.00     0.039 C 
ATOM     36  C   UNL     1      28.167  59.798  45.053  1.00  0.00     0.033 C 
ATOM     37  C   UNL     1      30.206  58.680  43.883  1.00  0.00     0.155 C 
ATOM     38  C   UNL     1      29.462  58.919  45.145  1.00  0.00     0.127 C 
ATOM     39  C   UNL     1      27.403  59.757  46.402  1.00  0.00     0.008 C 
ATOM     40  O   UNL     1      29.419  57.671  44.484  1.00  0.00    -0.363 OA
ATOM     41  C   UNL     1      30.342  58.999  46.429  1.00  0.00     0.102 C 
ATOM     42  C   UNL     1      28.319  60.062  47.596  1.00  0.00     0.011 C 
ATOM     43  C   UNL     1      31.117  60.340  46.538  1.00  0.00     0.040 C 
ATOM     44  C   UNL     1      29.486  59.017  47.733  1.00  0.00     0.006 C 
ATOM     45  C   UNL     1      31.338  60.579  48.045  1.00  0.00     0.012 C 
ATOM     46  C   UNL     1      30.580  59.446  48.757  1.00  0.00     0.028 C 
ATOM     47  C   UNL     1      26.582  58.052  43.943  1.00  0.00     0.012 C 
ATOM     48  C   UNL     1      28.918  57.612  48.071  1.00  0.00     0.015 C 
BRANCH  41  49
ATOM     49  O   UNL     1      31.242  57.904  46.490  1.00  0.00    -0.386 OA
ATOM     50  H   UNL     1      30.762  57.092  46.792  1.00  0.00     0.211 HD
ENDBRANCH  41  49
BRANCH  46  51
ATOM     51  C   UNL     1      30.259  59.761  50.211  1.00  0.00    -0.022 C 
ATOM     52  C   UNL     1      30.323  60.928  50.843  1.00  0.00     0.096 C 
ATOM     53  C   UNL     1      29.763  58.706  51.176  1.00  0.00     0.265 C 
ATOM     54  C   UNL     1      29.895  60.672  52.196  1.00  0.00     0.331 C 
ATOM     55  O   UNL     1      29.576  59.381  52.366  1.00  0.00    -0.458 OA
ATOM     56  O   UNL     1      29.818  61.509  53.078  1.00  0.00    -0.247 OA
ENDBRANCH  46  51
ENDBRANCH  28  29
ENDBRANCH   3  28
TORSDOF 13
ENDMDL
MODEL 3
REMARK VINA RESULT:   -11.507      2.288      2.993
REMARK INTER + INTRA:         -20.050
REMARK INTER:                 -19.362
REMARK INTRA:                  -0.688
REMARK UNBOUND:                -1.817
REMARK SMILES CO[C@H]1[C@H](O)[C@H](O[C@H]2CC[C@@]3(C)[C@@H](C2)C[C@@H]2O[C@]24[C@@H]3CC[C@]2(C)[C@H](C3=CC(=O)OC3)CC[C@]42O)O[C@@H](C)[C@@H]1O[C@@H]1O[C@H](CO)[C@@H](O)[C@H](O)[C@H]1O
REMARK SMILES IDX 3 1 4 2 6 3 35 4 36 5 37 6 38 7 2 8 1 9 5 10 39 12 40 13
REMARK SMILES IDX 41 14 49 15 42 16 47 17 45 18 50 19 43 21 44 22 48 24 46 26
REMARK SMILES IDX 7 28 8 29 9 30 14 31 10 32 13 33 11 34 15 35 19 36 16 37
REMARK SMILES IDX 18 38 20 39 17 40 33 41 21 42 32 43 22 44 31 45 24 46 12 47
REMARK SMILES IDX 23 48 34 49 25 51 26 52 30 53 27 54 29 55 28 56
REMARK H PARENT 5 11 50 20 44 23 48 25 46 27 34 50
ROOT
ATOM      1  C   UNL     1      23.206  62.710  38.829  1.00  0.00     0.183 C 
ATOM      2  C   UNL     1      24.588  62.121  39.185  1.00  0.00     0.202 C 
ATOM      3  C   UNL     1      24.389  60.649  39.600  1.00  0.00     0.282 C 
ATOM      4  O   UNL     1      23.887  59.890  38.505  1.00  0.00    -0.344 OA
ATOM      5  C   UNL     1      22.578  60.315  38.116  1.00  0.00     0.150 C 
ATOM      6  C   UNL     1      21.498  59.849  39.116  1.00  0.00     0.041 C 
ATOM      7  C   UNL     1      22.506  61.835  37.771  1.00  0.00     0.182 C 
ENDROOT
BRANCH   1   8
ATOM      8  O   UNL     1      22.404  62.735  40.003  1.00  0.00    -0.376 OA
ATOM      9  C   UNL     1      21.042  62.916  39.679  1.00  0.00     0.195 C 
ENDBRANCH   1   8
BRANCH   2  10
ATOM     10  O   UNL     1      25.510  62.263  38.125  1.00  0.00    -0.385 OA
ATOM     11  H   UNL     1      25.528  63.208  37.830  1.00  0.00     0.211 HD
ENDBRANCH   2  10
BRANCH   7  12
ATOM     12  O   UNL     1      23.104  62.075  36.497  1.00  0.00    -0.341 OA
BRANCH  12  13
ATOM     13  C   UNL     1      22.141  62.273  35.459  1.00  0.00     0.282 C 
ATOM     14  O   UNL     1      21.245  63.298  35.861  1.00  0.00    -0.341 OA
ATOM     15  C   UNL     1      21.361  60.965  35.207  1.00  0.00     0.202 C 
ATOM     16  C   UNL     1      20.364  63.644  34.798  1.00  0.00     0.178 C 
ATOM     17  C   UNL     1      20.340  61.217  34.075  1.00  0.00     0.179 C 
ATOM     18  C   UNL     1      19.462  62.433  34.431  1.00  0.00     0.177 C 
BRANCH  15  19
ATOM     19  O   UNL     1      22.225  59.908  34.871  1.00  0.00    -0.385 OA
ATOM     20  H   UNL     1      22.877  60.250  34.203  1.00  0.00     0.211 HD
ENDBRANCH  15  19
BRANCH  16  21
ATOM     21  C   UNL     1      19.509  64.839  35.237  1.00  0.00     0.191 C 
BRANCH  21  22
ATOM     22  O   UNL     1      20.318  65.961  35.475  1.00  0.00    -0.394 OA
ATOM     23  H   UNL     1      21.223  65.739  35.132  1.00  0.00     0.210 HD
ENDBRANCH  21  22
ENDBRANCH  16  21
BRANCH  17  24
ATOM     24  O   UNL     1      19.560  60.076  33.820  1.00  0.00    -0.387 OA
ATOM     25  H   UNL     1      19.992  59.308  34.275  1.00  0.00     0.211 HD
ENDBRANCH  17  24
BRANCH  18  26
ATOM     26  O   UNL     1      18.589  62.742  33.373  1.00  0.00    -0.387 OA
ATOM     27  H   UNL     1      18.627  61.992  32.723  1.00  0.00     0.211 HD
ENDBRANCH  18  26
ENDBRANCH  12  13
ENDBRANCH   7  12
BRANCH   3  28
ATOM     28  O   UNL     1      25.628  60.095  40.042  1.00  0.00    -0.347 OA
BRANCH  28  29
ATOM     29  C   UNL     1      25.459  58.897  40.804  1.00  0.00     0.122 C 
ATOM     30  C   UNL     1      26.578  57.899  40.466  1.00  0.00     0.033 C 
ATOM     31  C   UNL     1      25.346  59.197  42.315  1.00  0.00     0.036 C 
ATOM     32  C   UNL     1      26.821  56.952  41.647  1.00  0.00     0.010 C 
ATOM     33  C   UNL     1      26.672  59.116  43.105  1.00  0.00     0.000 C 
ATOM     34  C   UNL     1      27.411  57.720  42.893  1.00  0.00    -0.024 C 
ATOM     35  C   UNL     1      26.312  59.439  44.586  1.00  0.00     0.039 C 
ATOM     36  C   UNL     1      27.260  56.815  44.184  1.00  0.00     0.033 C 
ATOM     37  C   UNL     1      27.230  58.933  45.698  1.00  0.00     0.155 C 
ATOM     38  C   UNL     1      27.675  57.528  45.517  1.00  0.00     0.127 C 
ATOM     39  C   UNL     1      27.990  55.452  44.064  1.00  0.00     0.008 C 
ATOM     40  O   UNL     1      28.573  58.612  45.393  1.00  0.00    -0.363 OA
ATOM     41  C   UNL     1      27.770  56.689  46.827  1.00  0.00     0.102 C 
ATOM     42  C   UNL     1      27.843  54.603  45.334  1.00  0.00     0.011 C 
ATOM     43  C   UNL     1      26.377  56.263  47.364  1.00  0.00     0.040 C 
ATOM     44  C   UNL     1      28.460  55.309  46.597  1.00  0.00     0.006 C 
ATOM     45  C   UNL     1      26.609  54.958  48.151  1.00  0.00     0.012 C 
ATOM     46  C   UNL     1      28.090  54.606  47.938  1.00  0.00     0.028 C 
ATOM     47  C   UNL     1      28.922  58.005  42.565  1.00  0.00     0.012 C 
ATOM     48  C   UNL     1      29.998  55.451  46.441  1.00  0.00     0.015 C 
BRANCH  41  49
ATOM     49  O   UNL     1      28.487  57.397  47.826  1.00  0.00    -0.386 OA
ATOM     50  H   UNL     1      28.022  58.247  48.034  1.00  0.00     0.211 HD
ENDBRANCH  41  49
BRANCH  46  51
ATOM     51  C   UNL     1      28.404  53.141  48.206  1.00  0.00    -0.022 C 
ATOM     52  C   UNL     1      27.675  52.068  47.913  1.00  0.00     0.096 C 
ATOM     53  C   UNL     1      29.694  52.696  48.859  1.00  0.00     0.265 C 
ATOM     54  C   UNL     1      28.442  50.933  48.364  1.00  0.00     0.331 C 
ATOM     55  O   UNL     1      29.605  51.319  48.908  1.00  0.00    -0.458 OA
ATOM     56  O   UNL     1      28.096  49.768  48.264  1.00  0.00    -0.247 OA
ENDBRANCH  46  51
ENDBRANCH  28  29
ENDBRANCH   3  28
TORSDOF 13
ENDMDL
MODEL 4
REMARK VINA RESULT:   -11.420      2.890      4.558
REMARK INTER + INTRA:         -19.913
REMARK INTER:                 -18.875
REMARK INTRA:                  -1.039
REMARK UNBOUND:                -1.817
REMARK SMILES CO[C@H]1[C@H](O)[C@H](O[C@H]2CC[C@@]3(C)[C@@H](C2)C[C@@H]2O[C@]24[C@@H]3CC[C@]2(C)[C@H](C3=CC(=O)OC3)CC[C@]42O)O[C@@H](C)[C@@H]1O[C@@H]1O[C@H](CO)[C@@H](O)[C@H](O)[C@H]1O
REMARK SMILES IDX 3 1 4 2 6 3 35 4 36 5 37 6 38 7 2 8 1 9 5 10 39 12 40 13
REMARK SMILES IDX 41 14 49 15 42 16 47 17 45 18 50 19 43 21 44 22 48 24 46 26
REMARK SMILES IDX 7 28 8 29 9 30 14 31 10 32 13 33 11 34 15 35 19 36 16 37
REMARK SMILES IDX 18 38 20 39 17 40 33 41 21 42 32 43 22 44 31 45 24 46 12 47
REMARK SMILES IDX 23 48 34 49 25 51 26 52 30 53 27 54 29 55 28 56
REMARK H PARENT 5 11 50 20 44 23 48 25 46 27 34 50
ROOT
ATOM      1  C   UNL     1      23.507  61.540  37.135  1.00  0.00     0.183 C 
ATOM      2  C   UNL     1      24.270  60.300  37.649  1.00  0.00     0.202 C 
ATOM      3  C   UNL     1      23.952  60.132  39.149  1.00  0.00     0.282 C 
ATOM      4  O   UNL     1      22.565  59.868  39.333  1.00  0.00    -0.344 OA
ATOM      5  C   UNL     1      21.753  60.976  38.936  1.00  0.00     0.150 C 
ATOM      6  C   UNL     1      21.813  62.132  39.957  1.00  0.00     0.041 C 
ATOM      7  C   UNL     1      22.005  61.420  37.461  1.00  0.00     0.182 C 
ENDROOT
BRANCH   1   8
ATOM      8  O   UNL     1      24.024  62.696  37.781  1.00  0.00    -0.376 OA
ATOM      9  C   UNL     1      25.429  62.627  37.890  1.00  0.00     0.195 C 
ENDBRANCH   1   8
BRANCH   2  10
ATOM     10  O   UNL     1      23.964  59.145  36.899  1.00  0.00    -0.385 OA
ATOM     11  H   UNL     1      23.071  58.808  37.163  1.00  0.00     0.211 HD
ENDBRANCH   2  10
BRANCH   7  12
ATOM     12  O   UNL     1      21.404  60.489  36.561  1.00  0.00    -0.341 OA
BRANCH  12  13
ATOM     13  C   UNL     1      20.509  61.110  35.635  1.00  0.00     0.282 C 
ATOM     14  O   UNL     1      21.267  61.898  34.730  1.00  0.00    -0.341 OA
ATOM     15  C   UNL     1      19.504  62.004  36.393  1.00  0.00     0.202 C 
ATOM     16  C   UNL     1      20.439  62.409  33.691  1.00  0.00     0.178 C 
ATOM     17  C   UNL     1      18.550  62.647  35.361  1.00  0.00     0.179 C 
ATOM     18  C   UNL     1      19.373  63.374  34.279  1.00  0.00     0.177 C 
BRANCH  15  19
ATOM     19  O   UNL     1      18.780  61.268  37.348  1.00  0.00    -0.385 OA
ATOM     20  H   UNL     1      19.326  60.477  37.600  1.00  0.00     0.211 HD
ENDBRANCH  15  19
BRANCH  16  21
ATOM     21  C   UNL     1      21.323  63.140  32.672  1.00  0.00     0.191 C 
BRANCH  21  22
ATOM     22  O   UNL     1      21.666  64.415  33.146  1.00  0.00    -0.394 OA
ATOM     23  H   UNL     1      21.360  65.066  32.461  1.00  0.00     0.210 HD
ENDBRANCH  21  22
ENDBRANCH  16  21
BRANCH  17  24
ATOM     24  O   UNL     1      17.630  63.512  35.977  1.00  0.00    -0.387 OA
ATOM     25  H   UNL     1      17.810  64.429  35.642  1.00  0.00     0.211 HD
ENDBRANCH  17  24
BRANCH  18  26
ATOM     26  O   UNL     1      18.530  63.885  33.275  1.00  0.00    -0.387 OA
ATOM     27  H   UNL     1      18.993  64.660  32.861  1.00  0.00     0.211 HD
ENDBRANCH  18  26
ENDBRANCH  12  13
ENDBRANCH   7  12
BRANCH   3  28
ATOM     28  O   UNL     1      24.722  59.060  39.693  1.00  0.00    -0.347 OA
BRANCH  28  29
ATOM     29  C   UNL     1      26.084  59.425  39.936  1.00  0.00     0.122 C 
ATOM     30  C   UNL     1      26.142  60.603  40.920  1.00  0.00     0.033 C 
ATOM     31  C   UNL     1      26.923  58.210  40.389  1.00  0.00     0.036 C 
ATOM     32  C   UNL     1      27.473  60.595  41.683  1.00  0.00     0.010 C 
ATOM     33  C   UNL     1      27.048  58.027  41.919  1.00  0.00     0.000 C 
ATOM     34  C   UNL     1      27.585  59.344  42.637  1.00  0.00    -0.024 C 
ATOM     35  C   UNL     1      27.938  56.766  42.131  1.00  0.00     0.039 C 
ATOM     36  C   UNL     1      29.095  59.155  43.076  1.00  0.00     0.033 C 
ATOM     37  C   UNL     1      28.697  56.610  43.448  1.00  0.00     0.155 C 
ATOM     38  C   UNL     1      29.362  57.854  43.909  1.00  0.00     0.127 C 
ATOM     39  C   UNL     1      29.675  60.388  43.820  1.00  0.00     0.008 C 
ATOM     40  O   UNL     1      28.250  57.310  44.591  1.00  0.00    -0.363 OA
ATOM     41  C   UNL     1      30.756  57.654  44.575  1.00  0.00     0.102 C 
ATOM     42  C   UNL     1      31.132  60.171  44.249  1.00  0.00     0.011 C 
ATOM     43  C   UNL     1      31.873  57.347  43.540  1.00  0.00     0.040 C 
ATOM     44  C   UNL     1      31.287  58.960  45.241  1.00  0.00     0.006 C 
ATOM     45  C   UNL     1      33.184  57.855  44.171  1.00  0.00     0.012 C 
ATOM     46  C   UNL     1      32.771  58.547  45.480  1.00  0.00     0.028 C 
ATOM     47  C   UNL     1      26.662  59.644  43.874  1.00  0.00     0.012 C 
ATOM     48  C   UNL     1      30.564  59.262  46.581  1.00  0.00     0.015 C 
BRANCH  41  49
ATOM     49  O   UNL     1      30.701  56.631  45.557  1.00  0.00    -0.386 OA
ATOM     50  H   UNL     1      30.422  55.778  45.138  1.00  0.00     0.211 HD
ENDBRANCH  41  49
BRANCH  46  51
ATOM     51  C   UNL     1      33.818  59.522  46.000  1.00  0.00    -0.022 C 
ATOM     52  C   UNL     1      33.716  60.401  46.992  1.00  0.00     0.096 C 
ATOM     53  C   UNL     1      35.215  59.591  45.423  1.00  0.00     0.265 C 
ATOM     54  C   UNL     1      35.000  61.052  47.078  1.00  0.00     0.331 C 
ATOM     55  O   UNL     1      35.851  60.569  46.162  1.00  0.00    -0.458 OA
ATOM     56  O   UNL     1      35.292  61.924  47.879  1.00  0.00    -0.247 OA
ENDBRANCH  46  51
ENDBRANCH  28  29
ENDBRANCH   3  28
TORSDOF 13
ENDMDL
MODEL 5
REMARK VINA RESULT:   -11.292      2.546      3.530
REMARK INTER + INTRA:         -19.709
REMARK INTER:                 -18.485
REMARK INTRA:                  -1.224
REMARK UNBOUND:                -1.817
REMARK SMILES CO[C@H]1[C@H](O)[C@H](O[C@H]2CC[C@@]3(C)[C@@H](C2)C[C@@H]2O[C@]24[C@@H]3CC[C@]2(C)[C@H](C3=CC(=O)OC3)CC[C@]42O)O[C@@H](C)[C@@H]1O[C@@H]1O[C@H](CO)[C@@H](O)[C@H](O)[C@H]1O
REMARK SMILES IDX 3 1 4 2 6 3 35 4 36 5 37 6 38 7 2 8 1 9 5 10 39 12 40 13
REMARK SMILES IDX 41 14 49 15 42 16 47 17 45 18 50 19 43 21 44 22 48 24 46 26
REMARK SMILES IDX 7 28 8 29 9 30 14 31 10 32 13 33 11 34 15 35 19 36 16 37
REMARK SMILES IDX 18 38 20 39 17 40 33 41 21 42 32 43 22 44 31 45 24 46 12 47
REMARK SMILES IDX 23 48 34 49 25 51 26 52 30 53 27 54 29 55 28 56
REMARK H PARENT 5 11 50 20 44 23 48 25 46 27 34 50
ROOT
ATOM      1  C   UNL     1      23.655  61.746  37.140  1.00  0.00     0.183 C 
ATOM      2  C   UNL     1      24.698  60.696  37.584  1.00  0.00     0.202 C 
ATOM      3  C   UNL     1      24.565  60.506  39.108  1.00  0.00     0.282 C 
ATOM      4  O   UNL     1      23.283  59.976  39.431  1.00  0.00    -0.344 OA
ATOM      5  C   UNL     1      22.232  60.890  39.109  1.00  0.00     0.150 C 
ATOM      6  C   UNL     1      22.157  62.061  40.113  1.00  0.00     0.041 C 
ATOM      7  C   UNL     1      22.247  61.338  37.614  1.00  0.00     0.182 C 
ENDROOT
BRANCH   1   8
ATOM      8  O   UNL     1      23.990  62.998  37.726  1.00  0.00    -0.376 OA
ATOM      9  C   UNL     1      23.110  64.010  37.287  1.00  0.00     0.195 C 
ENDBRANCH   1   8
BRANCH   2  10
ATOM     10  O   UNL     1      24.559  59.485  36.874  1.00  0.00    -0.385 OA
ATOM     11  H   UNL     1      23.706  59.051  37.127  1.00  0.00     0.211 HD
ENDBRANCH   2  10
BRANCH   7  12
ATOM     12  O   UNL     1      21.761  60.283  36.783  1.00  0.00    -0.341 OA
BRANCH  12  13
ATOM     13  C   UNL     1      20.816  60.733  35.810  1.00  0.00     0.282 C 
ATOM     14  O   UNL     1      21.522  61.346  34.741  1.00  0.00    -0.341 OA
ATOM     15  C   UNL     1      19.846  61.751  36.448  1.00  0.00     0.202 C 
ATOM     16  C   UNL     1      20.639  61.668  33.673  1.00  0.00     0.178 C 
ATOM     17  C   UNL     1      18.837  62.204  35.369  1.00  0.00     0.179 C 
ATOM     18  C   UNL     1      19.599  62.725  34.134  1.00  0.00     0.177 C 
BRANCH  15  19
ATOM     19  O   UNL     1      19.177  61.198  37.554  1.00  0.00    -0.385 OA
ATOM     20  H   UNL     1      19.764  60.501  37.948  1.00  0.00     0.211 HD
ENDBRANCH  15  19
BRANCH  16  21
ATOM     21  C   UNL     1      21.466  62.204  32.496  1.00  0.00     0.191 C 
BRANCH  21  22
ATOM     22  O   UNL     1      22.251  61.181  31.942  1.00  0.00    -0.394 OA
ATOM     23  H   UNL     1      21.962  60.334  32.371  1.00  0.00     0.210 HD
ENDBRANCH  21  22
ENDBRANCH  16  21
BRANCH  17  24
ATOM     24  O   UNL     1      17.946  63.169  35.868  1.00  0.00    -0.387 OA
ATOM     25  H   UNL     1      18.463  63.784  36.450  1.00  0.00     0.211 HD
ENDBRANCH  17  24
BRANCH  18  26
ATOM     26  O   UNL     1      18.703  63.054  33.100  1.00  0.00    -0.387 OA
ATOM     27  H   UNL     1      19.203  63.004  32.243  1.00  0.00     0.211 HD
ENDBRANCH  18  26
ENDBRANCH  12  13
ENDBRANCH   7  12
BRANCH   3  28
ATOM     28  O   UNL     1      25.583  59.623  39.579  1.00  0.00    -0.347 OA
BRANCH  28  29
ATOM     29  C   UNL     1      25.210  58.934  40.775  1.00  0.00     0.122 C 
ATOM     30  C   UNL     1      25.645  57.463  40.690  1.00  0.00     0.033 C 
ATOM     31  C   UNL     1      25.742  59.655  42.033  1.00  0.00     0.036 C 
ATOM     32  C   UNL     1      25.865  56.891  42.096  1.00  0.00     0.010 C 
ATOM     33  C   UNL     1      27.102  59.145  42.562  1.00  0.00     0.000 C 
ATOM     34  C   UNL     1      27.095  57.572  42.812  1.00  0.00    -0.024 C 
ATOM     35  C   UNL     1      27.422  60.000  43.824  1.00  0.00     0.039 C 
ATOM     36  C   UNL     1      27.033  57.261  44.364  1.00  0.00     0.033 C 
ATOM     37  C   UNL     1      28.372  59.433  44.879  1.00  0.00     0.155 C 
ATOM     38  C   UNL     1      28.121  58.008  45.210  1.00  0.00     0.127 C 
ATOM     39  C   UNL     1      27.063  55.744  44.686  1.00  0.00     0.008 C 
ATOM     40  O   UNL     1      29.282  58.416  44.515  1.00  0.00    -0.363 OA
ATOM     41  C   UNL     1      28.302  57.634  46.712  1.00  0.00     0.102 C 
ATOM     42  C   UNL     1      27.020  55.472  46.196  1.00  0.00     0.011 C 
ATOM     43  C   UNL     1      27.124  58.129  47.595  1.00  0.00     0.040 C 
ATOM     44  C   UNL     1      28.254  56.093  46.948  1.00  0.00     0.006 C 
ATOM     45  C   UNL     1      27.057  57.159  48.791  1.00  0.00     0.012 C 
ATOM     46  C   UNL     1      28.104  56.071  48.499  1.00  0.00     0.028 C 
ATOM     47  C   UNL     1      28.387  56.960  42.156  1.00  0.00     0.012 C 
ATOM     48  C   UNL     1      29.568  55.398  46.499  1.00  0.00     0.015 C 
BRANCH  41  49
ATOM     49  O   UNL     1      29.533  58.134  47.209  1.00  0.00    -0.386 OA
ATOM     50  H   UNL     1      30.282  57.585  46.862  1.00  0.00     0.211 HD
ENDBRANCH  41  49
BRANCH  46  51
ATOM     51  C   UNL     1      27.868  54.786  49.280  1.00  0.00    -0.022 C 
ATOM     52  C   UNL     1      26.724  54.147  49.502  1.00  0.00     0.096 C 
ATOM     53  C   UNL     1      28.998  54.008  49.918  1.00  0.00     0.265 C 
ATOM     54  C   UNL     1      27.065  52.979  50.275  1.00  0.00     0.331 C 
ATOM     55  O   UNL     1      28.385  52.919  50.505  1.00  0.00    -0.458 OA
ATOM     56  O   UNL     1      26.272  52.142  50.670  1.00  0.00    -0.247 OA
ENDBRANCH  46  51
ENDBRANCH  28  29
ENDBRANCH   3  28
TORSDOF 13
ENDMDL
MODEL 6
REMARK VINA RESULT:   -11.282      7.124     18.810
REMARK INTER + INTRA:         -19.693
REMARK INTER:                 -18.204
REMARK INTRA:                  -1.489
REMARK UNBOUND:                -1.817
REMARK SMILES CO[C@H]1[C@H](O)[C@H](O[C@H]2CC[C@@]3(C)[C@@H](C2)C[C@@H]2O[C@]24[C@@H]3CC[C@]2(C)[C@H](C3=CC(=O)OC3)CC[C@]42O)O[C@@H](C)[C@@H]1O[C@@H]1O[C@H](CO)[C@@H](O)[C@H](O)[C@H]1O
REMARK SMILES IDX 3 1 4 2 6 3 35 4 36 5 37 6 38 7 2 8 1 9 5 10 39 12 40 13
REMARK SMILES IDX 41 14 49 15 42 16 47 17 45 18 50 19 43 21 44 22 48 24 46 26
REMARK SMILES IDX 7 28 8 29 9 30 14 31 10 32 13 33 11 34 15 35 19 36 16 37
REMARK SMILES IDX 18 38 20 39 17 40 33 41 21 42 32 43 22 44 31 45 24 46 12 47
REMARK SMILES IDX 23 48 34 49 25 51 26 52 30 53 27 54 29 55 28 56
REMARK H PARENT 5 11 50 20 44 23 48 25 46 27 34 50
ROOT
ATOM      1  C   UNL     1      19.405  62.863  35.324  1.00  0.00     0.183 C 
ATOM      2  C   UNL     1      18.451  62.450  34.182  1.00  0.00     0.202 C 
ATOM      3  C   UNL     1      19.014  63.015  32.861  1.00  0.00     0.282 C 
ATOM      4  O   UNL     1      20.280  62.430  32.573  1.00  0.00    -0.344 OA
ATOM      5  C   UNL     1      21.267  62.788  33.544  1.00  0.00     0.150 C 
ATOM      6  C   UNL     1      21.743  64.246  33.374  1.00  0.00     0.041 C 
ATOM      7  C   UNL     1      20.848  62.425  35.003  1.00  0.00     0.182 C 
ENDROOT
BRANCH   1   8
ATOM      8  O   UNL     1      19.376  64.278  35.455  1.00  0.00    -0.376 OA
ATOM      9  C   UNL     1      18.053  64.741  35.622  1.00  0.00     0.195 C 
ENDBRANCH   1   8
BRANCH   2  10
ATOM     10  O   UNL     1      18.261  61.052  34.134  1.00  0.00    -0.385 OA
ATOM     11  H   UNL     1      18.013  60.723  35.034  1.00  0.00     0.211 HD
ENDBRANCH   2  10
BRANCH   7  12
ATOM     12  O   UNL     1      20.966  61.017  35.209  1.00  0.00    -0.341 OA
BRANCH  12  13
ATOM     13  C   UNL     1      21.682  60.689  36.402  1.00  0.00     0.282 C 
ATOM     14  O   UNL     1      21.505  61.738  37.342  1.00  0.00    -0.341 OA
ATOM     15  C   UNL     1      23.184  60.518  36.085  1.00  0.00     0.202 C 
ATOM     16  C   UNL     1      22.065  61.387  38.602  1.00  0.00     0.178 C 
ATOM     17  C   UNL     1      23.919  60.155  37.394  1.00  0.00     0.179 C 
ATOM     18  C   UNL     1      23.603  61.208  38.476  1.00  0.00     0.177 C 
BRANCH  15  19
ATOM     19  O   UNL     1      23.393  59.530  35.107  1.00  0.00    -0.385 OA
ATOM     20  H   UNL     1      23.930  59.935  34.376  1.00  0.00     0.211 HD
ENDBRANCH  15  19
BRANCH  16  21
ATOM     21  C   UNL     1      21.733  62.492  39.613  1.00  0.00     0.191 C 
BRANCH  21  22
ATOM     22  O   UNL     1      22.109  62.102  40.908  1.00  0.00    -0.394 OA
ATOM     23  H   UNL     1      22.421  62.922  41.374  1.00  0.00     0.210 HD
ENDBRANCH  21  22
ENDBRANCH  16  21
BRANCH  17  24
ATOM     24  O   UNL     1      25.304  60.026  37.191  1.00  0.00    -0.387 OA
ATOM     25  H   UNL     1      25.511  59.057  37.144  1.00  0.00     0.211 HD
ENDBRANCH  17  24
BRANCH  18  26
ATOM     26  O   UNL     1      24.184  60.847  39.705  1.00  0.00    -0.387 OA
ATOM     27  H   UNL     1      23.482  60.926  40.403  1.00  0.00     0.211 HD
ENDBRANCH  18  26
ENDBRANCH  12  13
ENDBRANCH   7  12
BRANCH   3  28
ATOM     28  O   UNL     1      18.106  62.750  31.792  1.00  0.00    -0.347 OA
BRANCH  28  29
ATOM     29  C   UNL     1      17.774  63.922  31.043  1.00  0.00     0.122 C 
ATOM     30  C   UNL     1      16.763  63.571  29.941  1.00  0.00     0.033 C 
ATOM     31  C   UNL     1      17.299  65.067  31.965  1.00  0.00     0.036 C 
ATOM     32  C   UNL     1      15.924  64.803  29.577  1.00  0.00     0.010 C 
ATOM     33  C   UNL     1      15.768  65.165  32.160  1.00  0.00     0.000 C 
ATOM     34  C   UNL     1      14.991  65.241  30.772  1.00  0.00    -0.024 C 
ATOM     35  C   UNL     1      15.531  66.384  33.102  1.00  0.00     0.039 C 
ATOM     36  C   UNL     1      14.468  66.713  30.513  1.00  0.00     0.033 C 
ATOM     37  C   UNL     1      14.175  67.088  33.072  1.00  0.00     0.155 C 
ATOM     38  C   UNL     1      13.649  67.320  31.704  1.00  0.00     0.127 C 
ATOM     39  C   UNL     1      13.665  66.854  29.193  1.00  0.00     0.008 C 
ATOM     40  O   UNL     1      13.046  66.393  32.584  1.00  0.00    -0.363 OA
ATOM     41  C   UNL     1      12.906  68.675  31.500  1.00  0.00     0.102 C 
ATOM     42  C   UNL     1      13.155  68.285  28.976  1.00  0.00     0.011 C 
ATOM     43  C   UNL     1      13.879  69.882  31.416  1.00  0.00     0.040 C 
ATOM     44  C   UNL     1      12.182  68.750  30.121  1.00  0.00     0.006 C 
ATOM     45  C   UNL     1      13.161  70.944  30.561  1.00  0.00     0.012 C 
ATOM     46  C   UNL     1      11.864  70.276  30.077  1.00  0.00     0.028 C 
ATOM     47  C   UNL     1      13.805  64.210  30.812  1.00  0.00     0.012 C 
ATOM     48  C   UNL     1      10.880  67.904  30.103  1.00  0.00     0.015 C 
BRANCH  41  49
ATOM     49  O   UNL     1      11.951  68.883  32.529  1.00  0.00    -0.386 OA
ATOM     50  H   UNL     1      12.415  69.047  33.389  1.00  0.00     0.211 HD
ENDBRANCH  41  49
BRANCH  46  51
ATOM     51  C   UNL     1      11.263  70.950  28.851  1.00  0.00    -0.022 C 
ATOM     52  C   UNL     1       9.988  71.016  28.480  1.00  0.00     0.096 C 
ATOM     53  C   UNL     1      12.107  71.711  27.852  1.00  0.00     0.265 C 
ATOM     54  C   UNL     1       9.970  71.786  27.261  1.00  0.00     0.331 C 
ATOM     55  O   UNL     1      11.205  72.177  26.916  1.00  0.00    -0.458 OA
ATOM     56  O   UNL     1       8.970  72.061  26.620  1.00  0.00    -0.247 OA
ENDBRANCH  46  51
ENDBRANCH  28  29
ENDBRANCH   3  28
TORSDOF 13
ENDMDL
MODEL 7
REMARK VINA RESULT:   -11.194      3.150      5.796
REMARK INTER + INTRA:         -19.555
REMARK INTER:                 -17.403
REMARK INTRA:                  -2.152
REMARK UNBOUND:                -1.817
REMARK SMILES CO[C@H]1[C@H](O)[C@H](O[C@H]2CC[C@@]3(C)[C@@H](C2)C[C@@H]2O[C@]24[C@@H]3CC[C@]2(C)[C@H](C3=CC(=O)OC3)CC[C@]42O)O[C@@H](C)[C@@H]1O[C@@H]1O[C@H](CO)[C@@H](O)[C@H](O)[C@H]1O
REMARK SMILES IDX 3 1 4 2 6 3 35 4 36 5 37 6 38 7 2 8 1 9 5 10 39 12 40 13
REMARK SMILES IDX 41 14 49 15 42 16 47 17 45 18 50 19 43 21 44 22 48 24 46 26
REMARK SMILES IDX 7 28 8 29 9 30 14 31 10 32 13 33 11 34 15 35 19 36 16 37
REMARK SMILES IDX 18 38 20 39 17 40 33 41 21 42 32 43 22 44 31 45 24 46 12 47
REMARK SMILES IDX 23 48 34 49 25 51 26 52 30 53 27 54 29 55 28 56
REMARK H PARENT 5 11 50 20 44 23 48 25 46 27 34 50
ROOT
ATOM      1  C   UNL     1      25.472  60.162  41.546  1.00  0.00     0.183 C 
ATOM      2  C   UNL     1      26.995  60.358  41.376  1.00  0.00     0.202 C 
ATOM      3  C   UNL     1      27.669  58.974  41.482  1.00  0.00     0.282 C 
ATOM      4  O   UNL     1      27.240  58.133  40.417  1.00  0.00    -0.344 OA
ATOM      5  C   UNL     1      25.843  57.838  40.498  1.00  0.00     0.150 C 
ATOM      6  C   UNL     1      25.533  56.820  41.616  1.00  0.00     0.041 C 
ATOM      7  C   UNL     1      24.950  59.117  40.541  1.00  0.00     0.182 C 
ENDROOT
BRANCH   1   8
ATOM      8  O   UNL     1      25.215  59.697  42.864  1.00  0.00    -0.376 OA
ATOM      9  C   UNL     1      25.576  60.669  43.821  1.00  0.00     0.195 C 
ENDBRANCH   1   8
BRANCH   2  10
ATOM     10  O   UNL     1      27.309  61.021  40.171  1.00  0.00    -0.385 OA
ATOM     11  H   UNL     1      26.536  61.570  39.886  1.00  0.00     0.211 HD
ENDBRANCH   2  10
BRANCH   7  12
ATOM     12  O   UNL     1      24.882  59.708  39.244  1.00  0.00    -0.341 OA
BRANCH  12  13
ATOM     13  C   UNL     1      23.950  60.790  39.174  1.00  0.00     0.282 C 
ATOM     14  O   UNL     1      22.636  60.254  39.127  1.00  0.00    -0.341 OA
ATOM     15  C   UNL     1      24.216  61.635  37.910  1.00  0.00     0.202 C 
ATOM     16  C   UNL     1      21.665  61.291  39.218  1.00  0.00     0.178 C 
ATOM     17  C   UNL     1      23.198  62.796  37.876  1.00  0.00     0.179 C 
ATOM     18  C   UNL     1      21.767  62.233  37.987  1.00  0.00     0.177 C 
BRANCH  15  19
ATOM     19  O   UNL     1      25.533  62.128  37.889  1.00  0.00    -0.385 OA
ATOM     20  H   UNL     1      26.004  61.771  38.688  1.00  0.00     0.211 HD
ENDBRANCH  15  19
BRANCH  16  21
ATOM     21  C   UNL     1      20.272  60.654  39.296  1.00  0.00     0.191 C 
BRANCH  21  22
ATOM     22  O   UNL     1      19.596  60.802  38.075  1.00  0.00    -0.394 OA
ATOM     23  H   UNL     1      18.803  60.204  38.113  1.00  0.00     0.210 HD
ENDBRANCH  21  22
ENDBRANCH  16  21
BRANCH  17  24
ATOM     24  O   UNL     1      23.352  63.586  36.725  1.00  0.00    -0.387 OA
ATOM     25  H   UNL     1      22.832  64.420  36.861  1.00  0.00     0.211 HD
ENDBRANCH  17  24
BRANCH  18  26
ATOM     26  O   UNL     1      20.826  63.276  38.056  1.00  0.00    -0.387 OA
ATOM     27  H   UNL     1      20.156  63.125  37.339  1.00  0.00     0.211 HD
ENDBRANCH  18  26
ENDBRANCH  12  13
ENDBRANCH   7  12
BRANCH   3  28
ATOM     28  O   UNL     1      29.088  59.121  41.439  1.00  0.00    -0.347 OA
BRANCH  28  29
ATOM     29  C   UNL     1      29.725  58.698  42.648  1.00  0.00     0.122 C 
ATOM     30  C   UNL     1      29.074  59.393  43.854  1.00  0.00     0.033 C 
ATOM     31  C   UNL     1      29.744  57.158  42.769  1.00  0.00     0.036 C 
ATOM     32  C   UNL     1      29.242  58.537  45.116  1.00  0.00     0.010 C 
ATOM     33  C   UNL     1      28.570  56.543  43.566  1.00  0.00     0.000 C 
ATOM     34  C   UNL     1      28.427  57.190  45.014  1.00  0.00    -0.024 C 
ATOM     35  C   UNL     1      28.808  55.004  43.565  1.00  0.00     0.039 C 
ATOM     36  C   UNL     1      28.943  56.182  46.121  1.00  0.00     0.033 C 
ATOM     37  C   UNL     1      28.181  54.158  44.673  1.00  0.00     0.155 C 
ATOM     38  C   UNL     1      28.313  54.750  46.028  1.00  0.00     0.127 C 
ATOM     39  C   UNL     1      28.797  56.731  47.565  1.00  0.00     0.008 C 
ATOM     40  O   UNL     1      27.062  54.659  45.375  1.00  0.00    -0.363 OA
ATOM     41  C   UNL     1      28.578  53.729  47.174  1.00  0.00     0.102 C 
ATOM     42  C   UNL     1      29.288  55.729  48.618  1.00  0.00     0.011 C 
ATOM     43  C   UNL     1      30.038  53.201  47.177  1.00  0.00     0.040 C 
ATOM     44  C   UNL     1      28.472  54.384  48.586  1.00  0.00     0.006 C 
ATOM     45  C   UNL     1      30.347  52.820  48.638  1.00  0.00     0.012 C 
ATOM     46  C   UNL     1      29.113  53.254  49.447  1.00  0.00     0.028 C 
ATOM     47  C   UNL     1      26.917  57.566  45.241  1.00  0.00     0.012 C 
ATOM     48  C   UNL     1      26.996  54.636  48.998  1.00  0.00     0.015 C 
BRANCH  41  49
ATOM     49  O   UNL     1      27.663  52.646  47.105  1.00  0.00    -0.386 OA
ATOM     50  H   UNL     1      27.700  52.122  47.945  1.00  0.00     0.211 HD
ENDBRANCH  41  49
BRANCH  46  51
ATOM     51  C   UNL     1      29.399  53.420  50.933  1.00  0.00    -0.022 C 
ATOM     52  C   UNL     1      28.655  53.047  51.969  1.00  0.00     0.096 C 
ATOM     53  C   UNL     1      30.675  54.051  51.445  1.00  0.00     0.265 C 
ATOM     54  C   UNL     1      29.398  53.423  53.146  1.00  0.00     0.331 C 
ATOM     55  O   UNL     1      30.562  54.002  52.821  1.00  0.00    -0.458 OA
ATOM     56  O   UNL     1      29.033  53.238  54.295  1.00  0.00    -0.247 OA
ENDBRANCH  46  51
ENDBRANCH  28  29
ENDBRANCH   3  28
TORSDOF 13
ENDMDL
MODEL 8
REMARK VINA RESULT:   -10.963      2.870      5.214
REMARK INTER + INTRA:         -19.189
REMARK INTER:                 -17.342
REMARK INTRA:                  -1.847
REMARK UNBOUND:                -1.817
REMARK SMILES CO[C@H]1[C@H](O)[C@H](O[C@H]2CC[C@@]3(C)[C@@H](C2)C[C@@H]2O[C@]24[C@@H]3CC[C@]2(C)[C@H](C3=CC(=O)OC3)CC[C@]42O)O[C@@H](C)[C@@H]1O[C@@H]1O[C@H](CO)[C@@H](O)[C@H](O)[C@H]1O
REMARK SMILES IDX 3 1 4 2 6 3 35 4 36 5 37 6 38 7 2 8 1 9 5 10 39 12 40 13
REMARK SMILES IDX 41 14 49 15 42 16 47 17 45 18 50 19 43 21 44 22 48 24 46 26
REMARK SMILES IDX 7 28 8 29 9 30 14 31 10 32 13 33 11 34 15 35 19 36 16 37
REMARK SMILES IDX 18 38 20 39 17 40 33 41 21 42 32 43 22 44 31 45 24 46 12 47
REMARK SMILES IDX 23 48 34 49 25 51 26 52 30 53 27 54 29 55 28 56
REMARK H PARENT 5 11 50 20 44 23 48 25 46 27 34 50
ROOT
ATOM      1  C   UNL     1      25.731  60.236  42.622  1.00  0.00     0.183 C 
ATOM      2  C   UNL     1      27.215  60.287  42.196  1.00  0.00     0.202 C 
ATOM      3  C   UNL     1      27.557  58.957  41.493  1.00  0.00     0.282 C 
ATOM      4  O   UNL     1      26.790  58.816  40.302  1.00  0.00    -0.344 OA
ATOM      5  C   UNL     1      25.391  58.706  40.577  1.00  0.00     0.150 C 
ATOM      6  C   UNL     1      25.022  57.320  41.148  1.00  0.00     0.041 C 
ATOM      7  C   UNL     1      24.837  59.902  41.413  1.00  0.00     0.182 C 
ENDROOT
BRANCH   1   8
ATOM      8  O   UNL     1      25.573  59.218  43.603  1.00  0.00    -0.376 OA
ATOM      9  C   UNL     1      25.887  59.706  44.890  1.00  0.00     0.195 C 
ENDBRANCH   1   8
BRANCH   2  10
ATOM     10  O   UNL     1      27.492  61.411  41.389  1.00  0.00    -0.385 OA
ATOM     11  H   UNL     1      26.957  62.183  41.704  1.00  0.00     0.211 HD
ENDBRANCH   2  10
BRANCH   7  12
ATOM     12  O   UNL     1      24.716  61.060  40.587  1.00  0.00    -0.341 OA
BRANCH  12  13
ATOM     13  C   UNL     1      23.642  60.963  39.648  1.00  0.00     0.282 C 
ATOM     14  O   UNL     1      24.185  60.952  38.336  1.00  0.00    -0.341 OA
ATOM     15  C   UNL     1      22.690  62.168  39.810  1.00  0.00     0.202 C 
ATOM     16  C   UNL     1      23.169  60.696  37.373  1.00  0.00     0.178 C 
ATOM     17  C   UNL     1      21.541  62.022  38.788  1.00  0.00     0.179 C 
ATOM     18  C   UNL     1      22.126  61.847  37.372  1.00  0.00     0.177 C 
BRANCH  15  19
ATOM     19  O   UNL     1      22.183  62.250  41.119  1.00  0.00    -0.385 OA
ATOM     20  H   UNL     1      22.474  63.118  41.504  1.00  0.00     0.211 HD
ENDBRANCH  15  19
BRANCH  16  21
ATOM     21  C   UNL     1      23.825  60.564  35.992  1.00  0.00     0.191 C 
BRANCH  21  22
ATOM     22  O   UNL     1      23.121  59.642  35.201  1.00  0.00    -0.394 OA
ATOM     23  H   UNL     1      22.300  60.105  34.885  1.00  0.00     0.210 HD
ENDBRANCH  21  22
ENDBRANCH  16  21
BRANCH  17  24
ATOM     24  O   UNL     1      20.654  63.110  38.848  1.00  0.00    -0.387 OA
ATOM     25  H   UNL     1      20.653  63.545  37.957  1.00  0.00     0.211 HD
ENDBRANCH  17  24
BRANCH  18  26
ATOM     26  O   UNL     1      21.101  61.615  36.437  1.00  0.00    -0.387 OA
ATOM     27  H   UNL     1      20.256  61.489  36.942  1.00  0.00     0.211 HD
ENDBRANCH  18  26
ENDBRANCH  12  13
ENDBRANCH   7  12
BRANCH   3  28
ATOM     28  O   UNL     1      28.949  58.917  41.178  1.00  0.00    -0.347 OA
BRANCH  28  29
ATOM     29  C   UNL     1      29.634  57.846  41.833  1.00  0.00     0.122 C 
ATOM     30  C   UNL     1      30.501  58.400  42.974  1.00  0.00     0.033 C 
ATOM     31  C   UNL     1      28.654  56.744  42.291  1.00  0.00     0.036 C 
ATOM     32  C   UNL     1      30.707  57.329  44.054  1.00  0.00     0.010 C 
ATOM     33  C   UNL     1      28.153  56.870  43.749  1.00  0.00     0.000 C 
ATOM     34  C   UNL     1      29.355  56.980  44.788  1.00  0.00    -0.024 C 
ATOM     35  C   UNL     1      27.203  55.657  43.984  1.00  0.00     0.039 C 
ATOM     36  C   UNL     1      29.526  55.619  45.579  1.00  0.00     0.033 C 
ATOM     37  C   UNL     1      26.968  55.169  45.413  1.00  0.00     0.155 C 
ATOM     38  C   UNL     1      28.204  55.086  46.231  1.00  0.00     0.127 C 
ATOM     39  C   UNL     1      30.657  55.666  46.640  1.00  0.00     0.008 C 
ATOM     40  O   UNL     1      27.204  56.050  46.492  1.00  0.00    -0.363 OA
ATOM     41  C   UNL     1      28.274  53.872  47.204  1.00  0.00     0.102 C 
ATOM     42  C   UNL     1      30.790  54.341  47.403  1.00  0.00     0.011 C 
ATOM     43  C   UNL     1      28.575  52.536  46.471  1.00  0.00     0.040 C 
ATOM     44  C   UNL     1      29.478  53.973  48.191  1.00  0.00     0.006 C 
ATOM     45  C   UNL     1      29.284  51.638  47.503  1.00  0.00     0.012 C 
ATOM     46  C   UNL     1      29.483  52.518  48.749  1.00  0.00     0.028 C 
ATOM     47  C   UNL     1      29.057  58.177  45.764  1.00  0.00     0.012 C 
ATOM     48  C   UNL     1      29.217  55.008  49.319  1.00  0.00     0.015 C 
BRANCH  41  49
ATOM     49  O   UNL     1      27.077  53.761  47.957  1.00  0.00    -0.386 OA
ATOM     50  H   UNL     1      26.480  53.089  47.540  1.00  0.00     0.211 HD
ENDBRANCH  41  49
BRANCH  46  51
ATOM     51  C   UNL     1      30.571  52.003  49.680  1.00  0.00    -0.022 C 
ATOM     52  C   UNL     1      31.748  51.469  49.369  1.00  0.00     0.096 C 
ATOM     53  C   UNL     1      30.444  52.070  51.186  1.00  0.00     0.265 C 
ATOM     54  C   UNL     1      32.394  51.174  50.623  1.00  0.00     0.331 C 
ATOM     55  O   UNL     1      31.622  51.529  51.661  1.00  0.00    -0.458 OA
ATOM     56  O   UNL     1      33.500  50.675  50.742  1.00  0.00    -0.247 OA
ENDBRANCH  46  51
ENDBRANCH  28  29
ENDBRANCH   3  28
TORSDOF 13
ENDMDL
MODEL 9
REMARK VINA RESULT:   -10.865      4.644      6.970
REMARK INTER + INTRA:         -19.033
REMARK INTER:                 -17.658
REMARK INTRA:                  -1.375
REMARK UNBOUND:                -1.817
REMARK SMILES CO[C@H]1[C@H](O)[C@H](O[C@H]2CC[C@@]3(C)[C@@H](C2)C[C@@H]2O[C@]24[C@@H]3CC[C@]2(C)[C@H](C3=CC(=O)OC3)CC[C@]42O)O[C@@H](C)[C@@H]1O[C@@H]1O[C@H](CO)[C@@H](O)[C@H](O)[C@H]1O
REMARK SMILES IDX 3 1 4 2 6 3 35 4 36 5 37 6 38 7 2 8 1 9 5 10 39 12 40 13
REMARK SMILES IDX 41 14 49 15 42 16 47 17 45 18 50 19 43 21 44 22 48 24 46 26
REMARK SMILES IDX 7 28 8 29 9 30 14 31 10 32 13 33 11 34 15 35 19 36 16 37
REMARK SMILES IDX 18 38 20 39 17 40 33 41 21 42 32 43 22 44 31 45 24 46 12 47
REMARK SMILES IDX 23 48 34 49 25 51 26 52 30 53 27 54 29 55 28 56
REMARK H PARENT 5 11 50 20 44 23 48 25 46 27 34 50
ROOT
ATOM      1  C   UNL     1      25.491  59.223  41.675  1.00  0.00     0.183 C 
ATOM      2  C   UNL     1      25.623  59.706  43.136  1.00  0.00     0.202 C 
ATOM      3  C   UNL     1      27.066  60.210  43.345  1.00  0.00     0.282 C 
ATOM      4  O   UNL     1      27.321  61.337  42.514  1.00  0.00    -0.344 OA
ATOM      5  C   UNL     1      27.276  60.998  41.125  1.00  0.00     0.150 C 
ATOM      6  C   UNL     1      28.528  60.210  40.683  1.00  0.00     0.041 C 
ATOM      7  C   UNL     1      25.929  60.335  40.701  1.00  0.00     0.182 C 
ENDROOT
BRANCH   1   8
ATOM      8  O   UNL     1      26.335  58.095  41.489  1.00  0.00    -0.376 OA
ATOM      9  C   UNL     1      25.783  56.947  42.096  1.00  0.00     0.195 C 
ENDBRANCH   1   8
BRANCH   2  10
ATOM     10  O   UNL     1      24.657  60.684  43.456  1.00  0.00    -0.385 OA
ATOM     11  H   UNL     1      23.796  60.449  43.028  1.00  0.00     0.211 HD
ENDBRANCH   2  10
BRANCH   7  12
ATOM     12  O   UNL     1      24.901  61.323  40.626  1.00  0.00    -0.341 OA
BRANCH  12  13
ATOM     13  C   UNL     1      23.782  60.902  39.842  1.00  0.00     0.282 C 
ATOM     14  O   UNL     1      24.204  60.744  38.496  1.00  0.00    -0.341 OA
ATOM     15  C   UNL     1      22.658  61.958  39.918  1.00  0.00     0.202 C 
ATOM     16  C   UNL     1      23.167  60.173  37.706  1.00  0.00     0.178 C 
ATOM     17  C   UNL     1      21.467  61.463  39.069  1.00  0.00     0.179 C 
ATOM     18  C   UNL     1      21.949  61.135  37.642  1.00  0.00     0.177 C 
BRANCH  15  19
ATOM     19  O   UNL     1      22.260  62.190  41.246  1.00  0.00    -0.385 OA
ATOM     20  H   UNL     1      21.930  63.125  41.306  1.00  0.00     0.211 HD
ENDBRANCH  15  19
BRANCH  16  21
ATOM     21  C   UNL     1      23.714  59.902  36.298  1.00  0.00     0.191 C 
BRANCH  21  22
ATOM     22  O   UNL     1      25.104  59.712  36.340  1.00  0.00    -0.394 OA
ATOM     23  H   UNL     1      25.370  59.752  37.296  1.00  0.00     0.210 HD
ENDBRANCH  21  22
ENDBRANCH  16  21
BRANCH  17  24
ATOM     24  O   UNL     1      20.418  62.398  39.055  1.00  0.00    -0.387 OA
ATOM     25  H   UNL     1      19.878  62.233  38.239  1.00  0.00     0.211 HD
ENDBRANCH  17  24
BRANCH  18  26
ATOM     26  O   UNL     1      20.901  60.590  36.876  1.00  0.00    -0.387 OA
ATOM     27  H   UNL     1      20.890  61.064  36.004  1.00  0.00     0.211 HD
ENDBRANCH  18  26
ENDBRANCH  12  13
ENDBRANCH   7  12
BRANCH   3  28
ATOM     28  O   UNL     1      27.264  60.565  44.713  1.00  0.00    -0.347 OA
BRANCH  28  29
ATOM     29  C   UNL     1      28.594  61.017  44.981  1.00  0.00     0.122 C 
ATOM     30  C   UNL     1      28.914  60.847  46.474  1.00  0.00     0.033 C 
ATOM     31  C   UNL     1      29.622  60.331  44.055  1.00  0.00     0.036 C 
ATOM     32  C   UNL     1      30.426  60.688  46.680  1.00  0.00     0.010 C 
ATOM     33  C   UNL     1      30.293  59.065  44.637  1.00  0.00     0.000 C 
ATOM     34  C   UNL     1      30.955  59.338  46.059  1.00  0.00    -0.024 C 
ATOM     35  C   UNL     1      31.286  58.563  43.546  1.00  0.00     0.039 C 
ATOM     36  C   UNL     1      32.532  59.406  45.928  1.00  0.00     0.033 C 
ATOM     37  C   UNL     1      32.471  57.695  43.968  1.00  0.00     0.155 C 
ATOM     38  C   UNL     1      33.167  58.180  45.186  1.00  0.00     0.127 C 
ATOM     39  C   UNL     1      33.250  59.632  47.285  1.00  0.00     0.008 C 
ATOM     40  O   UNL     1      32.409  56.987  45.189  1.00  0.00    -0.363 OA
ATOM     41  C   UNL     1      34.717  58.023  45.170  1.00  0.00     0.102 C 
ATOM     42  C   UNL     1      34.776  59.676  47.132  1.00  0.00     0.011 C 
ATOM     43  C   UNL     1      35.414  59.070  44.260  1.00  0.00     0.040 C 
ATOM     44  C   UNL     1      35.356  58.331  46.559  1.00  0.00     0.006 C 
ATOM     45  C   UNL     1      36.825  59.269  44.848  1.00  0.00     0.012 C 
ATOM     46  C   UNL     1      36.854  58.436  46.140  1.00  0.00     0.028 C 
ATOM     47  C   UNL     1      30.511  58.193  47.041  1.00  0.00     0.012 C 
ATOM     48  C   UNL     1      35.135  57.172  47.569  1.00  0.00     0.015 C 
BRANCH  41  49
ATOM     49  O   UNL     1      35.085  56.709  44.781  1.00  0.00    -0.386 OA
ATOM     50  H   UNL     1      35.905  56.742  44.226  1.00  0.00     0.211 HD
ENDBRANCH  41  49
BRANCH  46  51
ATOM     51  C   UNL     1      37.946  58.869  47.108  1.00  0.00    -0.022 C 
ATOM     52  C   UNL     1      38.368  60.098  47.389  1.00  0.00     0.096 C 
ATOM     53  C   UNL     1      38.718  57.878  47.951  1.00  0.00     0.265 C 
ATOM     54  C   UNL     1      39.401  59.944  48.383  1.00  0.00     0.331 C 
ATOM     55  O   UNL     1      39.587  58.653  48.693  1.00  0.00    -0.458 OA
ATOM     56  O   UNL     1      40.026  60.859  48.892  1.00  0.00    -0.247 OA
ENDBRANCH  46  51
ENDBRANCH  28  29
ENDBRANCH   3  28
TORSDOF 13
ENDMDL
