MODEL 1
REMARK VINA RESULT:   -12.551      0.000      0.000
REMARK INTER + INTRA:         -23.182
REMARK INTER:                 -21.722
REMARK INTRA:                  -1.461
REMARK UNBOUND:                -1.461
REMARK SMILES C[C@H]1CC[C@@]2(OC1)O[C@H]1C[C@@H]3[C@H]4CC=C5C[C@H](O[C@H]6O[C@H](CO)[C@H](O[C@H]7O[C@H](CO[C@H]8OC[C@H](O)[C@H](O)[C@H]8O)[C@H](O)[C@H]7O)[C@@H](O)[C@@H]6O)CC[C@@]5(C)[C@@H]4CC[C@]3(C)[C@@]1(O)[C@@H]2C
REMARK SMILES IDX 26 1 27 2 28 3 40 4 42 5 25 6 24 7 19 8 20 9 46 10 21 11
REMARK SMILES IDX 44 12 18 13 17 14 2 15 3 16 7 17 4 18 6 19 5 20 8 21 59 22
REMARK SMILES IDX 9 23 57 24 10 25 55 26 11 27 54 28 12 29 53 30 13 31 52 32
REMARK SMILES IDX 14 33 50 34 15 35 49 36 16 37 48 38 1 39 60 40 56 41 51 42
REMARK SMILES IDX 58 43 47 45 22 47 23 48 45 50 43 52 29 54 30 55 31 56 32 57
REMARK SMILES IDX 38 58 33 59 36 60 34 61 39 62 37 64 35 66 41 68
REMARK H PARENT 58 44 47 46 23 49 45 51 43 53 39 63 37 65 35 67 41 69
ROOT
ATOM      1  C   UNL     1      23.240  60.294  39.213  1.00  0.00     0.282 C 
ATOM      2  O   UNL     1      24.639  60.396  39.045  1.00  0.00    -0.341 OA
ATOM      3  C   UNL     1      25.192  60.463  40.354  1.00  0.00     0.179 C 
ATOM      4  C   UNL     1      24.035  60.326  41.371  1.00  0.00     0.179 C 
ATOM      5  C   UNL     1      22.924  60.956  40.559  1.00  0.00     0.202 C 
ENDROOT
BRANCH   1   6
ATOM      6  O   UNL     1      22.543  60.895  38.131  1.00  0.00    -0.341 OA
BRANCH   6   7
ATOM      7  C   UNL     1      23.371  61.851  37.464  1.00  0.00     0.184 C 
ATOM      8  C   UNL     1      21.230  62.322  35.811  1.00  0.00     0.282 C 
ATOM      9  O   UNL     1      22.443  62.113  35.117  1.00  0.00    -0.341 OA
ATOM     10  C   UNL     1      21.409  63.362  36.954  1.00  0.00     0.202 C 
ATOM     11  C   UNL     1      23.476  61.546  35.933  1.00  0.00     0.178 C 
ATOM     12  C   UNL     1      22.806  63.266  37.634  1.00  0.00     0.180 C 
BRANCH   8  13
ATOM     13  O   UNL     1      20.248  62.839  34.928  1.00  0.00    -0.346 OA
BRANCH  13  14
ATOM     14  C   UNL     1      20.675  63.991  34.221  1.00  0.00     0.125 C 
ATOM     15  C   UNL     1      12.390  69.971  27.576  1.00  0.00     0.012 C 
ATOM     16  C   UNL     1      13.481  69.687  28.611  1.00  0.00     0.011 C 
ATOM     17  C   UNL     1      11.191  69.077  27.902  1.00  0.00     0.167 C 
ATOM     18  C   UNL     1      13.786  68.192  28.582  1.00  0.00     0.067 C 
ATOM     19  O   UNL     1      11.538  67.689  27.874  1.00  0.00    -0.349 OA
ATOM     20  C   UNL     1      12.513  67.332  28.861  1.00  0.00     0.174 C 
ATOM     21  O   UNL     1      12.923  65.997  28.625  1.00  0.00    -0.343 OA
ATOM     22  C   UNL     1      11.878  67.319  30.301  1.00  0.00     0.081 C 
ATOM     23  C   UNL     1      12.762  65.223  29.805  1.00  0.00     0.155 C 
ATOM     24  C   UNL     1      12.574  66.133  31.034  1.00  0.00     0.104 C 
ATOM     25  C   UNL     1      14.020  64.439  30.091  1.00  0.00     0.040 C 
ATOM     26  C   UNL     1      14.024  66.254  31.713  1.00  0.00     0.003 C 
ATOM     27  C   UNL     1      14.972  65.447  30.760  1.00  0.00     0.004 C 
ATOM     28  C   UNL     1      14.099  65.522  33.093  1.00  0.00     0.010 C 
ATOM     29  C   UNL     1      16.152  64.639  31.433  1.00  0.00     0.000 C 
ATOM     30  C   UNL     1      15.510  65.560  33.733  1.00  0.00     0.005 C 
ATOM     31  C   UNL     1      17.285  64.404  30.413  1.00  0.00     0.031 C 
ATOM     32  C   UNL     1      16.682  65.272  32.732  1.00  0.00     0.003 C 
ATOM     33  C   UNL     1      18.631  64.067  31.008  1.00  0.00    -0.027 C 
ATOM     34  C   UNL     1      17.832  64.376  33.375  1.00  0.00    -0.008 C 
ATOM     35  C   UNL     1      18.915  64.076  32.331  1.00  0.00    -0.065 C 
ATOM     36  C   UNL     1      18.421  65.089  34.652  1.00  0.00     0.014 C 
ATOM     37  C   UNL     1      20.371  63.825  32.722  1.00  0.00     0.063 C 
ATOM     38  C   UNL     1      19.952  65.259  34.691  1.00  0.00     0.033 C 
ATOM     39  C   UNL     1      11.991  71.450  27.587  1.00  0.00     0.010 C 
ATOM     40  C   UNL     1      10.343  66.989  30.210  1.00  0.00     0.016 C 
ATOM     41  C   UNL     1      14.406  67.733  32.012  1.00  0.00     0.015 C 
ATOM     42  C   UNL     1      17.297  62.964  33.797  1.00  0.00     0.016 C 
BRANCH  24  43
ATOM     43  O   UNL     1      11.703  65.510  31.954  1.00  0.00    -0.386 OA
ATOM     44  H   UNL     1      11.052  64.983  31.421  1.00  0.00     0.211 HD
ENDBRANCH  24  43
ENDBRANCH  13  14
ENDBRANCH   8  13
BRANCH  10  45
ATOM     45  O   UNL     1      20.360  63.230  37.883  1.00  0.00    -0.385 OA
ATOM     46  H   UNL     1      19.521  63.512  37.437  1.00  0.00     0.211 HD
ENDBRANCH  10  45
BRANCH  11  47
ATOM     47  C   UNL     1      23.645  60.044  35.660  1.00  0.00     0.191 C 
BRANCH  47  48
ATOM     48  O   UNL     1      24.818  59.565  36.264  1.00  0.00    -0.394 OA
ATOM     49  H   UNL     1      25.437  60.337  36.338  1.00  0.00     0.210 HD
ENDBRANCH  47  48
ENDBRANCH  11  47
BRANCH  12  50
ATOM     50  O   UNL     1      23.712  64.198  37.083  1.00  0.00    -0.387 OA
ATOM     51  H   UNL     1      23.461  65.114  37.371  1.00  0.00     0.211 HD
ENDBRANCH  12  50
ENDBRANCH   6   7
ENDBRANCH   1   6
BRANCH   5  52
ATOM     52  O   UNL     1      23.069  62.363  40.544  1.00  0.00    -0.385 OA
ATOM     53  H   UNL     1      22.637  62.747  39.738  1.00  0.00     0.211 HD
ENDBRANCH   5  52
BRANCH   3  54
ATOM     54  C   UNL     1      26.283  59.396  40.500  1.00  0.00     0.198 C 
BRANCH  54  55
ATOM     55  O   UNL     1      27.435  60.048  40.980  1.00  0.00    -0.347 OA
BRANCH  55  56
ATOM     56  C   UNL     1      27.521  60.057  42.388  1.00  0.00     0.281 C 
ATOM     57  O   UNL     1      27.553  58.705  42.858  1.00  0.00    -0.347 OA
ATOM     58  C   UNL     1      28.778  60.842  42.819  1.00  0.00     0.202 C 
ATOM     59  C   UNL     1      28.857  58.109  42.931  1.00  0.00     0.198 C 
ATOM     60  C   UNL     1      30.058  60.230  42.196  1.00  0.00     0.179 C 
ATOM     61  C   UNL     1      29.865  58.715  41.933  1.00  0.00     0.171 C 
BRANCH  58  62
ATOM     62  O   UNL     1      28.686  62.219  42.553  1.00  0.00    -0.385 OA
ATOM     63  H   UNL     1      29.576  62.616  42.736  1.00  0.00     0.211 HD
ENDBRANCH  58  62
BRANCH  60  64
ATOM     64  O   UNL     1      31.167  60.508  43.016  1.00  0.00    -0.387 OA
ATOM     65  H   UNL     1      31.776  59.725  42.976  1.00  0.00     0.211 HD
ENDBRANCH  60  64
BRANCH  61  66
ATOM     66  O   UNL     1      31.088  58.026  41.879  1.00  0.00    -0.388 OA
ATOM     67  H   UNL     1      31.009  57.226  42.460  1.00  0.00     0.211 HD
ENDBRANCH  61  66
ENDBRANCH  55  56
ENDBRANCH  54  55
ENDBRANCH   3  54
BRANCH   4  68
ATOM     68  O   UNL     1      23.735  58.970  41.611  1.00  0.00    -0.387 OA
ATOM     69  H   UNL     1      24.488  58.597  42.139  1.00  0.00     0.211 HD
ENDBRANCH   4  68
TORSDOF 17
ENDMDL
MODEL 2
REMARK VINA RESULT:   -12.407      1.334      2.040
REMARK INTER + INTRA:         -22.933
REMARK INTER:                 -21.742
REMARK INTRA:                  -1.191
REMARK UNBOUND:                -1.461
REMARK SMILES C[C@H]1CC[C@@]2(OC1)O[C@H]1C[C@@H]3[C@H]4CC=C5C[C@H](O[C@H]6O[C@H](CO)[C@H](O[C@H]7O[C@H](CO[C@H]8OC[C@H](O)[C@H](O)[C@H]8O)[C@H](O)[C@H]7O)[C@@H](O)[C@@H]6O)CC[C@@]5(C)[C@@H]4CC[C@]3(C)[C@@]1(O)[C@@H]2C
REMARK SMILES IDX 26 1 27 2 28 3 40 4 42 5 25 6 24 7 19 8 20 9 46 10 21 11
REMARK SMILES IDX 44 12 18 13 17 14 2 15 3 16 7 17 4 18 6 19 5 20 8 21 59 22
REMARK SMILES IDX 9 23 57 24 10 25 55 26 11 27 54 28 12 29 53 30 13 31 52 32
REMARK SMILES IDX 14 33 50 34 15 35 49 36 16 37 48 38 1 39 60 40 56 41 51 42
REMARK SMILES IDX 58 43 47 45 22 47 23 48 45 50 43 52 29 54 30 55 31 56 32 57
REMARK SMILES IDX 38 58 33 59 36 60 34 61 39 62 37 64 35 66 41 68
REMARK H PARENT 58 44 47 46 23 49 45 51 43 53 39 63 37 65 35 67 41 69
ROOT
ATOM      1  C   UNL     1      23.791  61.539  39.176  1.00  0.00     0.282 C 
ATOM      2  O   UNL     1      23.997  60.154  39.368  1.00  0.00    -0.341 OA
ATOM      3  C   UNL     1      25.296  60.020  39.931  1.00  0.00     0.179 C 
ATOM      4  C   UNL     1      25.874  61.437  40.147  1.00  0.00     0.179 C 
ATOM      5  C   UNL     1      25.184  62.156  39.007  1.00  0.00     0.202 C 
ENDROOT
BRANCH   1   6
ATOM      6  O   UNL     1      22.944  61.788  38.065  1.00  0.00    -0.341 OA
BRANCH   6   7
ATOM      7  C   UNL     1      22.692  60.581  37.340  1.00  0.00     0.184 C 
ATOM      8  C   UNL     1      20.905  62.035  35.845  1.00  0.00     0.282 C 
ATOM      9  O   UNL     1      20.381  60.810  36.317  1.00  0.00    -0.341 OA
ATOM     10  C   UNL     1      22.295  61.830  35.177  1.00  0.00     0.202 C 
ATOM     11  C   UNL     1      21.171  60.213  37.354  1.00  0.00     0.178 C 
ATOM     12  C   UNL     1      23.137  60.726  35.880  1.00  0.00     0.180 C 
BRANCH   8  13
ATOM     13  O   UNL     1      20.046  62.583  34.859  1.00  0.00    -0.346 OA
BRANCH  13  14
ATOM     14  C   UNL     1      20.524  63.799  34.307  1.00  0.00     0.125 C 
ATOM     15  C   UNL     1      12.636  70.688  28.072  1.00  0.00     0.012 C 
ATOM     16  C   UNL     1      13.677  70.263  29.110  1.00  0.00     0.011 C 
ATOM     17  C   UNL     1      11.409  69.791  28.244  1.00  0.00     0.167 C 
ATOM     18  C   UNL     1      13.956  68.774  28.921  1.00  0.00     0.067 C 
ATOM     19  O   UNL     1      11.731  68.408  28.070  1.00  0.00    -0.349 OA
ATOM     20  C   UNL     1      12.657  67.918  29.047  1.00  0.00     0.174 C 
ATOM     21  O   UNL     1      13.053  66.610  28.675  1.00  0.00    -0.343 OA
ATOM     22  C   UNL     1      11.962  67.754  30.450  1.00  0.00     0.081 C 
ATOM     23  C   UNL     1      12.828  65.709  29.751  1.00  0.00     0.155 C 
ATOM     24  C   UNL     1      12.605  66.476  31.068  1.00  0.00     0.104 C 
ATOM     25  C   UNL     1      14.058  64.869  29.994  1.00  0.00     0.040 C 
ATOM     26  C   UNL     1      14.027  66.485  31.814  1.00  0.00     0.003 C 
ATOM     27  C   UNL     1      14.999  65.771  30.813  1.00  0.00     0.004 C 
ATOM     28  C   UNL     1      14.030  65.598  33.102  1.00  0.00     0.010 C 
ATOM     29  C   UNL     1      16.134  64.865  31.434  1.00  0.00     0.000 C 
ATOM     30  C   UNL     1      15.412  65.531  33.798  1.00  0.00     0.005 C 
ATOM     31  C   UNL     1      17.305  64.723  30.439  1.00  0.00     0.031 C 
ATOM     32  C   UNL     1      16.621  65.333  32.818  1.00  0.00     0.003 C 
ATOM     33  C   UNL     1      18.619  64.290  31.046  1.00  0.00    -0.027 C 
ATOM     34  C   UNL     1      17.726  64.343  33.398  1.00  0.00    -0.008 C 
ATOM     35  C   UNL     1      18.847  64.140  32.371  1.00  0.00    -0.065 C 
ATOM     36  C   UNL     1      18.273  64.892  34.772  1.00  0.00     0.014 C 
ATOM     37  C   UNL     1      20.281  63.813  32.788  1.00  0.00     0.063 C 
ATOM     38  C   UNL     1      19.804  65.021  34.891  1.00  0.00     0.033 C 
ATOM     39  C   UNL     1      12.264  72.165  28.238  1.00  0.00     0.010 C 
ATOM     40  C   UNL     1      10.426  67.471  30.260  1.00  0.00     0.016 C 
ATOM     41  C   UNL     1      14.422  67.912  32.297  1.00  0.00     0.015 C 
ATOM     42  C   UNL     1      17.148  62.904  33.633  1.00  0.00     0.016 C 
BRANCH  24  43
ATOM     43  O   UNL     1      11.684  65.772  31.874  1.00  0.00    -0.386 OA
ATOM     44  H   UNL     1      11.651  66.241  32.749  1.00  0.00     0.211 HD
ENDBRANCH  24  43
ENDBRANCH  13  14
ENDBRANCH   8  13
BRANCH  10  45
ATOM     45  O   UNL     1      22.978  63.059  35.122  1.00  0.00    -0.385 OA
ATOM     46  H   UNL     1      22.878  63.504  36.002  1.00  0.00     0.211 HD
ENDBRANCH  10  45
BRANCH  11  47
ATOM     47  C   UNL     1      20.542  60.437  38.736  1.00  0.00     0.191 C 
BRANCH  47  48
ATOM     48  O   UNL     1      21.129  59.585  39.685  1.00  0.00    -0.394 OA
ATOM     49  H   UNL     1      20.431  58.934  39.955  1.00  0.00     0.210 HD
ENDBRANCH  47  48
ENDBRANCH  11  47
BRANCH  12  50
ATOM     50  O   UNL     1      23.001  59.482  35.226  1.00  0.00    -0.387 OA
ATOM     51  H   UNL     1      22.581  59.619  34.338  1.00  0.00     0.211 HD
ENDBRANCH  12  50
ENDBRANCH   6   7
ENDBRANCH   1   6
BRANCH   5  52
ATOM     52  O   UNL     1      25.802  61.826  37.778  1.00  0.00    -0.385 OA
ATOM     53  H   UNL     1      25.989  60.853  37.735  1.00  0.00     0.211 HD
ENDBRANCH   5  52
BRANCH   3  54
ATOM     54  C   UNL     1      25.211  59.178  41.209  1.00  0.00     0.198 C 
BRANCH  54  55
ATOM     55  O   UNL     1      26.366  58.373  41.251  1.00  0.00    -0.347 OA
BRANCH  55  56
ATOM     56  C   UNL     1      27.304  58.799  42.215  1.00  0.00     0.281 C 
ATOM     57  O   UNL     1      27.184  57.969  43.376  1.00  0.00    -0.347 OA
ATOM     58  C   UNL     1      28.723  58.736  41.612  1.00  0.00     0.202 C 
ATOM     59  C   UNL     1      27.970  56.768  43.358  1.00  0.00     0.198 C 
ATOM     60  C   UNL     1      29.056  57.305  41.118  1.00  0.00     0.179 C 
ATOM     61  C   UNL     1      28.267  56.250  41.935  1.00  0.00     0.171 C 
BRANCH  58  62
ATOM     62  O   UNL     1      28.936  59.690  40.602  1.00  0.00    -0.385 OA
ATOM     63  H   UNL     1      28.509  59.345  39.774  1.00  0.00     0.211 HD
ENDBRANCH  58  62
BRANCH  60  64
ATOM     64  O   UNL     1      30.447  57.099  41.155  1.00  0.00    -0.387 OA
ATOM     65  H   UNL     1      30.886  57.972  40.979  1.00  0.00     0.211 HD
ENDBRANCH  60  64
BRANCH  61  66
ATOM     66  O   UNL     1      28.887  54.990  41.912  1.00  0.00    -0.388 OA
ATOM     67  H   UNL     1      28.173  54.305  41.841  1.00  0.00     0.211 HD
ENDBRANCH  61  66
ENDBRANCH  55  56
ENDBRANCH  54  55
ENDBRANCH   3  54
BRANCH   4  68
ATOM     68  O   UNL     1      25.441  61.975  41.375  1.00  0.00    -0.387 OA
ATOM     69  H   UNL     1      25.879  62.861  41.472  1.00  0.00     0.211 HD
ENDBRANCH   4  68
TORSDOF 17
ENDMDL
MODEL 3
REMARK VINA RESULT:   -12.208      5.763     19.807
REMARK INTER + INTRA:         -22.589
REMARK INTER:                 -20.482
REMARK INTRA:                  -2.107
REMARK UNBOUND:                -1.461
REMARK SMILES C[C@H]1CC[C@@]2(OC1)O[C@H]1C[C@@H]3[C@H]4CC=C5C[C@H](O[C@H]6O[C@H](CO)[C@H](O[C@H]7O[C@H](CO[C@H]8OC[C@H](O)[C@H](O)[C@H]8O)[C@H](O)[C@H]7O)[C@@H](O)[C@@H]6O)CC[C@@]5(C)[C@@H]4CC[C@]3(C)[C@@]1(O)[C@@H]2C
REMARK SMILES IDX 26 1 27 2 28 3 40 4 42 5 25 6 24 7 19 8 20 9 46 10 21 11
REMARK SMILES IDX 44 12 18 13 17 14 2 15 3 16 7 17 4 18 6 19 5 20 8 21 59 22
REMARK SMILES IDX 9 23 57 24 10 25 55 26 11 27 54 28 12 29 53 30 13 31 52 32
REMARK SMILES IDX 14 33 50 34 15 35 49 36 16 37 48 38 1 39 60 40 56 41 51 42
REMARK SMILES IDX 58 43 47 45 22 47 23 48 45 50 43 52 29 54 30 55 31 56 32 57
REMARK SMILES IDX 38 58 33 59 36 60 34 61 39 62 37 64 35 66 41 68
REMARK H PARENT 58 44 47 46 23 49 45 51 43 53 39 63 37 65 35 67 41 69
ROOT
ATOM      1  C   UNL     1      24.264  60.703  39.682  1.00  0.00     0.282 C 
ATOM      2  O   UNL     1      23.999  60.055  38.455  1.00  0.00    -0.341 OA
ATOM      3  C   UNL     1      22.709  60.495  38.045  1.00  0.00     0.179 C 
ATOM      4  C   UNL     1      22.205  61.530  39.077  1.00  0.00     0.179 C 
ATOM      5  C   UNL     1      22.898  60.997  40.312  1.00  0.00     0.202 C 
ENDROOT
BRANCH   1   6
ATOM      6  O   UNL     1      25.093  59.910  40.518  1.00  0.00    -0.341 OA
BRANCH   6   7
ATOM      7  C   UNL     1      25.399  60.603  41.731  1.00  0.00     0.184 C 
ATOM      8  C   UNL     1      27.591  58.962  41.934  1.00  0.00     0.282 C 
ATOM      9  O   UNL     1      26.834  59.041  43.125  1.00  0.00    -0.341 OA
ATOM     10  C   UNL     1      27.891  60.378  41.363  1.00  0.00     0.202 C 
ATOM     11  C   UNL     1      25.533  59.613  42.936  1.00  0.00     0.178 C 
ATOM     12  C   UNL     1      26.717  61.374  41.594  1.00  0.00     0.180 C 
BRANCH   8  13
ATOM     13  O   UNL     1      28.842  58.345  42.194  1.00  0.00    -0.346 OA
BRANCH  13  14
ATOM     14  C   UNL     1      29.036  57.138  41.475  1.00  0.00     0.125 C 
ATOM     15  C   UNL     1      31.095  46.980  47.888  1.00  0.00     0.012 C 
ATOM     16  C   UNL     1      30.464  47.960  46.896  1.00  0.00     0.011 C 
ATOM     17  C   UNL     1      31.011  47.604  49.282  1.00  0.00     0.167 C 
ATOM     18  C   UNL     1      31.183  49.299  47.029  1.00  0.00     0.067 C 
ATOM     19  O   UNL     1      31.690  48.863  49.344  1.00  0.00    -0.349 OA
ATOM     20  C   UNL     1      31.115  49.855  48.486  1.00  0.00     0.174 C 
ATOM     21  O   UNL     1      31.965  50.988  48.477  1.00  0.00    -0.343 OA
ATOM     22  C   UNL     1      29.745  50.374  49.062  1.00  0.00     0.081 C 
ATOM     23  C   UNL     1      31.227  52.153  48.821  1.00  0.00     0.155 C 
ATOM     24  C   UNL     1      29.713  51.892  48.713  1.00  0.00     0.104 C 
ATOM     25  C   UNL     1      31.504  53.258  47.831  1.00  0.00     0.040 C 
ATOM     26  C   UNL     1      29.277  52.449  47.272  1.00  0.00     0.003 C 
ATOM     27  C   UNL     1      30.617  52.932  46.616  1.00  0.00     0.004 C 
ATOM     28  C   UNL     1      28.379  53.726  47.373  1.00  0.00     0.010 C 
ATOM     29  C   UNL     1      30.547  54.216  45.697  1.00  0.00     0.000 C 
ATOM     30  C   UNL     1      28.008  54.327  45.994  1.00  0.00     0.005 C 
ATOM     31  C   UNL     1      31.727  54.222  44.703  1.00  0.00     0.031 C 
ATOM     32  C   UNL     1      29.199  54.397  44.976  1.00  0.00     0.003 C 
ATOM     33  C   UNL     1      31.548  55.108  43.493  1.00  0.00    -0.027 C 
ATOM     34  C   UNL     1      29.190  55.735  44.112  1.00  0.00    -0.008 C 
ATOM     35  C   UNL     1      30.412  55.775  43.185  1.00  0.00    -0.065 C 
ATOM     36  C   UNL     1      27.835  55.853  43.313  1.00  0.00     0.014 C 
ATOM     37  C   UNL     1      30.394  56.520  41.850  1.00  0.00     0.063 C 
ATOM     38  C   UNL     1      27.959  56.094  41.797  1.00  0.00     0.033 C 
ATOM     39  C   UNL     1      30.384  45.623  47.851  1.00  0.00     0.010 C 
ATOM     40  C   UNL     1      29.736  50.245  50.630  1.00  0.00     0.016 C 
ATOM     41  C   UNL     1      28.428  51.413  46.479  1.00  0.00     0.015 C 
ATOM     42  C   UNL     1      29.345  57.008  45.015  1.00  0.00     0.016 C 
BRANCH  24  43
ATOM     43  O   UNL     1      29.034  52.636  49.702  1.00  0.00    -0.386 OA
ATOM     44  H   UNL     1      28.087  52.338  49.686  1.00  0.00     0.211 HD
ENDBRANCH  24  43
ENDBRANCH  13  14
ENDBRANCH   8  13
BRANCH  10  45
ATOM     45  O   UNL     1      28.236  60.276  40.003  1.00  0.00    -0.385 OA
ATOM     46  H   UNL     1      27.743  59.506  39.620  1.00  0.00     0.211 HD
ENDBRANCH  10  45
BRANCH  11  47
ATOM     47  C   UNL     1      24.444  58.531  42.911  1.00  0.00     0.191 C 
BRANCH  47  48
ATOM     48  O   UNL     1      24.693  57.609  41.883  1.00  0.00    -0.394 OA
ATOM     49  H   UNL     1      23.852  57.525  41.364  1.00  0.00     0.210 HD
ENDBRANCH  47  48
ENDBRANCH  11  47
BRANCH  12  50
ATOM     50  O   UNL     1      26.923  62.152  42.754  1.00  0.00    -0.387 OA
ATOM     51  H   UNL     1      26.294  62.919  42.755  1.00  0.00     0.211 HD
ENDBRANCH  12  50
ENDBRANCH   6   7
ENDBRANCH   1   6
BRANCH   5  52
ATOM     52  O   UNL     1      22.233  59.840  40.783  1.00  0.00    -0.385 OA
ATOM     53  H   UNL     1      21.424  59.661  40.238  1.00  0.00     0.211 HD
ENDBRANCH   5  52
BRANCH   3  54
ATOM     54  C   UNL     1      22.788  61.029  36.610  1.00  0.00     0.198 C 
BRANCH  54  55
ATOM     55  O   UNL     1      21.469  61.306  36.200  1.00  0.00    -0.347 OA
BRANCH  55  56
ATOM     56  C   UNL     1      21.396  62.310  35.211  1.00  0.00     0.281 C 
ATOM     57  O   UNL     1      20.706  61.785  34.071  1.00  0.00    -0.347 OA
ATOM     58  C   UNL     1      20.681  63.548  35.791  1.00  0.00     0.202 C 
ATOM     59  C   UNL     1      19.277  61.917  34.101  1.00  0.00     0.198 C 
ATOM     60  C   UNL     1      19.266  63.184  36.309  1.00  0.00     0.179 C 
ATOM     61  C   UNL     1      18.696  61.973  35.529  1.00  0.00     0.171 C 
BRANCH  58  62
ATOM     62  O   UNL     1      21.434  64.208  36.777  1.00  0.00    -0.385 OA
ATOM     63  H   UNL     1      21.336  63.694  37.619  1.00  0.00     0.211 HD
ENDBRANCH  58  62
BRANCH  60  64
ATOM     64  O   UNL     1      18.432  64.316  36.253  1.00  0.00    -0.387 OA
ATOM     65  H   UNL     1      18.173  64.453  35.304  1.00  0.00     0.211 HD
ENDBRANCH  60  64
BRANCH  61  66
ATOM     66  O   UNL     1      17.292  61.931  35.568  1.00  0.00    -0.388 OA
ATOM     67  H   UNL     1      17.022  60.979  35.649  1.00  0.00     0.211 HD
ENDBRANCH  61  66
ENDBRANCH  55  56
ENDBRANCH  54  55
ENDBRANCH   3  54
BRANCH   4  68
ATOM     68  O   UNL     1      22.694  62.817  38.778  1.00  0.00    -0.387 OA
ATOM     69  H   UNL     1      23.636  62.847  39.092  1.00  0.00     0.211 HD
ENDBRANCH   4  68
TORSDOF 17
ENDMDL
MODEL 4
REMARK VINA RESULT:   -12.135      5.982     19.947
REMARK INTER + INTRA:         -22.463
REMARK INTER:                 -20.031
REMARK INTRA:                  -2.433
REMARK UNBOUND:                -1.461
REMARK SMILES C[C@H]1CC[C@@]2(OC1)O[C@H]1C[C@@H]3[C@H]4CC=C5C[C@H](O[C@H]6O[C@H](CO)[C@H](O[C@H]7O[C@H](CO[C@H]8OC[C@H](O)[C@H](O)[C@H]8O)[C@H](O)[C@H]7O)[C@@H](O)[C@@H]6O)CC[C@@]5(C)[C@@H]4CC[C@]3(C)[C@@]1(O)[C@@H]2C
REMARK SMILES IDX 26 1 27 2 28 3 40 4 42 5 25 6 24 7 19 8 20 9 46 10 21 11
REMARK SMILES IDX 44 12 18 13 17 14 2 15 3 16 7 17 4 18 6 19 5 20 8 21 59 22
REMARK SMILES IDX 9 23 57 24 10 25 55 26 11 27 54 28 12 29 53 30 13 31 52 32
REMARK SMILES IDX 14 33 50 34 15 35 49 36 16 37 48 38 1 39 60 40 56 41 51 42
REMARK SMILES IDX 58 43 47 45 22 47 23 48 45 50 43 52 29 54 30 55 31 56 32 57
REMARK SMILES IDX 38 58 33 59 36 60 34 61 39 62 37 64 35 66 41 68
REMARK H PARENT 58 44 47 46 23 49 45 51 43 53 39 63 37 65 35 67 41 69
ROOT
ATOM      1  C   UNL     1      24.376  60.359  39.646  1.00  0.00     0.282 C 
ATOM      2  O   UNL     1      23.124  60.947  39.937  1.00  0.00    -0.341 OA
ATOM      3  C   UNL     1      22.824  61.804  38.842  1.00  0.00     0.179 C 
ATOM      4  C   UNL     1      23.954  61.660  37.797  1.00  0.00     0.179 C 
ATOM      5  C   UNL     1      25.106  61.346  38.728  1.00  0.00     0.202 C 
ENDROOT
BRANCH   1   6
ATOM      6  O   UNL     1      25.104  60.075  40.832  1.00  0.00    -0.341 OA
BRANCH   6   7
ATOM      7  C   UNL     1      25.851  58.865  40.688  1.00  0.00     0.184 C 
ATOM      8  C   UNL     1      26.306  59.008  43.393  1.00  0.00     0.282 C 
ATOM      9  O   UNL     1      27.477  58.773  42.635  1.00  0.00    -0.341 OA
ATOM     10  C   UNL     1      25.164  58.037  42.977  1.00  0.00     0.202 C 
ATOM     11  C   UNL     1      27.309  59.026  41.234  1.00  0.00     0.178 C 
ATOM     12  C   UNL     1      25.177  57.720  41.453  1.00  0.00     0.180 C 
BRANCH   8  13
ATOM     13  O   UNL     1      26.565  58.782  44.769  1.00  0.00    -0.346 OA
BRANCH  13  14
ATOM     14  C   UNL     1      26.289  59.907  45.587  1.00  0.00     0.125 C 
ATOM     15  C   UNL     1      34.715  63.173  53.765  1.00  0.00     0.012 C 
ATOM     16  C   UNL     1      33.724  63.251  52.602  1.00  0.00     0.011 C 
ATOM     17  C   UNL     1      35.745  62.092  53.434  1.00  0.00     0.167 C 
ATOM     18  C   UNL     1      33.130  61.862  52.391  1.00  0.00     0.067 C 
ATOM     19  O   UNL     1      35.131  60.815  53.233  1.00  0.00    -0.349 OA
ATOM     20  C   UNL     1      34.232  60.791  52.117  1.00  0.00     0.174 C 
ATOM     21  O   UNL     1      33.541  59.555  52.123  1.00  0.00    -0.343 OA
ATOM     22  C   UNL     1      35.023  60.814  50.756  1.00  0.00     0.081 C 
ATOM     23  C   UNL     1      33.690  58.909  50.866  1.00  0.00     0.155 C 
ATOM     24  C   UNL     1      34.202  59.897  49.801  1.00  0.00     0.104 C 
ATOM     25  C   UNL     1      32.346  58.448  50.355  1.00  0.00     0.040 C 
ATOM     26  C   UNL     1      32.899  60.400  49.011  1.00  0.00     0.003 C 
ATOM     27  C   UNL     1      31.701  59.705  49.746  1.00  0.00     0.004 C 
ATOM     28  C   UNL     1      32.850  59.869  47.540  1.00  0.00     0.010 C 
ATOM     29  C   UNL     1      30.477  59.250  48.857  1.00  0.00     0.000 C 
ATOM     30  C   UNL     1      31.564  60.280  46.781  1.00  0.00     0.005 C 
ATOM     31  C   UNL     1      29.203  59.141  49.721  1.00  0.00     0.031 C 
ATOM     32  C   UNL     1      30.244  60.130  47.615  1.00  0.00     0.003 C 
ATOM     33  C   UNL     1      27.900  59.170  48.959  1.00  0.00    -0.027 C 
ATOM     34  C   UNL     1      29.028  59.580  46.746  1.00  0.00    -0.008 C 
ATOM     35  C   UNL     1      27.787  59.395  47.629  1.00  0.00    -0.065 C 
ATOM     36  C   UNL     1      28.751  60.547  45.531  1.00  0.00     0.014 C 
ATOM     37  C   UNL     1      26.369  59.505  47.070  1.00  0.00     0.063 C 
ATOM     38  C   UNL     1      27.300  61.040  45.371  1.00  0.00     0.033 C 
ATOM     39  C   UNL     1      35.396  64.526  54.001  1.00  0.00     0.010 C 
ATOM     40  C   UNL     1      36.441  60.158  50.946  1.00  0.00     0.016 C 
ATOM     41  C   UNL     1      32.855  61.952  48.887  1.00  0.00     0.015 C 
ATOM     42  C   UNL     1      29.321  58.146  46.182  1.00  0.00     0.016 C 
BRANCH  24  43
ATOM     43  O   UNL     1      35.039  59.217  48.890  1.00  0.00    -0.386 OA
ATOM     44  H   UNL     1      35.101  58.277  49.204  1.00  0.00     0.211 HD
ENDBRANCH  24  43
ENDBRANCH  13  14
ENDBRANCH   8  13
BRANCH  10  45
ATOM     45  O   UNL     1      23.925  58.556  43.398  1.00  0.00    -0.385 OA
ATOM     46  H   UNL     1      23.268  58.404  42.671  1.00  0.00     0.211 HD
ENDBRANCH  10  45
BRANCH  11  47
ATOM     47  C   UNL     1      27.924  60.374  40.831  1.00  0.00     0.191 C 
BRANCH  47  48
ATOM     48  O   UNL     1      27.334  61.419  41.558  1.00  0.00    -0.394 OA
ATOM     49  H   UNL     1      27.789  62.254  41.277  1.00  0.00     0.210 HD
ENDBRANCH  47  48
ENDBRANCH  11  47
BRANCH  12  50
ATOM     50  O   UNL     1      25.860  56.514  41.184  1.00  0.00    -0.387 OA
ATOM     51  H   UNL     1      25.482  56.094  40.368  1.00  0.00     0.211 HD
ENDBRANCH  12  50
ENDBRANCH   6   7
ENDBRANCH   1   6
BRANCH   5  52
ATOM     52  O   UNL     1      25.534  62.522  39.388  1.00  0.00    -0.385 OA
ATOM     53  H   UNL     1      24.927  63.277  39.176  1.00  0.00     0.211 HD
ENDBRANCH   5  52
BRANCH   3  54
ATOM     54  C   UNL     1      21.428  61.470  38.304  1.00  0.00     0.198 C 
BRANCH  54  55
ATOM     55  O   UNL     1      21.246  62.226  37.130  1.00  0.00    -0.347 OA
BRANCH  55  56
ATOM     56  C   UNL     1      20.156  61.785  36.350  1.00  0.00     0.281 C 
ATOM     57  O   UNL     1      19.391  62.925  35.939  1.00  0.00    -0.347 OA
ATOM     58  C   UNL     1      20.684  60.985  35.140  1.00  0.00     0.202 C 
ATOM     59  C   UNL     1      19.821  63.548  34.720  1.00  0.00     0.198 C 
ATOM     60  C   UNL     1      21.658  61.838  34.289  1.00  0.00     0.179 C 
ATOM     61  C   UNL     1      21.321  63.345  34.423  1.00  0.00     0.171 C 
BRANCH  58  62
ATOM     62  O   UNL     1      21.260  59.756  35.501  1.00  0.00    -0.385 OA
ATOM     63  H   UNL     1      22.205  59.932  35.745  1.00  0.00     0.211 HD
ENDBRANCH  58  62
BRANCH  60  64
ATOM     64  O   UNL     1      21.645  61.390  32.956  1.00  0.00    -0.387 OA
ATOM     65  H   UNL     1      22.580  61.400  32.625  1.00  0.00     0.211 HD
ENDBRANCH  60  64
BRANCH  61  66
ATOM     66  O   UNL     1      21.785  64.091  33.326  1.00  0.00    -0.388 OA
ATOM     67  H   UNL     1      22.617  64.552  33.606  1.00  0.00     0.211 HD
ENDBRANCH  61  66
ENDBRANCH  55  56
ENDBRANCH  54  55
ENDBRANCH   3  54
BRANCH   4  68
ATOM     68  O   UNL     1      23.718  60.560  36.948  1.00  0.00    -0.387 OA
ATOM     69  H   UNL     1      22.951  60.803  36.368  1.00  0.00     0.211 HD
ENDBRANCH   4  68
TORSDOF 17
ENDMDL
MODEL 5
REMARK VINA RESULT:   -12.038      6.819     20.877
REMARK INTER + INTRA:         -22.295
REMARK INTER:                 -20.172
REMARK INTRA:                  -2.123
REMARK UNBOUND:                -1.461
REMARK SMILES C[C@H]1CC[C@@]2(OC1)O[C@H]1C[C@@H]3[C@H]4CC=C5C[C@H](O[C@H]6O[C@H](CO)[C@H](O[C@H]7O[C@H](CO[C@H]8OC[C@H](O)[C@H](O)[C@H]8O)[C@H](O)[C@H]7O)[C@@H](O)[C@@H]6O)CC[C@@]5(C)[C@@H]4CC[C@]3(C)[C@@]1(O)[C@@H]2C
REMARK SMILES IDX 26 1 27 2 28 3 40 4 42 5 25 6 24 7 19 8 20 9 46 10 21 11
REMARK SMILES IDX 44 12 18 13 17 14 2 15 3 16 7 17 4 18 6 19 5 20 8 21 59 22
REMARK SMILES IDX 9 23 57 24 10 25 55 26 11 27 54 28 12 29 53 30 13 31 52 32
REMARK SMILES IDX 14 33 50 34 15 35 49 36 16 37 48 38 1 39 60 40 56 41 51 42
REMARK SMILES IDX 58 43 47 45 22 47 23 48 45 50 43 52 29 54 30 55 31 56 32 57
REMARK SMILES IDX 38 58 33 59 36 60 34 61 39 62 37 64 35 66 41 68
REMARK H PARENT 58 44 47 46 23 49 45 51 43 53 39 63 37 65 35 67 41 69
ROOT
ATOM      1  C   UNL     1      25.779  60.261  40.210  1.00  0.00     0.282 C 
ATOM      2  O   UNL     1      24.986  59.417  39.400  1.00  0.00    -0.341 OA
ATOM      3  C   UNL     1      24.162  60.276  38.621  1.00  0.00     0.179 C 
ATOM      4  C   UNL     1      24.544  61.737  38.950  1.00  0.00     0.179 C 
ATOM      5  C   UNL     1      24.978  61.555  40.389  1.00  0.00     0.202 C 
ENDROOT
BRANCH   1   6
ATOM      6  O   UNL     1      26.101  59.641  41.446  1.00  0.00    -0.341 OA
BRANCH   6   7
ATOM      7  C   UNL     1      26.996  60.459  42.204  1.00  0.00     0.184 C 
ATOM      8  C   UNL     1      28.126  58.121  43.098  1.00  0.00     0.282 C 
ATOM      9  O   UNL     1      27.830  59.037  44.134  1.00  0.00    -0.341 OA
ATOM     10  C   UNL     1      28.900  58.815  41.940  1.00  0.00     0.202 C 
ATOM     11  C   UNL     1      26.952  60.094  43.726  1.00  0.00     0.178 C 
ATOM     12  C   UNL     1      28.437  60.283  41.710  1.00  0.00     0.180 C 
BRANCH   8  13
ATOM     13  O   UNL     1      28.958  57.083  43.591  1.00  0.00    -0.346 OA
BRANCH  13  14
ATOM     14  C   UNL     1      29.191  57.162  44.988  1.00  0.00     0.125 C 
ATOM     15  C   UNL     1      32.807  47.030  50.716  1.00  0.00     0.012 C 
ATOM     16  C   UNL     1      32.781  48.476  50.215  1.00  0.00     0.011 C 
ATOM     17  C   UNL     1      32.839  46.111  49.494  1.00  0.00     0.167 C 
ATOM     18  C   UNL     1      31.586  48.633  49.280  1.00  0.00     0.067 C 
ATOM     19  O   UNL     1      31.703  46.310  48.647  1.00  0.00    -0.349 OA
ATOM     20  C   UNL     1      31.643  47.628  48.087  1.00  0.00     0.174 C 
ATOM     21  O   UNL     1      30.398  47.780  47.430  1.00  0.00    -0.343 OA
ATOM     22  C   UNL     1      32.728  47.812  46.962  1.00  0.00     0.081 C 
ATOM     23  C   UNL     1      30.604  48.194  46.086  1.00  0.00     0.155 C 
ATOM     24  C   UNL     1      32.042  48.711  45.888  1.00  0.00     0.104 C 
ATOM     25  C   UNL     1      29.719  49.373  45.761  1.00  0.00     0.040 C 
ATOM     26  C   UNL     1      31.952  50.308  46.013  1.00  0.00     0.003 C 
ATOM     27  C   UNL     1      30.448  50.591  46.355  1.00  0.00     0.004 C 
ATOM     28  C   UNL     1      32.212  51.029  44.649  1.00  0.00     0.010 C 
ATOM     29  C   UNL     1      29.804  51.898  45.743  1.00  0.00     0.000 C 
ATOM     30  C   UNL     1      32.057  52.568  44.728  1.00  0.00     0.005 C 
ATOM     31  C   UNL     1      28.593  52.340  46.589  1.00  0.00     0.031 C 
ATOM     32  C   UNL     1      30.804  53.051  45.539  1.00  0.00     0.003 C 
ATOM     33  C   UNL     1      28.172  53.780  46.412  1.00  0.00    -0.027 C 
ATOM     34  C   UNL     1      30.091  54.311  44.873  1.00  0.00    -0.008 C 
ATOM     35  C   UNL     1      28.840  54.696  45.674  1.00  0.00    -0.065 C 
ATOM     36  C   UNL     1      31.111  55.509  44.758  1.00  0.00     0.014 C 
ATOM     37  C   UNL     1      28.316  56.130  45.721  1.00  0.00     0.063 C 
ATOM     38  C   UNL     1      30.649  56.855  45.349  1.00  0.00     0.033 C 
ATOM     39  C   UNL     1      34.019  46.782  51.621  1.00  0.00     0.010 C 
ATOM     40  C   UNL     1      33.047  46.426  46.289  1.00  0.00     0.016 C 
ATOM     41  C   UNL     1      33.024  50.878  46.989  1.00  0.00     0.015 C 
ATOM     42  C   UNL     1      29.550  53.980  43.439  1.00  0.00     0.016 C 
BRANCH  24  43
ATOM     43  O   UNL     1      32.484  48.390  44.587  1.00  0.00    -0.386 OA
ATOM     44  H   UNL     1      33.268  47.789  44.689  1.00  0.00     0.211 HD
ENDBRANCH  24  43
ENDBRANCH  13  14
ENDBRANCH   8  13
BRANCH  10  45
ATOM     45  O   UNL     1      28.795  58.039  40.771  1.00  0.00    -0.385 OA
ATOM     46  H   UNL     1      29.681  58.038  40.325  1.00  0.00     0.211 HD
ENDBRANCH  10  45
BRANCH  11  47
ATOM     47  C   UNL     1      25.517  59.852  44.214  1.00  0.00     0.191 C 
BRANCH  47  48
ATOM     48  O   UNL     1      24.672  60.887  43.784  1.00  0.00    -0.394 OA
ATOM     49  H   UNL     1      25.155  61.737  43.949  1.00  0.00     0.210 HD
ENDBRANCH  47  48
ENDBRANCH  11  47
BRANCH  12  50
ATOM     50  O   UNL     1      29.275  61.198  42.383  1.00  0.00    -0.387 OA
ATOM     51  H   UNL     1      30.211  61.079  42.075  1.00  0.00     0.211 HD
ENDBRANCH  12  50
ENDBRANCH   6   7
ENDBRANCH   1   6
BRANCH   5  52
ATOM     52  O   UNL     1      23.845  61.407  41.224  1.00  0.00    -0.385 OA
ATOM     53  H   UNL     1      23.246  60.700  40.870  1.00  0.00     0.211 HD
ENDBRANCH   5  52
BRANCH   3  54
ATOM     54  C   UNL     1      24.305  59.910  37.139  1.00  0.00     0.198 C 
BRANCH  54  55
ATOM     55  O   UNL     1      23.565  60.858  36.406  1.00  0.00    -0.347 OA
BRANCH  55  56
ATOM     56  C   UNL     1      22.358  60.341  35.892  1.00  0.00     0.281 C 
ATOM     57  O   UNL     1      21.521  59.945  36.985  1.00  0.00    -0.347 OA
ATOM     58  C   UNL     1      21.678  61.411  35.011  1.00  0.00     0.202 C 
ATOM     59  C   UNL     1      20.679  60.975  37.521  1.00  0.00     0.198 C 
ATOM     60  C   UNL     1      21.420  62.711  35.813  1.00  0.00     0.179 C 
ATOM     61  C   UNL     1      21.245  62.397  37.320  1.00  0.00     0.171 C 
BRANCH  58  62
ATOM     62  O   UNL     1      22.378  61.671  33.821  1.00  0.00    -0.385 OA
ATOM     63  H   UNL     1      23.146  61.043  33.785  1.00  0.00     0.211 HD
ENDBRANCH  58  62
BRANCH  60  64
ATOM     64  O   UNL     1      20.322  63.400  35.265  1.00  0.00    -0.387 OA
ATOM     65  H   UNL     1      20.036  64.085  35.924  1.00  0.00     0.211 HD
ENDBRANCH  60  64
BRANCH  61  66
ATOM     66  O   UNL     1      20.515  63.394  37.988  1.00  0.00    -0.388 OA
ATOM     67  H   UNL     1      20.747  64.265  37.574  1.00  0.00     0.211 HD
ENDBRANCH  61  66
ENDBRANCH  55  56
ENDBRANCH  54  55
ENDBRANCH   3  54
BRANCH   4  68
ATOM     68  O   UNL     1      25.644  62.156  38.175  1.00  0.00    -0.387 OA
ATOM     69  H   UNL     1      25.307  62.847  37.546  1.00  0.00     0.211 HD
ENDBRANCH   4  68
TORSDOF 17
ENDMDL
MODEL 6
REMARK VINA RESULT:   -12.007      6.537     20.417
REMARK INTER + INTRA:         -22.242
REMARK INTER:                 -20.236
REMARK INTRA:                  -2.005
REMARK UNBOUND:                -1.461
REMARK SMILES C[C@H]1CC[C@@]2(OC1)O[C@H]1C[C@@H]3[C@H]4CC=C5C[C@H](O[C@H]6O[C@H](CO)[C@H](O[C@H]7O[C@H](CO[C@H]8OC[C@H](O)[C@H](O)[C@H]8O)[C@H](O)[C@H]7O)[C@@H](O)[C@@H]6O)CC[C@@]5(C)[C@@H]4CC[C@]3(C)[C@@]1(O)[C@@H]2C
REMARK SMILES IDX 26 1 27 2 28 3 40 4 42 5 25 6 24 7 19 8 20 9 46 10 21 11
REMARK SMILES IDX 44 12 18 13 17 14 2 15 3 16 7 17 4 18 6 19 5 20 8 21 59 22
REMARK SMILES IDX 9 23 57 24 10 25 55 26 11 27 54 28 12 29 53 30 13 31 52 32
REMARK SMILES IDX 14 33 50 34 15 35 49 36 16 37 48 38 1 39 60 40 56 41 51 42
REMARK SMILES IDX 58 43 47 45 22 47 23 48 45 50 43 52 29 54 30 55 31 56 32 57
REMARK SMILES IDX 38 58 33 59 36 60 34 61 39 62 37 64 35 66 41 68
REMARK H PARENT 58 44 47 46 23 49 45 51 43 53 39 63 37 65 35 67 41 69
ROOT
ATOM      1  C   UNL     1      25.101  60.556  40.713  1.00  0.00     0.282 C 
ATOM      2  O   UNL     1      25.508  60.922  39.410  1.00  0.00    -0.341 OA
ATOM      3  C   UNL     1      24.384  60.696  38.566  1.00  0.00     0.179 C 
ATOM      4  C   UNL     1      23.208  60.223  39.449  1.00  0.00     0.179 C 
ATOM      5  C   UNL     1      23.990  59.515  40.535  1.00  0.00     0.202 C 
ENDROOT
BRANCH   1   6
ATOM      6  O   UNL     1      26.192  60.067  41.478  1.00  0.00    -0.341 OA
BRANCH   6   7
ATOM      7  C   UNL     1      26.687  61.079  42.358  1.00  0.00     0.184 C 
ATOM      8  C   UNL     1      28.507  59.216  43.227  1.00  0.00     0.282 C 
ATOM      9  O   UNL     1      27.836  59.882  44.278  1.00  0.00    -0.341 OA
ATOM     10  C   UNL     1      29.062  60.228  42.184  1.00  0.00     0.202 C 
ATOM     11  C   UNL     1      26.671  60.598  43.848  1.00  0.00     0.178 C 
ATOM     12  C   UNL     1      28.126  61.457  41.991  1.00  0.00     0.180 C 
BRANCH   8  13
ATOM     13  O   UNL     1      29.616  58.495  43.739  1.00  0.00    -0.346 OA
BRANCH  13  14
ATOM     14  C   UNL     1      29.526  58.232  45.129  1.00  0.00     0.125 C 
ATOM     15  C   UNL     1      32.786  47.157  49.035  1.00  0.00     0.012 C 
ATOM     16  C   UNL     1      32.726  48.680  48.893  1.00  0.00     0.011 C 
ATOM     17  C   UNL     1      33.178  46.574  47.676  1.00  0.00     0.167 C 
ATOM     18  C   UNL     1      31.757  49.013  47.763  1.00  0.00     0.067 C 
ATOM     19  O   UNL     1      32.243  46.930  46.653  1.00  0.00    -0.349 OA
ATOM     20  C   UNL     1      32.176  48.341  46.418  1.00  0.00     0.174 C 
ATOM     21  O   UNL     1      31.098  48.599  45.537  1.00  0.00    -0.343 OA
ATOM     22  C   UNL     1      33.459  48.847  45.658  1.00  0.00     0.081 C 
ATOM     23  C   UNL     1      31.554  49.344  44.415  1.00  0.00     0.155 C 
ATOM     24  C   UNL     1      32.941  49.955  44.692  1.00  0.00     0.104 C 
ATOM     25  C   UNL     1      30.649  50.527  44.172  1.00  0.00     0.040 C 
ATOM     26  C   UNL     1      32.666  51.466  45.160  1.00  0.00     0.003 C 
ATOM     27  C   UNL     1      31.103  51.589  45.189  1.00  0.00     0.004 C 
ATOM     28  C   UNL     1      33.147  52.514  44.104  1.00  0.00     0.010 C 
ATOM     29  C   UNL     1      30.482  52.978  44.762  1.00  0.00     0.000 C 
ATOM     30  C   UNL     1      32.824  53.977  44.500  1.00  0.00     0.005 C 
ATOM     31  C   UNL     1      29.076  53.142  45.375  1.00  0.00     0.031 C 
ATOM     32  C   UNL     1      31.381  54.188  45.077  1.00  0.00     0.003 C 
ATOM     33  C   UNL     1      28.562  54.561  45.442  1.00  0.00    -0.027 C 
ATOM     34  C   UNL     1      30.711  55.542  44.573  1.00  0.00    -0.008 C 
ATOM     35  C   UNL     1      29.281  55.660  45.118  1.00  0.00    -0.065 C 
ATOM     36  C   UNL     1      31.606  56.774  44.986  1.00  0.00     0.014 C 
ATOM     37  C   UNL     1      28.618  57.014  45.372  1.00  0.00     0.063 C 
ATOM     38  C   UNL     1      30.892  57.908  45.746  1.00  0.00     0.033 C 
ATOM     39  C   UNL     1      33.786  46.743  50.120  1.00  0.00     0.010 C 
ATOM     40  C   UNL     1      34.056  47.688  44.778  1.00  0.00     0.016 C 
ATOM     41  C   UNL     1      33.433  51.819  46.468  1.00  0.00     0.015 C 
ATOM     42  C   UNL     1      30.536  55.557  43.015  1.00  0.00     0.016 C 
BRANCH  24  43
ATOM     43  O   UNL     1      33.689  49.989  43.495  1.00  0.00    -0.386 OA
ATOM     44  H   UNL     1      33.454  49.169  42.986  1.00  0.00     0.211 HD
ENDBRANCH  24  43
ENDBRANCH  13  14
ENDBRANCH   8  13
BRANCH  10  45
ATOM     45  O   UNL     1      29.318  59.564  40.970  1.00  0.00    -0.385 OA
ATOM     46  H   UNL     1      29.670  60.231  40.326  1.00  0.00     0.211 HD
ENDBRANCH  10  45
BRANCH  11  47
ATOM     47  C   UNL     1      25.385  59.832  44.187  1.00  0.00     0.191 C 
BRANCH  47  48
ATOM     48  O   UNL     1      25.480  58.500  43.756  1.00  0.00    -0.394 OA
ATOM     49  H   UNL     1      26.430  58.233  43.860  1.00  0.00     0.210 HD
ENDBRANCH  47  48
ENDBRANCH  11  47
BRANCH  12  50
ATOM     50  O   UNL     1      28.539  62.548  42.787  1.00  0.00    -0.387 OA
ATOM     51  H   UNL     1      27.741  63.039  43.115  1.00  0.00     0.211 HD
ENDBRANCH  12  50
ENDBRANCH   6   7
ENDBRANCH   1   6
BRANCH   5  52
ATOM     52  O   UNL     1      24.457  58.266  40.063  1.00  0.00    -0.385 OA
ATOM     53  H   UNL     1      23.705  57.625  39.979  1.00  0.00     0.211 HD
ENDBRANCH   5  52
BRANCH   3  54
ATOM     54  C   UNL     1      24.091  61.968  37.761  1.00  0.00     0.198 C 
BRANCH  54  55
ATOM     55  O   UNL     1      22.937  61.714  36.995  1.00  0.00    -0.347 OA
BRANCH  55  56
ATOM     56  C   UNL     1      22.300  62.890  36.545  1.00  0.00     0.281 C 
ATOM     57  O   UNL     1      22.431  62.971  35.121  1.00  0.00    -0.347 OA
ATOM     58  C   UNL     1      20.820  62.870  36.983  1.00  0.00     0.202 C 
ATOM     59  C   UNL     1      21.406  62.305  34.370  1.00  0.00     0.198 C 
ATOM     60  C   UNL     1      20.096  61.612  36.440  1.00  0.00     0.179 C 
ATOM     61  C   UNL     1      20.758  61.126  35.126  1.00  0.00     0.171 C 
BRANCH  58  62
ATOM     62  O   UNL     1      20.654  62.998  38.372  1.00  0.00    -0.385 OA
ATOM     63  H   UNL     1      20.780  62.098  38.770  1.00  0.00     0.211 HD
ENDBRANCH  58  62
BRANCH  60  64
ATOM     64  O   UNL     1      18.722  61.878  36.296  1.00  0.00    -0.387 OA
ATOM     65  H   UNL     1      18.377  61.299  35.567  1.00  0.00     0.211 HD
ENDBRANCH  60  64
BRANCH  61  66
ATOM     66  O   UNL     1      19.878  60.367  34.337  1.00  0.00    -0.388 OA
ATOM     67  H   UNL     1      19.136  60.962  34.056  1.00  0.00     0.211 HD
ENDBRANCH  61  66
ENDBRANCH  55  56
ENDBRANCH  54  55
ENDBRANCH   3  54
BRANCH   4  68
ATOM     68  O   UNL     1      22.520  61.322  40.003  1.00  0.00    -0.387 OA
ATOM     69  H   UNL     1      22.975  61.547  40.856  1.00  0.00     0.211 HD
ENDBRANCH   4  68
TORSDOF 17
ENDMDL
MODEL 7
REMARK VINA RESULT:   -11.818      7.103     20.703
REMARK INTER + INTRA:         -21.915
REMARK INTER:                 -20.019
REMARK INTRA:                  -1.896
REMARK UNBOUND:                -1.461
REMARK SMILES C[C@H]1CC[C@@]2(OC1)O[C@H]1C[C@@H]3[C@H]4CC=C5C[C@H](O[C@H]6O[C@H](CO)[C@H](O[C@H]7O[C@H](CO[C@H]8OC[C@H](O)[C@H](O)[C@H]8O)[C@H](O)[C@H]7O)[C@@H](O)[C@@H]6O)CC[C@@]5(C)[C@@H]4CC[C@]3(C)[C@@]1(O)[C@@H]2C
REMARK SMILES IDX 26 1 27 2 28 3 40 4 42 5 25 6 24 7 19 8 20 9 46 10 21 11
REMARK SMILES IDX 44 12 18 13 17 14 2 15 3 16 7 17 4 18 6 19 5 20 8 21 59 22
REMARK SMILES IDX 9 23 57 24 10 25 55 26 11 27 54 28 12 29 53 30 13 31 52 32
REMARK SMILES IDX 14 33 50 34 15 35 49 36 16 37 48 38 1 39 60 40 56 41 51 42
REMARK SMILES IDX 58 43 47 45 22 47 23 48 45 50 43 52 29 54 30 55 31 56 32 57
REMARK SMILES IDX 38 58 33 59 36 60 34 61 39 62 37 64 35 66 41 68
REMARK H PARENT 58 44 47 46 23 49 45 51 43 53 39 63 37 65 35 67 41 69
ROOT
ATOM      1  C   UNL     1      25.940  59.374  41.426  1.00  0.00     0.282 C 
ATOM      2  O   UNL     1      24.597  59.770  41.614  1.00  0.00    -0.341 OA
ATOM      3  C   UNL     1      24.313  60.707  40.580  1.00  0.00     0.179 C 
ATOM      4  C   UNL     1      25.563  60.821  39.679  1.00  0.00     0.179 C 
ATOM      5  C   UNL     1      26.633  60.540  40.713  1.00  0.00     0.202 C 
ENDROOT
BRANCH   1   6
ATOM      6  O   UNL     1      26.560  59.043  42.661  1.00  0.00    -0.341 OA
BRANCH   6   7
ATOM      7  C   UNL     1      27.070  57.708  42.628  1.00  0.00     0.184 C 
ATOM      8  C   UNL     1      27.617  58.017  45.301  1.00  0.00     0.282 C 
ATOM      9  O   UNL     1      28.704  57.501  44.559  1.00  0.00    -0.341 OA
ATOM     10  C   UNL     1      26.306  57.238  44.993  1.00  0.00     0.202 C 
ATOM     11  C   UNL     1      28.548  57.648  43.142  1.00  0.00     0.178 C 
ATOM     12  C   UNL     1      26.219  56.783  43.507  1.00  0.00     0.180 C 
BRANCH   8  13
ATOM     13  O   UNL     1      27.868  57.877  46.690  1.00  0.00    -0.346 OA
BRANCH  13  14
ATOM     14  C   UNL     1      27.348  58.944  47.467  1.00  0.00     0.125 C 
ATOM     15  C   UNL     1      35.182  65.351  54.260  1.00  0.00     0.012 C 
ATOM     16  C   UNL     1      34.097  65.016  53.233  1.00  0.00     0.011 C 
ATOM     17  C   UNL     1      36.453  64.598  53.862  1.00  0.00     0.167 C 
ATOM     18  C   UNL     1      33.939  63.499  53.187  1.00  0.00     0.067 C 
ATOM     19  O   UNL     1      36.243  63.183  53.822  1.00  0.00    -0.349 OA
ATOM     20  C   UNL     1      35.282  62.784  52.836  1.00  0.00     0.174 C 
ATOM     21  O   UNL     1      35.009  61.405  53.008  1.00  0.00    -0.343 OA
ATOM     22  C   UNL     1      35.879  62.908  51.385  1.00  0.00     0.081 C 
ATOM     23  C   UNL     1      35.214  60.713  51.784  1.00  0.00     0.155 C 
ATOM     24  C   UNL     1      35.282  61.699  50.603  1.00  0.00     0.104 C 
ATOM     25  C   UNL     1      34.031  59.825  51.482  1.00  0.00     0.040 C 
ATOM     26  C   UNL     1      33.811  61.713  49.961  1.00  0.00     0.003 C 
ATOM     27  C   UNL     1      32.970  60.768  50.887  1.00  0.00     0.004 C 
ATOM     28  C   UNL     1      33.772  61.050  48.545  1.00  0.00     0.010 C 
ATOM     29  C   UNL     1      31.857  59.885  50.195  1.00  0.00     0.000 C 
ATOM     30  C   UNL     1      32.349  60.983  47.936  1.00  0.00     0.005 C 
ATOM     31  C   UNL     1      30.778  59.487  51.224  1.00  0.00     0.031 C 
ATOM     32  C   UNL     1      31.235  60.530  48.944  1.00  0.00     0.003 C 
ATOM     33  C   UNL     1      29.456  59.052  50.638  1.00  0.00    -0.027 C 
ATOM     34  C   UNL     1      30.162  59.561  48.276  1.00  0.00    -0.008 C 
ATOM     35  C   UNL     1      29.139  59.102  49.324  1.00  0.00    -0.065 C 
ATOM     36  C   UNL     1      29.474  60.278  47.051  1.00  0.00     0.014 C 
ATOM     37  C   UNL     1      27.705  58.730  48.949  1.00  0.00     0.063 C 
ATOM     38  C   UNL     1      27.934  60.299  47.053  1.00  0.00     0.033 C 
ATOM     39  C   UNL     1      35.436  66.862  54.321  1.00  0.00     0.010 C 
ATOM     40  C   UNL     1      37.441  62.725  51.427  1.00  0.00     0.016 C 
ATOM     41  C   UNL     1      33.280  63.161  49.750  1.00  0.00     0.015 C 
ATOM     42  C   UNL     1      30.820  58.232  47.767  1.00  0.00     0.016 C 
BRANCH  24  43
ATOM     43  O   UNL     1      36.186  61.214  49.634  1.00  0.00    -0.386 OA
ATOM     44  H   UNL     1      35.766  60.413  49.224  1.00  0.00     0.211 HD
ENDBRANCH  24  43
ENDBRANCH  13  14
ENDBRANCH   8  13
BRANCH  10  45
ATOM     45  O   UNL     1      25.195  58.013  45.373  1.00  0.00    -0.385 OA
ATOM     46  H   UNL     1      24.624  57.459  45.965  1.00  0.00     0.211 HD
ENDBRANCH  10  45
BRANCH  11  47
ATOM     47  C   UNL     1      29.386  58.816  42.604  1.00  0.00     0.191 C 
BRANCH  47  48
ATOM     48  O   UNL     1      29.828  58.541  41.300  1.00  0.00    -0.394 OA
ATOM     49  H   UNL     1      30.804  58.375  41.358  1.00  0.00     0.210 HD
ENDBRANCH  47  48
ENDBRANCH  11  47
BRANCH  12  50
ATOM     50  O   UNL     1      26.664  55.452  43.350  1.00  0.00    -0.387 OA
ATOM     51  H   UNL     1      26.775  55.033  44.242  1.00  0.00     0.211 HD
ENDBRANCH  12  50
ENDBRANCH   6   7
ENDBRANCH   1   6
BRANCH   5  52
ATOM     52  O   UNL     1      26.823  61.674  41.537  1.00  0.00    -0.385 OA
ATOM     53  H   UNL     1      27.790  61.875  41.631  1.00  0.00     0.211 HD
ENDBRANCH   5  52
BRANCH   3  54
ATOM     54  C   UNL     1      23.043  60.273  39.838  1.00  0.00     0.198 C 
BRANCH  54  55
ATOM     55  O   UNL     1      22.844  61.192  38.791  1.00  0.00    -0.347 OA
BRANCH  55  56
ATOM     56  C   UNL     1      22.353  60.592  37.612  1.00  0.00     0.281 C 
ATOM     57  O   UNL     1      20.935  60.785  37.551  1.00  0.00    -0.347 OA
ATOM     58  C   UNL     1      23.066  61.207  36.389  1.00  0.00     0.202 C 
ATOM     59  C   UNL     1      20.506  62.006  36.931  1.00  0.00     0.198 C 
ATOM     60  C   UNL     1      22.871  62.744  36.344  1.00  0.00     0.179 C 
ATOM     61  C   UNL     1      21.542  63.144  37.035  1.00  0.00     0.171 C 
BRANCH  58  62
ATOM     62  O   UNL     1      24.425  60.860  36.312  1.00  0.00    -0.385 OA
ATOM     63  H   UNL     1      24.550  60.333  35.481  1.00  0.00     0.211 HD
ENDBRANCH  58  62
BRANCH  60  64
ATOM     64  O   UNL     1      22.957  63.197  35.015  1.00  0.00    -0.387 OA
ATOM     65  H   UNL     1      23.364  64.103  35.031  1.00  0.00     0.211 HD
ENDBRANCH  60  64
BRANCH  61  66
ATOM     66  O   UNL     1      21.064  64.386  36.583  1.00  0.00    -0.388 OA
ATOM     67  H   UNL     1      20.542  64.224  35.755  1.00  0.00     0.211 HD
ENDBRANCH  61  66
ENDBRANCH  55  56
ENDBRANCH  54  55
ENDBRANCH   3  54
BRANCH   4  68
ATOM     68  O   UNL     1      25.573  59.806  38.701  1.00  0.00    -0.387 OA
ATOM     69  H   UNL     1      25.169  59.001  39.117  1.00  0.00     0.211 HD
ENDBRANCH   4  68
TORSDOF 17
ENDMDL
MODEL 8
REMARK VINA RESULT:   -11.682      6.242     20.169
REMARK INTER + INTRA:         -21.679
REMARK INTER:                 -20.102
REMARK INTRA:                  -1.577
REMARK UNBOUND:                -1.461
REMARK SMILES C[C@H]1CC[C@@]2(OC1)O[C@H]1C[C@@H]3[C@H]4CC=C5C[C@H](O[C@H]6O[C@H](CO)[C@H](O[C@H]7O[C@H](CO[C@H]8OC[C@H](O)[C@H](O)[C@H]8O)[C@H](O)[C@H]7O)[C@@H](O)[C@@H]6O)CC[C@@]5(C)[C@@H]4CC[C@]3(C)[C@@]1(O)[C@@H]2C
REMARK SMILES IDX 26 1 27 2 28 3 40 4 42 5 25 6 24 7 19 8 20 9 46 10 21 11
REMARK SMILES IDX 44 12 18 13 17 14 2 15 3 16 7 17 4 18 6 19 5 20 8 21 59 22
REMARK SMILES IDX 9 23 57 24 10 25 55 26 11 27 54 28 12 29 53 30 13 31 52 32
REMARK SMILES IDX 14 33 50 34 15 35 49 36 16 37 48 38 1 39 60 40 56 41 51 42
REMARK SMILES IDX 58 43 47 45 22 47 23 48 45 50 43 52 29 54 30 55 31 56 32 57
REMARK SMILES IDX 38 58 33 59 36 60 34 61 39 62 37 64 35 66 41 68
REMARK H PARENT 58 44 47 46 23 49 45 51 43 53 39 63 37 65 35 67 41 69
ROOT
ATOM      1  C   UNL     1      25.264  61.195  39.755  1.00  0.00     0.282 C 
ATOM      2  O   UNL     1      24.800  60.274  38.789  1.00  0.00    -0.341 OA
ATOM      3  C   UNL     1      23.742  60.927  38.096  1.00  0.00     0.179 C 
ATOM      4  C   UNL     1      23.616  62.363  38.654  1.00  0.00     0.179 C 
ATOM      5  C   UNL     1      24.078  62.111  40.074  1.00  0.00     0.202 C 
ENDROOT
BRANCH   1   6
ATOM      6  O   UNL     1      25.766  60.530  40.905  1.00  0.00    -0.341 OA
BRANCH   6   7
ATOM      7  C   UNL     1      25.891  59.126  40.663  1.00  0.00     0.184 C 
ATOM      8  C   UNL     1      26.833  58.924  43.235  1.00  0.00     0.282 C 
ATOM      9  O   UNL     1      27.638  58.256  42.285  1.00  0.00    -0.341 OA
ATOM     10  C   UNL     1      25.332  58.550  43.062  1.00  0.00     0.202 C 
ATOM     11  C   UNL     1      27.350  58.627  40.931  1.00  0.00     0.178 C 
ATOM     12  C   UNL     1      24.940  58.336  41.570  1.00  0.00     0.180 C 
BRANCH   8  13
ATOM     13  O   UNL     1      27.209  58.540  44.547  1.00  0.00    -0.346 OA
BRANCH  13  14
ATOM     14  C   UNL     1      28.343  57.690  44.583  1.00  0.00     0.125 C 
ATOM     15  C   UNL     1      36.464  59.442  53.501  1.00  0.00     0.012 C 
ATOM     16  C   UNL     1      35.455  58.752  52.581  1.00  0.00     0.011 C 
ATOM     17  C   UNL     1      35.748  60.601  54.198  1.00  0.00     0.167 C 
ATOM     18  C   UNL     1      34.885  59.801  51.630  1.00  0.00     0.067 C 
ATOM     19  O   UNL     1      35.223  61.544  53.260  1.00  0.00    -0.349 OA
ATOM     20  C   UNL     1      34.222  60.986  52.400  1.00  0.00     0.174 C 
ATOM     21  O   UNL     1      33.910  61.936  51.396  1.00  0.00    -0.343 OA
ATOM     22  C   UNL     1      32.874  60.755  53.180  1.00  0.00     0.081 C 
ATOM     23  C   UNL     1      32.510  62.179  51.374  1.00  0.00     0.155 C 
ATOM     24  C   UNL     1      31.753  61.083  52.148  1.00  0.00     0.104 C 
ATOM     25  C   UNL     1      31.988  62.089  49.961  1.00  0.00     0.040 C 
ATOM     26  C   UNL     1      31.250  60.036  51.040  1.00  0.00     0.003 C 
ATOM     27  C   UNL     1      31.832  60.582  49.691  1.00  0.00     0.004 C 
ATOM     28  C   UNL     1      29.696  60.057  50.862  1.00  0.00     0.010 C 
ATOM     29  C   UNL     1      30.943  60.401  48.398  1.00  0.00     0.000 C 
ATOM     30  C   UNL     1      29.193  59.108  49.746  1.00  0.00     0.005 C 
ATOM     31  C   UNL     1      31.829  60.431  47.135  1.00  0.00     0.031 C 
ATOM     32  C   UNL     1      30.042  59.153  48.427  1.00  0.00     0.003 C 
ATOM     33  C   UNL     1      31.210  59.826  45.897  1.00  0.00    -0.027 C 
ATOM     34  C   UNL     1      29.142  59.068  47.115  1.00  0.00    -0.008 C 
ATOM     35  C   UNL     1      30.021  59.182  45.863  1.00  0.00    -0.065 C 
ATOM     36  C   UNL     1      28.296  57.738  47.126  1.00  0.00     0.014 C 
ATOM     37  C   UNL     1      29.629  58.535  44.535  1.00  0.00     0.063 C 
ATOM     38  C   UNL     1      28.400  56.855  45.868  1.00  0.00     0.033 C 
ATOM     39  C   UNL     1      37.041  58.458  54.525  1.00  0.00     0.010 C 
ATOM     40  C   UNL     1      32.752  61.787  54.361  1.00  0.00     0.016 C 
ATOM     41  C   UNL     1      31.599  58.568  51.425  1.00  0.00     0.015 C 
ATOM     42  C   UNL     1      28.156  60.283  47.010  1.00  0.00     0.016 C 
BRANCH  24  43
ATOM     43  O   UNL     1      30.621  61.645  52.776  1.00  0.00    -0.386 OA
ATOM     44  H   UNL     1      29.980  60.903  52.931  1.00  0.00     0.211 HD
ENDBRANCH  24  43
ENDBRANCH  13  14
ENDBRANCH   8  13
BRANCH  10  45
ATOM     45  O   UNL     1      24.528  59.521  43.685  1.00  0.00    -0.385 OA
ATOM     46  H   UNL     1      23.618  59.460  43.294  1.00  0.00     0.211 HD
ENDBRANCH  10  45
BRANCH  11  47
ATOM     47  C   UNL     1      28.398  59.607  40.383  1.00  0.00     0.191 C 
BRANCH  47  48
ATOM     48  O   UNL     1      28.459  60.757  41.186  1.00  0.00    -0.394 OA
ATOM     49  H   UNL     1      28.556  60.447  42.122  1.00  0.00     0.210 HD
ENDBRANCH  47  48
ENDBRANCH  11  47
BRANCH  12  50
ATOM     50  O   UNL     1      24.987  56.970  41.217  1.00  0.00    -0.387 OA
ATOM     51  H   UNL     1      25.604  56.848  40.449  1.00  0.00     0.211 HD
ENDBRANCH  12  50
ENDBRANCH   6   7
ENDBRANCH   1   6
BRANCH   5  52
ATOM     52  O   UNL     1      23.054  61.474  40.813  1.00  0.00    -0.385 OA
ATOM     53  H   UNL     1      22.168  61.851  40.573  1.00  0.00     0.211 HD
ENDBRANCH   5  52
BRANCH   3  54
ATOM     54  C   UNL     1      24.007  60.862  36.588  1.00  0.00     0.198 C 
BRANCH  54  55
ATOM     55  O   UNL     1      23.094  61.739  35.971  1.00  0.00    -0.347 OA
BRANCH  55  56
ATOM     56  C   UNL     1      21.896  61.105  35.577  1.00  0.00     0.281 C 
ATOM     57  O   UNL     1      20.922  61.276  36.613  1.00  0.00    -0.347 OA
ATOM     58  C   UNL     1      21.417  61.704  34.238  1.00  0.00     0.202 C 
ATOM     59  C   UNL     1      20.140  62.476  36.532  1.00  0.00     0.198 C 
ATOM     60  C   UNL     1      21.215  63.236  34.352  1.00  0.00     0.179 C 
ATOM     61  C   UNL     1      20.863  63.632  35.809  1.00  0.00     0.171 C 
BRANCH  58  62
ATOM     62  O   UNL     1      22.253  61.375  33.157  1.00  0.00    -0.385 OA
ATOM     63  H   UNL     1      22.206  60.392  33.035  1.00  0.00     0.211 HD
ENDBRANCH  58  62
BRANCH  60  64
ATOM     64  O   UNL     1      20.251  63.661  33.420  1.00  0.00    -0.387 OA
ATOM     65  H   UNL     1      20.129  64.640  33.537  1.00  0.00     0.211 HD
ENDBRANCH  60  64
BRANCH  61  66
ATOM     66  O   UNL     1      20.176  64.856  35.874  1.00  0.00    -0.388 OA
ATOM     67  H   UNL     1      19.940  65.118  34.947  1.00  0.00     0.211 HD
ENDBRANCH  61  66
ENDBRANCH  55  56
ENDBRANCH  54  55
ENDBRANCH   3  54
BRANCH   4  68
ATOM     68  O   UNL     1      24.520  63.233  38.011  1.00  0.00    -0.387 OA
ATOM     69  H   UNL     1      24.377  64.135  38.399  1.00  0.00     0.211 HD
ENDBRANCH   4  68
TORSDOF 17
ENDMDL
MODEL 9
REMARK VINA RESULT:   -11.281      6.970     21.127
REMARK INTER + INTRA:         -20.985
REMARK INTER:                 -18.875
REMARK INTRA:                  -2.110
REMARK UNBOUND:                -1.461
REMARK SMILES C[C@H]1CC[C@@]2(OC1)O[C@H]1C[C@@H]3[C@H]4CC=C5C[C@H](O[C@H]6O[C@H](CO)[C@H](O[C@H]7O[C@H](CO[C@H]8OC[C@H](O)[C@H](O)[C@H]8O)[C@H](O)[C@H]7O)[C@@H](O)[C@@H]6O)CC[C@@]5(C)[C@@H]4CC[C@]3(C)[C@@]1(O)[C@@H]2C
REMARK SMILES IDX 26 1 27 2 28 3 40 4 42 5 25 6 24 7 19 8 20 9 46 10 21 11
REMARK SMILES IDX 44 12 18 13 17 14 2 15 3 16 7 17 4 18 6 19 5 20 8 21 59 22
REMARK SMILES IDX 9 23 57 24 10 25 55 26 11 27 54 28 12 29 53 30 13 31 52 32
REMARK SMILES IDX 14 33 50 34 15 35 49 36 16 37 48 38 1 39 60 40 56 41 51 42
REMARK SMILES IDX 58 43 47 45 22 47 23 48 45 50 43 52 29 54 30 55 31 56 32 57
REMARK SMILES IDX 38 58 33 59 36 60 34 61 39 62 37 64 35 66 41 68
REMARK H PARENT 58 44 47 46 23 49 45 51 43 53 39 63 37 65 35 67 41 69
ROOT
ATOM      1  C   UNL     1      25.921  60.371  40.229  1.00  0.00     0.282 C 
ATOM      2  O   UNL     1      25.112  59.550  39.413  1.00  0.00    -0.341 OA
ATOM      3  C   UNL     1      24.065  60.383  38.926  1.00  0.00     0.179 C 
ATOM      4  C   UNL     1      24.314  61.818  39.445  1.00  0.00     0.179 C 
ATOM      5  C   UNL     1      25.007  61.487  40.749  1.00  0.00     0.202 C 
ENDROOT
BRANCH   1   6
ATOM      6  O   UNL     1      26.525  59.626  41.277  1.00  0.00    -0.341 OA
BRANCH   6   7
ATOM      7  C   UNL     1      27.820  60.146  41.585  1.00  0.00     0.184 C 
ATOM      8  C   UNL     1      28.222  57.855  43.045  1.00  0.00     0.282 C 
ATOM      9  O   UNL     1      28.560  59.036  43.744  1.00  0.00    -0.341 OA
ATOM     10  C   UNL     1      28.860  57.841  41.626  1.00  0.00     0.202 C 
ATOM     11  C   UNL     1      28.049  60.228  43.132  1.00  0.00     0.178 C 
ATOM     12  C   UNL     1      28.915  59.258  40.984  1.00  0.00     0.180 C 
BRANCH   8  13
ATOM     13  O   UNL     1      28.720  56.722  43.737  1.00  0.00    -0.346 OA
BRANCH  13  14
ATOM     14  C   UNL     1      30.067  56.864  44.155  1.00  0.00     0.125 C 
ATOM     15  C   UNL     1      35.652  47.042  48.729  1.00  0.00     0.012 C 
ATOM     16  C   UNL     1      35.358  48.259  47.847  1.00  0.00     0.011 C 
ATOM     17  C   UNL     1      34.486  46.063  48.580  1.00  0.00     0.167 C 
ATOM     18  C   UNL     1      34.003  48.828  48.259  1.00  0.00     0.067 C 
ATOM     19  O   UNL     1      33.241  46.653  48.966  1.00  0.00    -0.349 OA
ATOM     20  C   UNL     1      32.866  47.765  48.143  1.00  0.00     0.174 C 
ATOM     21  O   UNL     1      31.733  48.389  48.721  1.00  0.00    -0.343 OA
ATOM     22  C   UNL     1      32.390  47.280  46.723  1.00  0.00     0.081 C 
ATOM     23  C   UNL     1      30.688  48.483  47.762  1.00  0.00     0.155 C 
ATOM     24  C   UNL     1      31.229  48.247  46.339  1.00  0.00     0.104 C 
ATOM     25  C   UNL     1      30.127  49.884  47.738  1.00  0.00     0.040 C 
ATOM     26  C   UNL     1      31.475  49.707  45.719  1.00  0.00     0.003 C 
ATOM     27  C   UNL     1      31.120  50.693  46.884  1.00  0.00     0.004 C 
ATOM     28  C   UNL     1      30.471  50.042  44.568  1.00  0.00     0.010 C 
ATOM     29  C   UNL     1      30.430  52.058  46.487  1.00  0.00     0.000 C 
ATOM     30  C   UNL     1      30.640  51.475  44.003  1.00  0.00     0.005 C 
ATOM     31  C   UNL     1      30.671  53.115  47.584  1.00  0.00     0.031 C 
ATOM     32  C   UNL     1      30.835  52.583  45.097  1.00  0.00     0.003 C 
ATOM     33  C   UNL     1      30.481  54.550  47.152  1.00  0.00    -0.027 C 
ATOM     34  C   UNL     1      30.062  53.932  44.749  1.00  0.00    -0.008 C 
ATOM     35  C   UNL     1      30.238  54.950  45.883  1.00  0.00    -0.065 C 
ATOM     36  C   UNL     1      30.560  54.496  43.363  1.00  0.00     0.014 C 
ATOM     37  C   UNL     1      30.199  56.457  45.634  1.00  0.00     0.063 C 
ATOM     38  C   UNL     1      31.019  55.967  43.354  1.00  0.00     0.033 C 
ATOM     39  C   UNL     1      36.977  46.382  48.334  1.00  0.00     0.010 C 
ATOM     40  C   UNL     1      31.789  45.829  46.823  1.00  0.00     0.016 C 
ATOM     41  C   UNL     1      32.889  49.838  45.081  1.00  0.00     0.015 C 
ATOM     42  C   UNL     1      28.513  53.706  44.665  1.00  0.00     0.016 C 
BRANCH  24  43
ATOM     43  O   UNL     1      30.247  47.593  45.564  1.00  0.00    -0.386 OA
ATOM     44  H   UNL     1      29.933  48.248  44.887  1.00  0.00     0.211 HD
ENDBRANCH  24  43
ENDBRANCH  13  14
ENDBRANCH   8  13
BRANCH  10  45
ATOM     45  O   UNL     1      28.178  56.919  40.810  1.00  0.00    -0.385 OA
ATOM     46  H   UNL     1      28.600  56.935  39.913  1.00  0.00     0.211 HD
ENDBRANCH  10  45
BRANCH  11  47
ATOM     47  C   UNL     1      26.806  60.748  43.867  1.00  0.00     0.191 C 
BRANCH  47  48
ATOM     48  O   UNL     1      25.798  59.772  43.875  1.00  0.00    -0.394 OA
ATOM     49  H   UNL     1      25.686  59.485  44.818  1.00  0.00     0.210 HD
ENDBRANCH  47  48
ENDBRANCH  11  47
BRANCH  12  50
ATOM     50  O   UNL     1      30.173  59.866  41.189  1.00  0.00    -0.387 OA
ATOM     51  H   UNL     1      30.079  60.852  41.122  1.00  0.00     0.211 HD
ENDBRANCH  12  50
ENDBRANCH   6   7
ENDBRANCH   1   6
BRANCH   5  52
ATOM     52  O   UNL     1      24.062  61.044  41.705  1.00  0.00    -0.385 OA
ATOM     53  H   UNL     1      23.139  61.179  41.366  1.00  0.00     0.211 HD
ENDBRANCH   5  52
BRANCH   3  54
ATOM     54  C   UNL     1      23.997  60.272  37.399  1.00  0.00     0.198 C 
BRANCH  54  55
ATOM     55  O   UNL     1      22.752  60.797  37.003  1.00  0.00    -0.347 OA
BRANCH  55  56
ATOM     56  C   UNL     1      22.808  61.493  35.777  1.00  0.00     0.281 C 
ATOM     57  O   UNL     1      21.949  60.840  34.835  1.00  0.00    -0.347 OA
ATOM     58  C   UNL     1      22.396  62.963  36.003  1.00  0.00     0.202 C 
ATOM     59  C   UNL     1      20.581  61.272  34.847  1.00  0.00     0.198 C 
ATOM     60  C   UNL     1      20.978  63.055  36.621  1.00  0.00     0.179 C 
ATOM     61  C   UNL     1      20.125  61.827  36.213  1.00  0.00     0.171 C 
BRANCH  58  62
ATOM     62  O   UNL     1      23.333  63.688  36.758  1.00  0.00    -0.385 OA
ATOM     63  H   UNL     1      23.993  63.038  37.115  1.00  0.00     0.211 HD
ENDBRANCH  58  62
BRANCH  60  64
ATOM     64  O   UNL     1      20.382  64.279  36.267  1.00  0.00    -0.387 OA
ATOM     65  H   UNL     1      21.063  64.818  35.785  1.00  0.00     0.211 HD
ENDBRANCH  60  64
BRANCH  61  66
ATOM     66  O   UNL     1      18.747  62.092  36.282  1.00  0.00    -0.388 OA
ATOM     67  H   UNL     1      18.273  61.221  36.289  1.00  0.00     0.211 HD
ENDBRANCH  61  66
ENDBRANCH  55  56
ENDBRANCH  54  55
ENDBRANCH   3  54
BRANCH   4  68
ATOM     68  O   UNL     1      25.203  62.511  38.599  1.00  0.00    -0.387 OA
ATOM     69  H   UNL     1      24.906  63.458  38.582  1.00  0.00     0.211 HD
ENDBRANCH   4  68
TORSDOF 17
ENDMDL
