REMARK  Name = 
REMARK  6 active torsions:
REMARK  status: ('A' for Active; 'I' for Inactive)
REMARK    1  A    between atoms: C_1  and  C_2
REMARK    2  A    between atoms: C_4  and  C_5
REMARK    3  A    between atoms: C_7  and  N_8
REMARK    4  A    between atoms: N_21  and  C_22
REMARK    5  A    between atoms: C_24  and  C_25
REMARK    6  A    between atoms: C_27  and  C_28
REMARK                            x       y       z     vdW  Elec       q    Type
REMARK                         _______ _______ _______ _____ _____    ______ ____
ROOT
ATOM      1  N   UNL     1      27.269  58.015  43.576  0.00  0.00    +0.000 N 
ATOM      2  C   UNL     1      26.742  57.755  44.812  0.00  0.00    +0.000 C 
ATOM      3  O   UNL     1      25.991  58.565  45.342  0.00  0.00    +0.000 OA
ATOM      4  C   UNL     1      27.071  56.488  45.517  0.00  0.00    +0.000 A 
ATOM      5  C   UNL     1      26.535  56.213  46.774  0.00  0.00    +0.000 A 
ATOM      6  C   UNL     1      26.839  55.026  47.429  0.00  0.00    +0.000 A 
ATOM      7  C   UNL     1      27.697  54.058  46.850  0.00  0.00    +0.000 A 
ATOM      8  C   UNL     1      28.016  52.835  47.507  0.00  0.00    +0.000 A 
ATOM      9  C   UNL     1      27.497  52.502  48.783  0.00  0.00    +0.000 A 
ATOM     10  C   UNL     1      27.818  51.303  49.407  0.00  0.00    +0.000 A 
ATOM     11  C   UNL     1      28.667  50.384  48.790  0.00  0.00    +0.000 A 
ATOM     12  C   UNL     1      29.010  49.099  49.456  0.00  0.00    +0.000 C 
ATOM     13  O   UNL     1      28.540  48.846  50.559  0.00  0.00    +0.000 OA
ATOM     14  N   UNL     1      29.842  48.204  48.842  0.00  0.00    +0.000 N 
ATOM     15  C   UNL     1      30.375  48.472  47.611  0.00  0.00    +0.000 C 
ATOM     16  O   UNL     1      31.118  47.661  47.073  0.00  0.00    +0.000 OA
ATOM     17  C   UNL     1      30.055  49.745  46.915  0.00  0.00    +0.000 A 
ATOM     18  C   UNL     1      30.592  50.023  45.659  0.00  0.00    +0.000 A 
ATOM     19  C   UNL     1      30.293  51.211  45.008  0.00  0.00    +0.000 A 
ATOM     20  C   UNL     1      29.436  52.178  45.590  0.00  0.00    +0.000 A 
ATOM     21  C   UNL     1      29.116  53.401  44.933  0.00  0.00    +0.000 A 
ATOM     22  C   UNL     1      28.248  54.333  45.569  0.00  0.00    +0.000 A 
ATOM     23  C   UNL     1      27.927  55.554  44.909  0.00  0.00    +0.000 A 
ATOM     24  C   UNL     1      28.459  55.844  43.643  0.00  0.00    +0.000 A 
ATOM     25  C   UNL     1      29.310  54.927  43.028  0.00  0.00    +0.000 A 
ATOM     26  C   UNL     1      29.634  53.732  43.657  0.00  0.00    +0.000 A 
ATOM     27  C   UNL     1      28.108  57.121  42.969  0.00  0.00    +0.000 C 
ATOM     28  O   UNL     1      28.571  57.367  41.862  0.00  0.00    +0.000 OA
ATOM     29  C   UNL     1      28.884  51.903  46.871  0.00  0.00    +0.000 A 
ATOM     30  C   UNL     1      29.201  50.678  47.526  0.00  0.00    +0.000 A 
ENDROOT
BRANCH   1  37
ATOM     31  C   UNL     1      28.208  62.796  42.688  0.00  0.00    +0.000 C 
ATOM     32  C   UNL     1      27.374  61.572  42.455  0.00  0.00    +0.000 A 
ATOM     33  C   UNL     1      26.270  61.603  41.586  0.00  0.00    +0.000 A 
ATOM     34  C   UNL     1      25.499  60.447  41.376  0.00  0.00    +0.000 A 
ATOM     35  C   UNL     1      24.318  60.462  40.451  0.00  0.00    +0.000 C 
ATOM     36  C   UNL     1      25.837  59.262  42.041  0.00  0.00    +0.000 A 
ATOM     37  C   UNL     1      26.934  59.227  42.909  0.00  0.00    +0.000 A 
ATOM     38  C   UNL     1      27.700  60.379  43.114  0.00  0.00    +0.000 A 
ENDBRANCH   1  37
BRANCH  14  39
ATOM     39  C   UNL     1      30.161  46.976  49.488  0.00  0.00    +0.000 A 
ATOM     40  C   UNL     1      29.314  45.870  49.350  0.00  0.00    +0.000 A 
ATOM     41  C   UNL     1      29.619  44.663  49.994  0.00  0.00    +0.000 A 
ATOM     42  C   UNL     1      28.716  43.473  49.853  0.00  0.00    +0.000 C 
ATOM     43  C   UNL     1      30.780  44.570  50.778  0.00  0.00    +0.000 A 
ATOM     44  C   UNL     1      31.633  45.678  50.920  0.00  0.00    +0.000 A 
ATOM     45  C   UNL     1      32.873  45.594  51.758  0.00  0.00    +0.000 C 
ATOM     46  C   UNL     1      31.316  46.878  50.271  0.00  0.00    +0.000 A 
ENDBRANCH  14  39
TORSDOF 2
