REMARK  Name = 
REMARK  17 active torsions:
REMARK  status: ('A' for Active; 'I' for Inactive)
REMARK    1  A    between atoms: C_1  and  C_2
REMARK    2  A    between atoms: C_17  and  O_18
REMARK    3  A    between atoms: O_18  and  C_19
REMARK    4  A    between atoms: C_21  and  C_22
REMARK    5  A    between atoms: C_22  and  O_23
REMARK    6  A    between atoms: C_24  and  O_25
REMARK    7  A    between atoms: O_25  and  C_26
REMARK    8  A    between atoms: C_28  and  C_29
REMARK    9  A    between atoms: C_29  and  O_30
REMARK   10  A    between atoms: C_31  and  O_32
REMARK   11  A    between atoms: C_33  and  O_34
REMARK   12  A    between atoms: C_35  and  O_36
REMARK   13  A    between atoms: C_37  and  O_38
REMARK   14  A    between atoms: C_39  and  O_40
REMARK   15  A    between atoms: C_43  and  C_44
REMARK   16  A    between atoms: C_49  and  C_50
REMARK   17  A    between atoms: C_52  and  C_53
REMARK                            x       y       z     vdW  Elec       q    Type
REMARK                         _______ _______ _______ _____ _____    ______ ____
ROOT
ATOM      1  C   UNL     1      30.081  51.973  50.037  0.00  0.00    +0.000 C 
ATOM      2  C   UNL     1      28.684  52.148  50.664  0.00  0.00    +0.000 C 
ATOM      3  C   UNL     1      28.437  53.527  51.266  0.00  0.00    +0.000 C 
ATOM      4  C   UNL     1      28.571  54.563  50.161  0.00  0.00    +0.000 C 
ATOM      5  C   UNL     1      27.717  54.222  48.889  0.00  0.00    +0.000 C 
ATOM      6  O   UNL     1      27.056  52.953  48.889  0.00  0.00    +0.000 OA
ATOM      7  C   UNL     1      27.546  51.870  49.673  0.00  0.00    +0.000 C 
ATOM      8  O   UNL     1      26.695  55.246  48.826  0.00  0.00    +0.000 OA
ATOM      9  C   UNL     1      26.855  55.837  47.559  0.00  0.00    +0.000 C 
ATOM     10  C   UNL     1      26.533  57.318  47.235  0.00  0.00    +0.000 C 
ATOM     11  C   UNL     1      27.205  57.332  45.836  0.00  0.00    +0.000 C 
ATOM     12  C   UNL     1      27.094  58.417  44.737  0.00  0.00    +0.000 C 
ATOM     13  C   UNL     1      27.384  59.885  45.078  0.00  0.00    +0.000 C 
ATOM     14  C   UNL     1      27.130  60.734  43.842  0.00  0.00    +0.000 C 
ATOM     15  C   UNL     1      27.131  60.231  42.572  0.00  0.00    +0.000 C 
ATOM     16  C   UNL     1      26.595  61.094  41.432  0.00  0.00    +0.000 C 
ATOM     17  C   UNL     1      25.997  60.246  40.265  0.00  0.00    +0.000 C 
ATOM     18  C   UNL     1      25.271  59.042  40.877  0.00  0.00    +0.000 C 
ATOM     19  C   UNL     1      26.258  58.080  41.600  0.00  0.00    +0.000 C 
ATOM     20  C   UNL     1      27.508  58.778  42.247  0.00  0.00    +0.000 C 
ATOM     21  C   UNL     1      28.725  58.798  41.264  0.00  0.00    +0.000 C 
ATOM     22  C   UNL     1      28.004  58.033  43.527  0.00  0.00    +0.000 C 
ATOM     23  C   UNL     1      28.261  56.494  43.420  0.00  0.00    +0.000 C 
ATOM     24  C   UNL     1      28.998  56.061  44.694  0.00  0.00    +0.000 C 
ATOM     25  O   UNL     1      30.040  55.430  44.603  0.00  0.00    +0.000 OA
ATOM     26  C   UNL     1      28.603  56.686  46.031  0.00  0.00    +0.000 C 
ATOM     27  C   UNL     1      29.716  57.702  46.428  0.00  0.00    +0.000 C 
ATOM     28  C   UNL     1      28.320  55.787  47.280  0.00  0.00    +0.000 C 
ATOM     29  C   UNL     1      28.598  54.345  47.571  0.00  0.00    +0.000 C 
ATOM     30  C   UNL     1      28.154  53.366  46.451  0.00  0.00    +0.000 C 
ENDROOT
BRANCH  17  31
ATOM     31  O   UNL     1      25.074  61.055  39.553  0.00  0.00    +0.000 OA
BRANCH  31  32
ATOM     32  C   UNL     1      24.037  60.320  38.916  0.00  0.00    +0.000 C 
ATOM     33  O   UNL     1      22.791  60.876  39.310  0.00  0.00    +0.000 OA
ATOM     34  C   UNL     1      21.709  60.172  38.716  0.00  0.00    +0.000 C 
ATOM     35  C   UNL     1      21.726  60.344  37.175  0.00  0.00    +0.000 C 
ATOM     36  C   UNL     1      23.059  59.758  36.663  0.00  0.00    +0.000 C 
ATOM     37  C   UNL     1      24.235  60.452  37.392  0.00  0.00    +0.000 C 
BRANCH  36  38
ATOM     38  O   UNL     1      23.153  59.839  35.260  0.00  0.00    +0.000 OA
ATOM     39  H   UNL     1      23.418  60.760  35.005  0.00  0.00    +0.000 HD
ENDBRANCH  36  38
BRANCH  37  40
ATOM     40  O   UNL     1      25.469  59.909  36.993  0.00  0.00    +0.000 OA
ATOM     41  H   UNL     1      25.629  59.093  37.535  0.00  0.00    +0.000 HD
ENDBRANCH  37  40
BRANCH  34  42
ATOM     42  C   UNL     1      20.390  60.654  39.343  0.00  0.00    +0.000 C 
BRANCH  42  43
ATOM     43  O   UNL     1      20.299  62.054  39.349  0.00  0.00    +0.000 OA
ATOM     44  H   UNL     1      21.218  62.402  39.482  0.00  0.00    +0.000 HD
ENDBRANCH  42  43
ENDBRANCH  34  42
BRANCH  35  45
ATOM     45  O   UNL     1      21.631  61.731  36.867  0.00  0.00    +0.000 OA
BRANCH  45  46
ATOM     46  C   UNL     1      20.671  62.029  35.866  0.00  0.00    +0.000 C 
ATOM     47  O   UNL     1      21.234  61.821  34.589  0.00  0.00    +0.000 OA
ATOM     48  C   UNL     1      20.249  61.878  33.550  0.00  0.00    +0.000 C 
ATOM     49  C   UNL     1      19.111  62.939  33.812  0.00  0.00    +0.000 C 
ATOM     50  C   UNL     1      19.682  64.086  34.669  0.00  0.00    +0.000 C 
ATOM     51  C   UNL     1      20.251  63.517  36.013  0.00  0.00    +0.000 C 
BRANCH  49  52
ATOM     52  O   UNL     1      18.048  62.347  34.515  0.00  0.00    +0.000 OA
ATOM     53  H   UNL     1      17.606  61.715  33.890  0.00  0.00    +0.000 HD
ENDBRANCH  49  52
BRANCH  50  54
ATOM     54  O   UNL     1      20.667  64.779  33.932  0.00  0.00    +0.000 OA
ATOM     55  H   UNL     1      20.944  64.234  33.152  0.00  0.00    +0.000 HD
ENDBRANCH  50  54
BRANCH  51  56
ATOM     56  O   UNL     1      19.336  63.654  37.074  0.00  0.00    +0.000 OA
ATOM     57  H   UNL     1      19.588  64.457  37.597  0.00  0.00    +0.000 HD
ENDBRANCH  51  56
BRANCH  48  58
ATOM     58  C   UNL     1      20.989  62.152  32.229  0.00  0.00    +0.000 C 
BRANCH  58  59
ATOM     59  O   UNL     1      22.173  61.404  32.147  0.00  0.00    +0.000 OA
ATOM     60  H   UNL     1      21.951  60.485  32.449  0.00  0.00    +0.000 HD
ENDBRANCH  58  59
ENDBRANCH  48  58
ENDBRANCH  45  46
ENDBRANCH  35  45
ENDBRANCH  31  32
ENDBRANCH  17  31
TORSDOF 13
