REMARK  Name = 
REMARK  26 active torsions:
REMARK  status: ('A' for Active; 'I' for Inactive)
REMARK    1  A    between atoms: C_1  and  C_2
REMARK    2  A    between atoms: C_17  and  O_18
REMARK    3  A    between atoms: O_18  and  C_19
REMARK    4  A    between atoms: C_21  and  C_22
REMARK    5  A    between atoms: C_22  and  O_23
REMARK    6  A    between atoms: C_24  and  O_25
REMARK    7  A    between atoms: O_25  and  C_26
REMARK    8  A    between atoms: C_28  and  C_29
REMARK    9  A    between atoms: C_30  and  O_31
REMARK   10  A    between atoms: O_31  and  C_32
REMARK   11  A    between atoms: C_34  and  C_35
REMARK   12  A    between atoms: C_36  and  O_37
REMARK   13  A    between atoms: C_38  and  O_39
REMARK   14  A    between atoms: O_39  and  C_40
REMARK   15  A    between atoms: C_42  and  C_43
REMARK   16  A    between atoms: C_44  and  O_45
REMARK   17  A    between atoms: C_46  and  O_47
REMARK   18  A    between atoms: C_48  and  O_49
REMARK   19  A    between atoms: C_50  and  O_51
REMARK   20  A    between atoms: C_52  and  O_53
REMARK   21  A    between atoms: C_54  and  O_55
REMARK   22  A    between atoms: C_56  and  O_57
REMARK   23  A    between atoms: C_58  and  O_59
REMARK   24  A    between atoms: C_62  and  C_63
REMARK   25  A    between atoms: C_67  and  C_68
REMARK   26  A    between atoms: C_70  and  C_71
REMARK                            x       y       z     vdW  Elec       q    Type
REMARK                         _______ _______ _______ _____ _____    ______ ____
ROOT
ATOM      1  C   UNL     1      24.533  61.124  39.182  0.00  0.00    +0.000 C 
ATOM      2  O   UNL     1      23.355  60.318  39.117  0.00  0.00    +0.000 OA
ATOM      3  C   UNL     1      22.322  60.901  38.356  0.00  0.00    +0.000 C 
ATOM      4  C   UNL     1      22.723  61.092  36.858  0.00  0.00    +0.000 C 
ATOM      5  C   UNL     1      24.270  61.139  36.689  0.00  0.00    +0.000 C 
ATOM      6  C   UNL     1      24.860  61.916  37.866  0.00  0.00    +0.000 C 
ENDROOT
BRANCH   5   7
ATOM      7  O   UNL     1      24.857  59.858  36.615  0.00  0.00    +0.000 OA
ATOM      8  H   UNL     1      25.726  59.911  36.139  0.00  0.00    +0.000 HD
ENDBRANCH   5   7
BRANCH   6   9
ATOM      9  O   UNL     1      24.366  63.239  37.849  0.00  0.00    +0.000 OA
ATOM     10  H   UNL     1      23.537  63.297  37.311  0.00  0.00    +0.000 HD
ENDBRANCH   6   9
BRANCH   1  11
ATOM     11  O   UNL     1      25.591  60.213  39.384  0.00  0.00    +0.000 OA
BRANCH  11  28
ATOM     12  C   UNL     1      29.824  60.319  54.193  0.00  0.00    +0.000 C 
ATOM     13  C   UNL     1      30.383  59.930  52.825  0.00  0.00    +0.000 C 
ATOM     14  C   UNL     1      30.253  61.085  51.829  0.00  0.00    +0.000 C 
ATOM     15  C   UNL     1      30.828  60.632  50.492  0.00  0.00    +0.000 C 
ATOM     16  C   UNL     1      30.136  59.330  50.014  0.00  0.00    +0.000 C 
ATOM     17  O   UNL     1      30.234  58.307  51.007  0.00  0.00    +0.000 OA
ATOM     18  C   UNL     1      29.652  58.708  52.239  0.00  0.00    +0.000 C 
ATOM     19  O   UNL     1      28.769  59.554  49.699  0.00  0.00    +0.000 OA
ATOM     20  C   UNL     1      28.440  58.513  48.803  0.00  0.00    +0.000 C 
ATOM     21  C   UNL     1      27.247  58.884  47.887  0.00  0.00    +0.000 C 
ATOM     22  C   UNL     1      27.793  58.632  46.480  0.00  0.00    +0.000 C 
ATOM     23  C   UNL     1      27.057  59.278  45.290  0.00  0.00    +0.000 C 
ATOM     24  C   UNL     1      25.628  58.725  45.179  0.00  0.00    +0.000 C 
ATOM     25  C   UNL     1      24.947  59.158  43.915  0.00  0.00    +0.000 C 
ATOM     26  C   UNL     1      25.600  59.698  42.864  0.00  0.00    +0.000 C 
ATOM     27  C   UNL     1      24.820  60.065  41.635  0.00  0.00    +0.000 C 
ATOM     28  C   UNL     1      25.340  59.271  40.413  0.00  0.00    +0.000 C 
ATOM     29  C   UNL     1      26.651  58.490  40.691  0.00  0.00    +0.000 C 
ATOM     30  C   UNL     1      27.655  59.409  41.383  0.00  0.00    +0.000 C 
ATOM     31  C   UNL     1      27.138  59.873  42.800  0.00  0.00    +0.000 C 
ATOM     32  C   UNL     1      27.453  61.394  42.922  0.00  0.00    +0.000 C 
ATOM     33  C   UNL     1      27.823  59.026  43.953  0.00  0.00    +0.000 C 
ATOM     34  C   UNL     1      29.369  59.294  44.076  0.00  0.00    +0.000 C 
ATOM     35  C   UNL     1      29.993  58.646  45.326  0.00  0.00    +0.000 C 
ATOM     36  C   UNL     1      29.245  59.111  46.595  0.00  0.00    +0.000 C 
ATOM     37  C   UNL     1      29.365  60.679  46.764  0.00  0.00    +0.000 C 
ATOM     38  C   UNL     1      29.649  58.333  47.880  0.00  0.00    +0.000 C 
ATOM     39  C   UNL     1      30.816  58.859  48.702  0.00  0.00    +0.000 C 
ATOM     40  C   UNL     1      31.956  57.852  48.887  0.00  0.00    +0.000 C 
ENDBRANCH  11  28
ENDBRANCH   1  11
BRANCH   3  41
ATOM     41  C   UNL     1      21.070  60.029  38.478  0.00  0.00    +0.000 C 
BRANCH  41  42
ATOM     42  O   UNL     1      20.667  59.568  37.217  0.00  0.00    +0.000 OA
ATOM     43  H   UNL     1      20.681  58.575  37.258  0.00  0.00    +0.000 HD
ENDBRANCH  41  42
ENDBRANCH   3  41
BRANCH   4  44
ATOM     44  O   UNL     1      22.229  62.360  36.472  0.00  0.00    +0.000 OA
BRANCH  44  45
ATOM     45  C   UNL     1      21.253  62.350  35.454  0.00  0.00    +0.000 C 
ATOM     46  O   UNL     1      21.796  63.108  34.386  0.00  0.00    +0.000 OA
ATOM     47  C   UNL     1      20.903  63.326  33.297  0.00  0.00    +0.000 C 
ATOM     48  C   UNL     1      20.970  62.183  32.279  0.00  0.00    +0.000 C 
ATOM     49  C   UNL     1      19.440  63.664  33.709  0.00  0.00    +0.000 C 
ATOM     50  C   UNL     1      19.431  64.119  35.162  0.00  0.00    +0.000 C 
ATOM     51  C   UNL     1      19.978  63.005  36.063  0.00  0.00    +0.000 C 
BRANCH  50  52
ATOM     52  O   UNL     1      18.161  64.549  35.590  0.00  0.00    +0.000 OA
ATOM     53  H   UNL     1      18.089  64.365  36.562  0.00  0.00    +0.000 HD
ENDBRANCH  50  52
BRANCH  51  54
ATOM     54  O   UNL     1      19.006  62.028  36.357  0.00  0.00    +0.000 OA
ATOM     55  H   UNL     1      18.113  62.461  36.351  0.00  0.00    +0.000 HD
ENDBRANCH  51  54
BRANCH  49  56
ATOM     56  O   UNL     1      18.975  64.746  32.924  0.00  0.00    +0.000 OA
BRANCH  56  57
ATOM     57  C   UNL     1      17.975  64.402  31.994  0.00  0.00    +0.000 C 
ATOM     58  O   UNL     1      18.353  64.878  30.720  0.00  0.00    +0.000 OA
ATOM     59  C   UNL     1      17.431  64.490  29.696  0.00  0.00    +0.000 C 
ATOM     60  C   UNL     1      17.984  63.303  28.912  0.00  0.00    +0.000 C 
ATOM     61  C   UNL     1      15.966  64.235  30.198  0.00  0.00    +0.000 C 
ATOM     62  C   UNL     1      15.680  65.284  31.278  0.00  0.00    +0.000 C 
ATOM     63  C   UNL     1      16.647  65.056  32.466  0.00  0.00    +0.000 C 
BRANCH  61  64
ATOM     64  O   UNL     1      15.051  64.304  29.132  0.00  0.00    +0.000 OA
ATOM     65  H   UNL     1      14.887  65.264  28.936  0.00  0.00    +0.000 HD
ENDBRANCH  61  64
BRANCH  63  66
ATOM     66  O   UNL     1      16.074  64.270  33.483  0.00  0.00    +0.000 OA
ATOM     67  H   UNL     1      16.614  63.442  33.569  0.00  0.00    +0.000 HD
ENDBRANCH  63  66
BRANCH  62  68
ATOM     68  O   UNL     1      14.321  65.250  31.701  0.00  0.00    +0.000 OA
BRANCH  68  69
ATOM     69  C   UNL     1      13.645  66.484  31.483  0.00  0.00    +0.000 C 
ATOM     70  O   UNL     1      13.947  66.954  30.173  0.00  0.00    +0.000 OA
ATOM     71  C   UNL     1      13.285  68.182  29.865  0.00  0.00    +0.000 C 
ATOM     72  C   UNL     1      11.785  67.975  29.575  0.00  0.00    +0.000 C 
ATOM     73  C   UNL     1      13.637  69.312  30.887  0.00  0.00    +0.000 C 
ATOM     74  C   UNL     1      13.444  68.872  32.349  0.00  0.00    +0.000 C 
ATOM     75  C   UNL     1      14.124  67.492  32.555  0.00  0.00    +0.000 C 
BRANCH  73  76
ATOM     76  O   UNL     1      14.971  69.734  30.702  0.00  0.00    +0.000 OA
ATOM     77  H   UNL     1      15.584  69.023  31.018  0.00  0.00    +0.000 HD
ENDBRANCH  73  76
BRANCH  74  78
ATOM     78  O   UNL     1      12.081  68.901  32.711  0.00  0.00    +0.000 OA
ATOM     79  H   UNL     1      11.924  69.536  33.446  0.00  0.00    +0.000 HD
ENDBRANCH  74  78
BRANCH  75  80
ATOM     80  O   UNL     1      13.929  67.017  33.862  0.00  0.00    +0.000 OA
ATOM     81  H   UNL     1      14.561  66.269  34.016  0.00  0.00    +0.000 HD
ENDBRANCH  75  80
ENDBRANCH  68  69
ENDBRANCH  62  68
ENDBRANCH  56  57
ENDBRANCH  49  56
ENDBRANCH  44  45
ENDBRANCH   4  44
TORSDOF 19
