REMARK  Name = 
REMARK  10 active torsions:
REMARK  status: ('A' for Active; 'I' for Inactive)
REMARK    1  A    between atoms: C_1  and  C_2
REMARK    2  A    between atoms: C_7  and  O_8
REMARK    3  A    between atoms: C_15  and  C_16
REMARK    4  A    between atoms: C_15  and  C_17
REMARK    5  A    between atoms: C_24  and  C_25
REMARK    6  A    between atoms: C_25  and  C_26
REMARK    7  A    between atoms: C_26  and  C_27
REMARK    8  A    between atoms: C_32  and  C_33
REMARK    9  A    between atoms: C_38  and  C_39
REMARK   10  A    between atoms: C_39  and  N_40
REMARK                            x       y       z     vdW  Elec       q    Type
REMARK                         _______ _______ _______ _____ _____    ______ ____
ROOT
ATOM      1  C   UNL     1      25.928  51.280  52.785  0.00  0.00    +0.000 C 
ATOM      2  C   UNL     1      26.856  52.023  51.875  0.00  0.00    +0.000 A 
ATOM      3  C   UNL     1      28.236  51.971  52.069  0.00  0.00    +0.000 A 
ATOM      4  C   UNL     1      29.074  52.690  51.218  0.00  0.00    +0.000 A 
ATOM      5  O   UNL     1      30.271  52.628  51.420  0.00  0.00    +0.000 OA
ATOM      6  C   UNL     1      28.518  53.471  50.169  0.00  0.00    +0.000 A 
ATOM      7  C   UNL     1      29.273  54.273  49.256  0.00  0.00    +0.000 A 
ATOM      8  C   UNL     1      28.604  55.043  48.271  0.00  0.00    +0.000 A 
ATOM      9  C   UNL     1      27.202  55.026  48.202  0.00  0.00    +0.000 A 
ATOM     10  C   UNL     1      26.465  54.219  49.065  0.00  0.00    +0.000 A 
ATOM     11  C   UNL     1      27.102  53.456  50.046  0.00  0.00    +0.000 A 
ATOM     12  O   UNL     1      26.351  52.747  50.884  0.00  0.00    +0.000 OA
ATOM     13  O   UNL     1      26.555  55.840  47.336  0.00  0.00    +0.000 OA
ATOM     14  C   UNL     1      27.057  57.095  47.029  0.00  0.00    +0.000 C 
ATOM     15  C   UNL     1      27.041  57.968  48.308  0.00  0.00    +0.000 C 
ATOM     16  C   UNL     1      26.128  57.758  45.993  0.00  0.00    +0.000 C 
ATOM     17  C   UNL     1      28.512  56.961  46.487  0.00  0.00    +0.000 C 
ATOM     18  O   UNL     1      28.509  56.640  45.132  0.00  0.00    +0.000 OA
ATOM     19  C   UNL     1      29.226  57.331  44.195  0.00  0.00    +0.000 C 
ATOM     20  O   UNL     1      29.606  58.467  44.432  0.00  0.00    +0.000 OA
ATOM     21  C   UNL     1      29.839  56.550  43.050  0.00  0.00    +0.000 C 
ATOM     22  O   UNL     1      30.781  57.339  42.344  0.00  0.00    +0.000 OA
ATOM     23  C   UNL     1      29.661  56.944  41.603  0.00  0.00    +0.000 C 
ATOM     24  C   UNL     1      30.552  55.206  43.416  0.00  0.00    +0.000 C 
ATOM     25  C   UNL     1      29.578  54.270  44.085  0.00  0.00    +0.000 C 
ATOM     26  C   UNL     1      29.476  54.195  45.427  0.00  0.00    +0.000 C 
ATOM     27  C   UNL     1      30.329  55.033  46.388  0.00  0.00    +0.000 C 
ATOM     28  C   UNL     1      31.435  55.888  45.706  0.00  0.00    +0.000 C 
ATOM     29  C   UNL     1      31.808  55.347  44.320  0.00  0.00    +0.000 C 
ATOM     30  C   UNL     1      29.405  55.927  47.313  0.00  0.00    +0.000 C 
ENDROOT
BRANCH   7  31
ATOM     31  O   UNL     1      30.624  54.378  49.306  0.00  0.00    +0.000 OA
ATOM     32  H   UNL     1      31.276  53.672  49.292  0.00  0.00    +0.000 HD
ENDBRANCH   7  31
BRANCH  23  33
ATOM     33  C   UNL     1      28.817  58.153  41.105  0.00  0.00    +0.000 C 
BRANCH  33  34
ATOM     34  C   UNL     1      27.489  57.882  40.354  0.00  0.00    +0.000 C 
BRANCH  34  35
ATOM     35  C   UNL     1      26.359  58.812  40.748  0.00  0.00    +0.000 A 
ATOM     36  C   UNL     1      26.257  59.300  42.059  0.00  0.00    +0.000 A 
ATOM     37  C   UNL     1      25.201  60.150  42.401  0.00  0.00    +0.000 A 
ATOM     38  N   UNL     1      25.097  60.679  43.709  0.00  0.00    +0.000 N 
ATOM     39  N   UNL     1      24.261  60.462  41.472  0.00  0.00    +0.000 NA
ATOM     40  C   UNL     1      24.298  59.991  40.194  0.00  0.00    +0.000 A 
ATOM     41  C   UNL     1      25.377  59.165  39.811  0.00  0.00    +0.000 A 
ATOM     42  H   UNL     1      25.800  60.455  44.428  0.00  0.00    +0.000 HD
ATOM     43  H   UNL     1      24.316  61.305  43.954  0.00  0.00    +0.000 HD
BRANCH  40  44
ATOM     44  C   UNL     1      23.151  60.308  39.283  0.00  0.00    +0.000 A 
ATOM     45  C   UNL     1      21.846  60.401  39.810  0.00  0.00    +0.000 A 
ATOM     46  C   UNL     1      20.756  60.616  38.958  0.00  0.00    +0.000 A 
ATOM     47  N   UNL     1      19.444  60.706  39.479  0.00  0.00    +0.000 N 
ATOM     48  N   UNL     1      20.956  60.719  37.619  0.00  0.00    +0.000 NA
ATOM     49  C   UNL     1      22.196  60.650  37.069  0.00  0.00    +0.000 A 
ATOM     50  C   UNL     1      23.313  60.456  37.892  0.00  0.00    +0.000 A 
ATOM     51  H   UNL     1      19.270  60.624  40.492  0.00  0.00    +0.000 HD
ATOM     52  H   UNL     1      18.644  60.857  38.847  0.00  0.00    +0.000 HD
BRANCH  49  53
ATOM     53  C   UNL     1      22.350  60.719  35.577  0.00  0.00    +0.000 C 
BRANCH  53  54
ATOM     54  N   UNL     1      21.449  61.724  35.052  0.00  0.00    +0.000 N 
ATOM     55  C   UNL     1      21.611  63.007  35.146  0.00  0.00    +0.000 C 
ATOM     56  C   UNL     1      20.476  63.622  34.473  0.00  0.00    +0.000 C 
ATOM     57  C   UNL     1      19.869  64.737  34.110  0.00  0.00    +0.000 C 
ATOM     58  C   UNL     1      18.701  64.332  33.416  0.00  0.00    +0.000 C 
ATOM     59  N   UNL     1      18.572  63.044  33.344  0.00  0.00    +0.000 NA
ATOM     60  C   UNL     1      19.703  62.575  34.015  0.00  0.00    +0.000 C 
ATOM     61  C   UNL     1      20.247  61.422  34.339  0.00  0.00    +0.000 C 
ENDBRANCH  53  54
ENDBRANCH  49  53
ENDBRANCH  40  44
ENDBRANCH  34  35
ENDBRANCH  33  34
ENDBRANCH  23  33
TORSDOF 7
