MODEL 1
REMARK VINA RESULT:   -14.162      0.000      0.000
REMARK INTER + INTRA:         -21.166
REMARK INTER:                 -19.543
REMARK INTRA:                  -1.624
REMARK UNBOUND:                -1.624
REMARK SMILES C[C@@H]1O[C@@H](O[C@H]2CC[C@@H](O[C@@]3(C)CC(=O)[C@]4(O)C5=C(C=C[C@]4(O)C3)C(=O)c3c(ccc([C@@H]4C[C@H]6O[C@H]7CC(=O)[C@@H](C)O[C@@H]7O[C@@H]6[C@H](C)O4)c3O)C5=O)O[C@@H]2C)C=CC1=O
REMARK SMILES IDX 6 1 7 2 8 3 9 4 53 5 54 6 55 7 5 8 4 9 2 10 3 11 58 12 57 13
REMARK SMILES IDX 59 14 56 15 1 16 10 17 11 18 13 19 24 20 14 21 22 22 15 23
REMARK SMILES IDX 16 24 21 25 18 26 20 27 19 28 51 29 25 30 28 31 52 32 26 33
REMARK SMILES IDX 27 34 29 35 49 36 30 37 31 38 12 39 23 40 17 42 50 44 32 46
REMARK SMILES IDX 33 47 48 48 34 49 46 50 35 51 45 52 36 53 44 54 37 55 43 56
REMARK SMILES IDX 38 57 42 58 39 59 40 60 47 61 41 62
REMARK H PARENT 23 41 17 43 50 45
ROOT
ATOM      1  C   UNL     1      28.700  59.290  42.515  1.00  0.00     0.150 C 
ATOM      2  C   UNL     1      28.801  60.806  42.376  1.00  0.00     0.040 C 
ATOM      3  C   UNL     1      27.449  61.390  41.917  1.00  0.00     0.065 C 
ATOM      4  C   UNL     1      26.660  60.379  41.051  1.00  0.00     0.251 C 
ATOM      5  O   UNL     1      27.548  59.592  40.289  1.00  0.00    -0.347 OA
ATOM      6  C   UNL     1      28.351  58.726  41.095  1.00  0.00     0.147 C 
ATOM      7  C   UNL     1      27.729  57.332  41.170  1.00  0.00     0.041 C 
ENDROOT
BRANCH   1   8
ATOM      8  O   UNL     1      29.967  58.782  42.907  1.00  0.00    -0.343 OA
BRANCH   8   9
ATOM      9  C   UNL     1      30.011  58.240  44.214  1.00  0.00     0.275 C 
ATOM     10  C   UNL     1      30.007  55.965  43.630  1.00  0.00     0.189 C 
ATOM     11  O   UNL     1      30.756  57.017  44.211  1.00  0.00    -0.338 OA
ATOM     12  C   UNL     1      28.798  55.696  44.489  1.00  0.00     0.184 C 
ATOM     13  C   UNL     1      28.031  56.872  44.904  1.00  0.00     0.051 C 
ATOM     14  O   UNL     1      28.449  54.570  44.809  1.00  0.00    -0.292 OA
ATOM     15  C   UNL     1      28.582  58.079  44.736  1.00  0.00     0.038 C 
ATOM     16  C   UNL     1      30.886  54.727  43.450  1.00  0.00     0.048 C 
ENDBRANCH   8   9
ENDBRANCH   1   8
BRANCH   4  17
ATOM     17  O   UNL     1      25.818  61.097  40.161  1.00  0.00    -0.346 OA
BRANCH  17  18
ATOM     18  C   UNL     1      24.424  60.785  40.191  1.00  0.00     0.079 C 
ATOM     19  C   UNL     1      23.674  62.161  40.150  1.00  0.00     0.114 C 
ATOM     20  C   UNL     1      23.964  59.895  38.982  1.00  0.00     0.079 C 
ATOM     21  C   UNL     1      22.704  62.240  39.005  1.00  0.00     0.175 C 
ATOM     22  C   UNL     1      24.030  60.606  37.591  1.00  0.00     0.126 C 
ATOM     23  O   UNL     1      21.515  62.425  39.226  1.00  0.00    -0.296 OA
ATOM     24  C   UNL     1      23.244  62.005  37.586  1.00  0.00     0.185 C 
ATOM     25  C   UNL     1      23.488  59.599  36.593  1.00  0.00     0.012 C 
ATOM     26  C   UNL     1      22.094  62.127  36.557  1.00  0.00     0.054 C 
ATOM     27  C   UNL     1      22.460  59.819  35.785  1.00  0.00     0.011 C 
ATOM     28  C   UNL     1      21.737  61.101  35.747  1.00  0.00     0.033 C 
ATOM     29  C   UNL     1      21.354  63.430  36.435  1.00  0.00     0.194 C 
ATOM     30  C   UNL     1      20.611  61.237  34.776  1.00  0.00     0.198 C 
ATOM     31  C   UNL     1      20.248  63.596  35.458  1.00  0.00     0.037 A 
ATOM     32  O   UNL     1      21.663  64.375  37.147  1.00  0.00    -0.289 OA
ATOM     33  O   UNL     1      20.311  60.279  34.075  1.00  0.00    -0.288 OA
ATOM     34  C   UNL     1      19.860  62.517  34.647  1.00  0.00     0.076 A 
ATOM     35  C   UNL     1      19.585  64.826  35.341  1.00  0.00     0.013 A 
ATOM     36  C   UNL     1      18.785  62.670  33.735  1.00  0.00     0.133 A 
ATOM     37  C   UNL     1      18.542  64.988  34.435  1.00  0.00     0.011 A 
ATOM     38  C   UNL     1      18.114  63.921  33.630  1.00  0.00     0.023 A 
ATOM     39  C   UNL     1      24.050  60.079  41.520  1.00  0.00     0.043 C 
BRANCH  22  40
ATOM     40  O   UNL     1      25.382  60.858  37.274  1.00  0.00    -0.382 OA
ATOM     41  H   UNL     1      25.433  61.651  36.679  1.00  0.00     0.212 HD
ENDBRANCH  22  40
BRANCH  24  42
ATOM     42  O   UNL     1      24.186  63.013  37.261  1.00  0.00    -0.374 OA
ATOM     43  H   UNL     1      24.139  63.235  36.295  1.00  0.00     0.212 HD
ENDBRANCH  24  42
BRANCH  36  44
ATOM     44  O   UNL     1      18.423  61.612  32.969  1.00  0.00    -0.507 OA
ATOM     45  H   UNL     1      18.955  61.229  32.262  1.00  0.00     0.293 HD
ENDBRANCH  36  44
BRANCH  38  46
ATOM     46  C   UNL     1      16.942  64.148  32.689  1.00  0.00     0.155 C 
ATOM     47  C   UNL     1      17.463  64.404  31.251  1.00  0.00     0.072 C 
ATOM     48  O   UNL     1      16.115  65.190  33.181  1.00  0.00    -0.368 OA
ATOM     49  C   UNL     1      16.363  64.924  30.307  1.00  0.00     0.153 C 
ATOM     50  C   UNL     1      14.995  65.503  32.343  1.00  0.00     0.147 C 
ATOM     51  O   UNL     1      16.402  64.215  29.087  1.00  0.00    -0.366 OA
ATOM     52  C   UNL     1      14.982  64.778  30.956  1.00  0.00     0.179 C 
ATOM     53  C   UNL     1      15.403  64.713  28.219  1.00  0.00     0.182 C 
ATOM     54  O   UNL     1      13.986  65.329  30.113  1.00  0.00    -0.341 OA
ATOM     55  C   UNL     1      15.380  63.850  26.963  1.00  0.00     0.116 C 
ATOM     56  C   UNL     1      13.991  64.690  28.848  1.00  0.00     0.280 C 
ATOM     57  C   UNL     1      14.148  64.103  26.147  1.00  0.00     0.164 C 
ATOM     58  O   UNL     1      13.131  65.437  28.002  1.00  0.00    -0.339 OA
ATOM     59  O   UNL     1      14.068  63.595  25.038  1.00  0.00    -0.297 OA
ATOM     60  C   UNL     1      12.973  64.910  26.685  1.00  0.00     0.185 C 
ATOM     61  C   UNL     1      14.955  67.032  32.200  1.00  0.00     0.041 C 
ATOM     62  C   UNL     1      11.677  64.099  26.630  1.00  0.00     0.047 C 
ENDBRANCH  38  46
ENDBRANCH  17  18
ENDBRANCH   4  17
TORSDOF 8
ENDMDL
MODEL 2
REMARK VINA RESULT:   -14.097      1.977      3.038
REMARK INTER + INTRA:         -21.078
REMARK INTER:                 -19.510
REMARK INTRA:                  -1.568
REMARK UNBOUND:                -1.624
REMARK SMILES C[C@@H]1O[C@@H](O[C@H]2CC[C@@H](O[C@@]3(C)CC(=O)[C@]4(O)C5=C(C=C[C@]4(O)C3)C(=O)c3c(ccc([C@@H]4C[C@H]6O[C@H]7CC(=O)[C@@H](C)O[C@@H]7O[C@@H]6[C@H](C)O4)c3O)C5=O)O[C@@H]2C)C=CC1=O
REMARK SMILES IDX 6 1 7 2 8 3 9 4 53 5 54 6 55 7 5 8 4 9 2 10 3 11 58 12 57 13
REMARK SMILES IDX 59 14 56 15 1 16 10 17 11 18 13 19 24 20 14 21 22 22 15 23
REMARK SMILES IDX 16 24 21 25 18 26 20 27 19 28 51 29 25 30 28 31 52 32 26 33
REMARK SMILES IDX 27 34 29 35 49 36 30 37 31 38 12 39 23 40 17 42 50 44 32 46
REMARK SMILES IDX 33 47 48 48 34 49 46 50 35 51 45 52 36 53 44 54 37 55 43 56
REMARK SMILES IDX 38 57 42 58 39 59 40 60 47 61 41 62
REMARK H PARENT 23 41 17 43 50 45
ROOT
ATOM      1  C   UNL     1      27.937  58.065  44.728  1.00  0.00     0.150 C 
ATOM      2  C   UNL     1      28.833  57.761  43.530  1.00  0.00     0.040 C 
ATOM      3  C   UNL     1      28.619  58.814  42.424  1.00  0.00     0.065 C 
ATOM      4  C   UNL     1      27.178  59.378  42.449  1.00  0.00     0.251 C 
ATOM      5  O   UNL     1      26.271  58.378  42.857  1.00  0.00    -0.347 OA
ATOM      6  C   UNL     1      26.457  57.985  44.219  1.00  0.00     0.147 C 
ATOM      7  C   UNL     1      25.496  58.743  45.134  1.00  0.00     0.041 C 
ENDROOT
BRANCH   1   8
ATOM      8  O   UNL     1      28.134  57.060  45.712  1.00  0.00    -0.343 OA
BRANCH   8   9
ATOM      9  C   UNL     1      27.359  55.890  45.528  1.00  0.00     0.275 C 
ATOM     10  C   UNL     1      27.536  55.029  47.705  1.00  0.00     0.189 C 
ATOM     11  O   UNL     1      26.659  55.572  46.736  1.00  0.00    -0.338 OA
ATOM     12  C   UNL     1      28.071  53.714  47.194  1.00  0.00     0.184 C 
ATOM     13  C   UNL     1      28.563  53.715  45.816  1.00  0.00     0.051 C 
ATOM     14  O   UNL     1      28.121  52.707  47.882  1.00  0.00    -0.292 OA
ATOM     15  C   UNL     1      28.267  54.761  45.037  1.00  0.00     0.038 C 
ATOM     16  C   UNL     1      26.818  54.887  49.048  1.00  0.00     0.048 C 
ENDBRANCH   8   9
ENDBRANCH   1   8
BRANCH   4  17
ATOM     17  O   UNL     1      26.827  59.797  41.138  1.00  0.00    -0.346 OA
BRANCH  17  18
ATOM     18  C   UNL     1      26.025  60.974  41.025  1.00  0.00     0.079 C 
ATOM     19  C   UNL     1      26.319  61.559  39.600  1.00  0.00     0.114 C 
ATOM     20  C   UNL     1      24.488  60.691  41.175  1.00  0.00     0.079 C 
ATOM     21  C   UNL     1      25.064  61.725  38.790  1.00  0.00     0.175 C 
ATOM     22  C   UNL     1      23.866  59.853  40.010  1.00  0.00     0.126 C 
ATOM     23  O   UNL     1      24.745  62.834  38.382  1.00  0.00    -0.296 OA
ATOM     24  C   UNL     1      24.180  60.489  38.570  1.00  0.00     0.185 C 
ATOM     25  C   UNL     1      22.384  59.757  40.324  1.00  0.00     0.012 C 
ATOM     26  C   UNL     1      22.944  60.868  37.719  1.00  0.00     0.054 C 
ATOM     27  C   UNL     1      21.416  60.157  39.513  1.00  0.00     0.011 C 
ATOM     28  C   UNL     1      21.678  60.723  38.178  1.00  0.00     0.033 C 
ATOM     29  C   UNL     1      23.148  61.401  36.328  1.00  0.00     0.194 C 
ATOM     30  C   UNL     1      20.502  61.115  37.345  1.00  0.00     0.198 C 
ATOM     31  C   UNL     1      21.993  61.772  35.472  1.00  0.00     0.037 A 
ATOM     32  O   UNL     1      24.280  61.531  35.885  1.00  0.00    -0.289 OA
ATOM     33  O   UNL     1      19.376  60.983  37.806  1.00  0.00    -0.288 OA
ATOM     34  C   UNL     1      20.684  61.653  35.968  1.00  0.00     0.076 A 
ATOM     35  C   UNL     1      22.200  62.244  34.167  1.00  0.00     0.013 A 
ATOM     36  C   UNL     1      19.584  62.035  35.158  1.00  0.00     0.133 A 
ATOM     37  C   UNL     1      21.124  62.603  33.362  1.00  0.00     0.011 A 
ATOM     38  C   UNL     1      19.808  62.521  33.839  1.00  0.00     0.023 A 
ATOM     39  C   UNL     1      26.457  62.033  42.073  1.00  0.00     0.043 C 
BRANCH  22  40
ATOM     40  O   UNL     1      24.410  58.552  40.047  1.00  0.00    -0.382 OA
ATOM     41  H   UNL     1      25.399  58.615  40.108  1.00  0.00     0.212 HD
ENDBRANCH  22  40
BRANCH  24  42
ATOM     42  O   UNL     1      24.897  59.514  37.831  1.00  0.00    -0.374 OA
ATOM     43  H   UNL     1      24.392  59.254  37.018  1.00  0.00     0.212 HD
ENDBRANCH  24  42
BRANCH  36  44
ATOM     44  O   UNL     1      18.332  61.920  35.662  1.00  0.00    -0.507 OA
ATOM     45  H   UNL     1      17.548  61.675  35.156  1.00  0.00     0.293 HD
ENDBRANCH  36  44
BRANCH  38  46
ATOM     46  C   UNL     1      18.677  62.967  32.926  1.00  0.00     0.155 C 
ATOM     47  C   UNL     1      19.261  63.585  31.628  1.00  0.00     0.072 C 
ATOM     48  O   UNL     1      17.804  63.841  33.621  1.00  0.00    -0.368 OA
ATOM     49  C   UNL     1      18.195  64.315  30.789  1.00  0.00     0.153 C 
ATOM     50  C   UNL     1      16.719  64.346  32.832  1.00  0.00     0.147 C 
ATOM     51  O   UNL     1      18.309  63.940  29.434  1.00  0.00    -0.366 OA
ATOM     52  C   UNL     1      16.789  63.996  31.308  1.00  0.00     0.179 C 
ATOM     53  C   UNL     1      17.341  64.631  28.669  1.00  0.00     0.182 C 
ATOM     54  O   UNL     1      15.822  64.733  30.581  1.00  0.00    -0.341 OA
ATOM     55  C   UNL     1      17.399  64.115  27.236  1.00  0.00     0.116 C 
ATOM     56  C   UNL     1      15.902  64.435  29.197  1.00  0.00     0.280 C 
ATOM     57  C   UNL     1      16.202  64.554  26.448  1.00  0.00     0.164 C 
ATOM     58  O   UNL     1      15.066  65.364  28.524  1.00  0.00    -0.339 OA
ATOM     59  O   UNL     1      16.187  64.344  25.244  1.00  0.00    -0.297 OA
ATOM     60  C   UNL     1      14.984  65.187  27.110  1.00  0.00     0.185 C 
ATOM     61  C   UNL     1      16.651  65.861  33.078  1.00  0.00     0.041 C 
ATOM     62  C   UNL     1      13.711  64.403  26.785  1.00  0.00     0.047 C 
ENDBRANCH  38  46
ENDBRANCH  17  18
ENDBRANCH   4  17
TORSDOF 8
ENDMDL
MODEL 3
REMARK VINA RESULT:   -13.850      1.928     16.619
REMARK INTER + INTRA:         -20.736
REMARK INTER:                 -19.347
REMARK INTRA:                  -1.389
REMARK UNBOUND:                -1.624
REMARK SMILES C[C@@H]1O[C@@H](O[C@H]2CC[C@@H](O[C@@]3(C)CC(=O)[C@]4(O)C5=C(C=C[C@]4(O)C3)C(=O)c3c(ccc([C@@H]4C[C@H]6O[C@H]7CC(=O)[C@@H](C)O[C@@H]7O[C@@H]6[C@H](C)O4)c3O)C5=O)O[C@@H]2C)C=CC1=O
REMARK SMILES IDX 6 1 7 2 8 3 9 4 53 5 54 6 55 7 5 8 4 9 2 10 3 11 58 12 57 13
REMARK SMILES IDX 59 14 56 15 1 16 10 17 11 18 13 19 24 20 14 21 22 22 15 23
REMARK SMILES IDX 16 24 21 25 18 26 20 27 19 28 51 29 25 30 28 31 52 32 26 33
REMARK SMILES IDX 27 34 29 35 49 36 30 37 31 38 12 39 23 40 17 42 50 44 32 46
REMARK SMILES IDX 33 47 48 48 34 49 46 50 35 51 45 52 36 53 44 54 37 55 43 56
REMARK SMILES IDX 38 57 42 58 39 59 40 60 47 61 41 62
REMARK H PARENT 23 41 17 43 50 45
ROOT
ATOM      1  C   UNL     1      16.061  65.090  30.118  1.00  0.00     0.150 C 
ATOM      2  C   UNL     1      15.308  64.898  31.432  1.00  0.00     0.040 C 
ATOM      3  C   UNL     1      16.306  64.762  32.601  1.00  0.00     0.065 C 
ATOM      4  C   UNL     1      17.641  64.133  32.137  1.00  0.00     0.251 C 
ATOM      5  O   UNL     1      17.407  63.198  31.108  1.00  0.00    -0.347 OA
ATOM      6  C   UNL     1      16.934  63.808  29.904  1.00  0.00     0.147 C 
ATOM      7  C   UNL     1      18.092  64.059  28.939  1.00  0.00     0.041 C 
ENDROOT
BRANCH   1   8
ATOM      8  O   UNL     1      15.116  65.178  29.060  1.00  0.00    -0.343 OA
BRANCH   8   9
ATOM      9  C   UNL     1      13.898  64.495  29.295  1.00  0.00     0.275 C 
ATOM     10  C   UNL     1      13.932  63.100  27.406  1.00  0.00     0.189 C 
ATOM     11  O   UNL     1      13.995  63.148  28.820  1.00  0.00    -0.338 OA
ATOM     12  C   UNL     1      12.575  63.586  26.963  1.00  0.00     0.184 C 
ATOM     13  C   UNL     1      12.104  64.826  27.582  1.00  0.00     0.051 C 
ATOM     14  O   UNL     1      11.906  63.006  26.122  1.00  0.00    -0.292 OA
ATOM     15  C   UNL     1      12.753  65.283  28.658  1.00  0.00     0.038 C 
ATOM     16  C   UNL     1      14.239  61.687  26.910  1.00  0.00     0.048 C 
ENDBRANCH   8   9
ENDBRANCH   1   8
BRANCH   4  17
ATOM     17  O   UNL     1      18.234  63.454  33.235  1.00  0.00    -0.346 OA
BRANCH  17  18
ATOM     18  C   UNL     1      19.405  64.040  33.806  1.00  0.00     0.079 C 
ATOM     19  C   UNL     1      19.156  64.079  35.354  1.00  0.00     0.114 C 
ATOM     20  C   UNL     1      20.713  63.228  33.501  1.00  0.00     0.079 C 
ATOM     21  C   UNL     1      20.241  63.373  36.116  1.00  0.00     0.175 C 
ATOM     22  C   UNL     1      20.779  61.823  34.184  1.00  0.00     0.126 C 
ATOM     23  O   UNL     1      20.903  63.987  36.942  1.00  0.00    -0.296 OA
ATOM     24  C   UNL     1      20.529  61.905  35.767  1.00  0.00     0.185 C 
ATOM     25  C   UNL     1      22.134  61.251  33.809  1.00  0.00     0.012 C 
ATOM     26  C   UNL     1      21.675  61.366  36.658  1.00  0.00     0.054 C 
ATOM     27  C   UNL     1      23.051  60.856  34.682  1.00  0.00     0.011 C 
ATOM     28  C   UNL     1      22.836  60.901  36.138  1.00  0.00     0.033 C 
ATOM     29  C   UNL     1      21.492  61.338  38.150  1.00  0.00     0.194 C 
ATOM     30  C   UNL     1      23.935  60.405  37.019  1.00  0.00     0.198 C 
ATOM     31  C   UNL     1      22.560  60.824  39.044  1.00  0.00     0.037 A 
ATOM     32  O   UNL     1      20.449  61.740  38.643  1.00  0.00    -0.289 OA
ATOM     33  O   UNL     1      24.974  60.010  36.509  1.00  0.00    -0.288 OA
ATOM     34  C   UNL     1      23.776  60.377  38.501  1.00  0.00     0.076 A 
ATOM     35  C   UNL     1      22.363  60.781  40.432  1.00  0.00     0.013 A 
ATOM     36  C   UNL     1      24.806  59.913  39.359  1.00  0.00     0.133 A 
ATOM     37  C   UNL     1      23.362  60.310  41.278  1.00  0.00     0.011 A 
ATOM     38  C   UNL     1      24.596  59.883  40.767  1.00  0.00     0.023 A 
ATOM     39  C   UNL     1      19.581  65.500  33.315  1.00  0.00     0.043 C 
BRANCH  22  40
ATOM     40  O   UNL     1      19.782  60.998  33.621  1.00  0.00    -0.382 OA
ATOM     41  H   UNL     1      18.890  61.379  33.830  1.00  0.00     0.212 HD
ENDBRANCH  22  40
BRANCH  24  42
ATOM     42  O   UNL     1      19.388  61.113  36.052  1.00  0.00    -0.374 OA
ATOM     43  H   UNL     1      18.591  61.470  35.581  1.00  0.00     0.212 HD
ENDBRANCH  24  42
BRANCH  36  44
ATOM     44  O   UNL     1      25.972  59.496  38.812  1.00  0.00    -0.507 OA
ATOM     45  H   UNL     1      26.788  60.010  38.781  1.00  0.00     0.293 HD
ENDBRANCH  36  44
BRANCH  38  46
ATOM     46  C   UNL     1      25.663  59.417  41.745  1.00  0.00     0.155 C 
ATOM     47  C   UNL     1      25.152  59.583  43.200  1.00  0.00     0.072 C 
ATOM     48  O   UNL     1      26.883  60.097  41.497  1.00  0.00    -0.368 OA
ATOM     49  C   UNL     1      26.271  59.407  44.244  1.00  0.00     0.153 C 
ATOM     50  C   UNL     1      27.947  59.750  42.393  1.00  0.00     0.147 C 
ATOM     51  O   UNL     1      25.831  58.557  45.282  1.00  0.00    -0.366 OA
ATOM     52  C   UNL     1      27.532  58.832  43.591  1.00  0.00     0.179 C 
ATOM     53  C   UNL     1      26.857  58.419  46.246  1.00  0.00     0.182 C 
ATOM     54  O   UNL     1      28.578  58.746  44.541  1.00  0.00    -0.341 OA
ATOM     55  C   UNL     1      26.407  57.399  47.285  1.00  0.00     0.116 C 
ATOM     56  C   UNL     1      28.194  57.935  45.638  1.00  0.00     0.280 C 
ATOM     57  C   UNL     1      27.552  56.957  48.147  1.00  0.00     0.164 C 
ATOM     58  O   UNL     1      29.195  58.080  46.633  1.00  0.00    -0.339 OA
ATOM     59  O   UNL     1      27.312  56.258  49.121  1.00  0.00    -0.297 OA
ATOM     60  C   UNL     1      28.999  57.292  47.807  1.00  0.00     0.185 C 
ATOM     61  C   UNL     1      28.585  61.066  42.864  1.00  0.00     0.041 C 
ATOM     62  C   UNL     1      29.846  56.024  47.697  1.00  0.00     0.047 C 
ENDBRANCH  38  46
ENDBRANCH  17  18
ENDBRANCH   4  17
TORSDOF 8
ENDMDL
MODEL 4
REMARK VINA RESULT:   -13.710      2.033      4.307
REMARK INTER + INTRA:         -20.543
REMARK INTER:                 -19.422
REMARK INTRA:                  -1.122
REMARK UNBOUND:                -1.624
REMARK SMILES C[C@@H]1O[C@@H](O[C@H]2CC[C@@H](O[C@@]3(C)CC(=O)[C@]4(O)C5=C(C=C[C@]4(O)C3)C(=O)c3c(ccc([C@@H]4C[C@H]6O[C@H]7CC(=O)[C@@H](C)O[C@@H]7O[C@@H]6[C@H](C)O4)c3O)C5=O)O[C@@H]2C)C=CC1=O
REMARK SMILES IDX 6 1 7 2 8 3 9 4 53 5 54 6 55 7 5 8 4 9 2 10 3 11 58 12 57 13
REMARK SMILES IDX 59 14 56 15 1 16 10 17 11 18 13 19 24 20 14 21 22 22 15 23
REMARK SMILES IDX 16 24 21 25 18 26 20 27 19 28 51 29 25 30 28 31 52 32 26 33
REMARK SMILES IDX 27 34 29 35 49 36 30 37 31 38 12 39 23 40 17 42 50 44 32 46
REMARK SMILES IDX 33 47 48 48 34 49 46 50 35 51 45 52 36 53 44 54 37 55 43 56
REMARK SMILES IDX 38 57 42 58 39 59 40 60 47 61 41 62
REMARK H PARENT 23 41 17 43 50 45
ROOT
ATOM      1  C   UNL     1      25.295  60.552  40.934  1.00  0.00     0.150 C 
ATOM      2  C   UNL     1      25.462  62.037  40.621  1.00  0.00     0.040 C 
ATOM      3  C   UNL     1      24.225  62.564  39.866  1.00  0.00     0.065 C 
ATOM      4  C   UNL     1      23.566  61.453  39.014  1.00  0.00     0.251 C 
ATOM      5  O   UNL     1      24.548  60.568  38.523  1.00  0.00    -0.347 OA
ATOM      6  C   UNL     1      25.177  59.810  39.559  1.00  0.00     0.147 C 
ATOM      7  C   UNL     1      24.512  58.442  39.704  1.00  0.00     0.041 C 
ENDROOT
BRANCH   1   8
ATOM      8  O   UNL     1      26.463  60.092  41.599  1.00  0.00    -0.343 OA
BRANCH   8   9
ATOM      9  C   UNL     1      27.646  60.141  40.822  1.00  0.00     0.275 C 
ATOM     10  C   UNL     1      28.576  58.096  41.507  1.00  0.00     0.189 C 
ATOM     11  O   UNL     1      28.022  58.818  40.423  1.00  0.00    -0.338 OA
ATOM     12  C   UNL     1      29.858  58.767  41.933  1.00  0.00     0.184 C 
ATOM     13  C   UNL     1      29.798  60.220  42.097  1.00  0.00     0.051 C 
ATOM     14  O   UNL     1      30.887  58.148  42.156  1.00  0.00    -0.292 OA
ATOM     15  C   UNL     1      28.734  60.869  41.613  1.00  0.00     0.038 C 
ATOM     16  C   UNL     1      28.782  56.632  41.118  1.00  0.00     0.048 C 
ENDBRANCH   8   9
ENDBRANCH   1   8
BRANCH   4  17
ATOM     17  O   UNL     1      22.907  62.053  37.907  1.00  0.00    -0.346 OA
BRANCH  17  18
ATOM     18  C   UNL     1      21.843  61.315  37.306  1.00  0.00     0.079 C 
ATOM     19  C   UNL     1      20.528  62.098  37.649  1.00  0.00     0.114 C 
ATOM     20  C   UNL     1      21.987  61.179  35.749  1.00  0.00     0.079 C 
ATOM     21  C   UNL     1      19.755  62.467  36.414  1.00  0.00     0.175 C 
ATOM     22  C   UNL     1      21.833  62.523  34.964  1.00  0.00     0.126 C 
ATOM     23  O   UNL     1      18.610  62.062  36.269  1.00  0.00    -0.296 OA
ATOM     24  C   UNL     1      20.473  63.290  35.334  1.00  0.00     0.185 C 
ATOM     25  C   UNL     1      21.944  62.152  33.496  1.00  0.00     0.012 C 
ATOM     26  C   UNL     1      19.511  63.562  34.152  1.00  0.00     0.054 C 
ATOM     27  C   UNL     1      21.020  62.414  32.582  1.00  0.00     0.011 C 
ATOM     28  C   UNL     1      19.774  63.136  32.894  1.00  0.00     0.033 C 
ATOM     29  C   UNL     1      18.249  64.340  34.398  1.00  0.00     0.194 C 
ATOM     30  C   UNL     1      18.821  63.393  31.773  1.00  0.00     0.198 C 
ATOM     31  C   UNL     1      17.299  64.631  33.295  1.00  0.00     0.037 A 
ATOM     32  O   UNL     1      17.993  64.747  35.523  1.00  0.00    -0.289 OA
ATOM     33  O   UNL     1      19.090  62.975  30.655  1.00  0.00    -0.288 OA
ATOM     34  C   UNL     1      17.561  64.155  32.000  1.00  0.00     0.076 A 
ATOM     35  C   UNL     1      16.138  65.380  33.538  1.00  0.00     0.013 A 
ATOM     36  C   UNL     1      16.638  64.410  30.953  1.00  0.00     0.133 A 
ATOM     37  C   UNL     1      15.239  65.650  32.511  1.00  0.00     0.011 A 
ATOM     38  C   UNL     1      15.459  65.165  31.214  1.00  0.00     0.023 A 
ATOM     39  C   UNL     1      21.733  59.902  37.936  1.00  0.00     0.043 C 
BRANCH  22  40
ATOM     40  O   UNL     1      22.918  63.365  35.289  1.00  0.00    -0.382 OA
ATOM     41  H   UNL     1      22.753  64.268  34.910  1.00  0.00     0.212 HD
ENDBRANCH  22  40
BRANCH  24  42
ATOM     42  O   UNL     1      20.836  64.556  35.860  1.00  0.00    -0.374 OA
ATOM     43  H   UNL     1      21.778  64.545  36.172  1.00  0.00     0.212 HD
ENDBRANCH  24  42
BRANCH  36  44
ATOM     44  O   UNL     1      16.907  63.933  29.715  1.00  0.00    -0.507 OA
ATOM     45  H   UNL     1      16.513  64.254  28.895  1.00  0.00     0.293 HD
ENDBRANCH  36  44
BRANCH  38  46
ATOM     46  C   UNL     1      14.418  65.457  30.144  1.00  0.00     0.155 C 
ATOM     47  C   UNL     1      13.540  64.200  29.907  1.00  0.00     0.072 C 
ATOM     48  O   UNL     1      15.049  65.932  28.967  1.00  0.00    -0.368 OA
ATOM     49  C   UNL     1      12.661  64.323  28.648  1.00  0.00     0.153 C 
ATOM     50  C   UNL     1      14.151  66.206  27.884  1.00  0.00     0.147 C 
ATOM     51  O   UNL     1      11.340  63.922  28.943  1.00  0.00    -0.366 OA
ATOM     52  C   UNL     1      12.669  65.762  28.122  1.00  0.00     0.179 C 
ATOM     53  C   UNL     1      10.546  64.017  27.777  1.00  0.00     0.182 C 
ATOM     54  O   UNL     1      11.922  65.848  26.922  1.00  0.00    -0.341 OA
ATOM     55  C   UNL     1       9.102  63.704  28.150  1.00  0.00     0.116 C 
ATOM     56  C   UNL     1      10.586  65.422  27.132  1.00  0.00     0.280 C 
ATOM     57  C   UNL     1       8.157  64.097  27.054  1.00  0.00     0.164 C 
ATOM     58  O   UNL     1       9.975  65.326  25.855  1.00  0.00    -0.339 OA
ATOM     59  O   UNL     1       6.984  63.766  27.149  1.00  0.00    -0.297 OA
ATOM     60  C   UNL     1       8.598  64.951  25.871  1.00  0.00     0.185 C 
ATOM     61  C   UNL     1      14.755  65.562  26.626  1.00  0.00     0.041 C 
ATOM     62  C   UNL     1       7.742  66.212  25.753  1.00  0.00     0.047 C 
ENDBRANCH  38  46
ENDBRANCH  17  18
ENDBRANCH   4  17
TORSDOF 8
ENDMDL
MODEL 5
REMARK VINA RESULT:   -13.655      2.209     16.506
REMARK INTER + INTRA:         -20.468
REMARK INTER:                 -20.243
REMARK INTRA:                  -0.225
REMARK UNBOUND:                -1.624
REMARK SMILES C[C@@H]1O[C@@H](O[C@H]2CC[C@@H](O[C@@]3(C)CC(=O)[C@]4(O)C5=C(C=C[C@]4(O)C3)C(=O)c3c(ccc([C@@H]4C[C@H]6O[C@H]7CC(=O)[C@@H](C)O[C@@H]7O[C@@H]6[C@H](C)O4)c3O)C5=O)O[C@@H]2C)C=CC1=O
REMARK SMILES IDX 6 1 7 2 8 3 9 4 53 5 54 6 55 7 5 8 4 9 2 10 3 11 58 12 57 13
REMARK SMILES IDX 59 14 56 15 1 16 10 17 11 18 13 19 24 20 14 21 22 22 15 23
REMARK SMILES IDX 16 24 21 25 18 26 20 27 19 28 51 29 25 30 28 31 52 32 26 33
REMARK SMILES IDX 27 34 29 35 49 36 30 37 31 38 12 39 23 40 17 42 50 44 32 46
REMARK SMILES IDX 33 47 48 48 34 49 46 50 35 51 45 52 36 53 44 54 37 55 43 56
REMARK SMILES IDX 38 57 42 58 39 59 40 60 47 61 41 62
REMARK H PARENT 23 41 17 43 50 45
ROOT
ATOM      1  C   UNL     1      14.083  65.429  31.463  1.00  0.00     0.150 C 
ATOM      2  C   UNL     1      15.151  65.291  30.382  1.00  0.00     0.040 C 
ATOM      3  C   UNL     1      16.446  64.709  30.985  1.00  0.00     0.065 C 
ATOM      4  C   UNL     1      16.606  65.104  32.472  1.00  0.00     0.251 C 
ATOM      5  O   UNL     1      16.066  66.388  32.696  1.00  0.00    -0.347 OA
ATOM      6  C   UNL     1      14.646  66.427  32.532  1.00  0.00     0.147 C 
ATOM      7  C   UNL     1      13.945  66.276  33.881  1.00  0.00     0.041 C 
ENDROOT
BRANCH   1   8
ATOM      8  O   UNL     1      12.917  65.996  30.883  1.00  0.00    -0.343 OA
BRANCH   8   9
ATOM      9  C   UNL     1      11.718  65.292  31.152  1.00  0.00     0.275 C 
ATOM     10  C   UNL     1      11.764  63.843  29.305  1.00  0.00     0.189 C 
ATOM     11  O   UNL     1      11.842  63.934  30.716  1.00  0.00    -0.338 OA
ATOM     12  C   UNL     1      10.390  64.283  28.864  1.00  0.00     0.184 C 
ATOM     13  C   UNL     1       9.897  65.529  29.451  1.00  0.00     0.051 C 
ATOM     14  O   UNL     1       9.726  63.663  28.049  1.00  0.00    -0.292 OA
ATOM     15  C   UNL     1      10.547  66.034  30.506  1.00  0.00     0.038 C 
ATOM     16  C   UNL     1      12.099  62.423  28.848  1.00  0.00     0.048 C 
ENDBRANCH   8   9
ENDBRANCH   1   8
BRANCH   4  17
ATOM     17  O   UNL     1      17.990  65.136  32.793  1.00  0.00    -0.346 OA
BRANCH  17  18
ATOM     18  C   UNL     1      18.702  63.900  32.724  1.00  0.00     0.079 C 
ATOM     19  C   UNL     1      20.212  64.260  32.941  1.00  0.00     0.114 C 
ATOM     20  C   UNL     1      18.244  62.862  33.809  1.00  0.00     0.079 C 
ATOM     21  C   UNL     1      20.814  63.497  34.087  1.00  0.00     0.175 C 
ATOM     22  C   UNL     1      18.589  63.267  35.280  1.00  0.00     0.126 C 
ATOM     23  O   UNL     1      21.771  62.760  33.892  1.00  0.00    -0.296 OA
ATOM     24  C   UNL     1      20.144  63.619  35.464  1.00  0.00     0.185 C 
ATOM     25  C   UNL     1      18.120  62.108  36.141  1.00  0.00     0.012 C 
ATOM     26  C   UNL     1      20.910  62.761  36.501  1.00  0.00     0.054 C 
ATOM     27  C   UNL     1      18.896  61.425  36.971  1.00  0.00     0.011 C 
ATOM     28  C   UNL     1      20.320  61.744  37.173  1.00  0.00     0.033 C 
ATOM     29  C   UNL     1      22.352  63.073  36.788  1.00  0.00     0.194 C 
ATOM     30  C   UNL     1      21.085  60.918  38.154  1.00  0.00     0.198 C 
ATOM     31  C   UNL     1      23.125  62.282  37.779  1.00  0.00     0.037 A 
ATOM     32  O   UNL     1      22.904  63.994  36.203  1.00  0.00    -0.289 OA
ATOM     33  O   UNL     1      20.518  59.997  38.727  1.00  0.00    -0.288 OA
ATOM     34  C   UNL     1      22.517  61.206  38.446  1.00  0.00     0.076 A 
ATOM     35  C   UNL     1      24.463  62.604  38.053  1.00  0.00     0.013 A 
ATOM     36  C   UNL     1      23.267  60.435  39.371  1.00  0.00     0.133 A 
ATOM     37  C   UNL     1      25.197  61.862  38.973  1.00  0.00     0.011 A 
ATOM     38  C   UNL     1      24.626  60.765  39.635  1.00  0.00     0.023 A 
ATOM     39  C   UNL     1      18.562  63.265  31.316  1.00  0.00     0.043 C 
BRANCH  22  40
ATOM     40  O   UNL     1      17.834  64.407  35.625  1.00  0.00    -0.382 OA
ATOM     41  H   UNL     1      17.612  64.369  36.592  1.00  0.00     0.212 HD
ENDBRANCH  22  40
BRANCH  24  42
ATOM     42  O   UNL     1      20.218  64.961  35.915  1.00  0.00    -0.374 OA
ATOM     43  H   UNL     1      20.811  65.493  35.325  1.00  0.00     0.212 HD
ENDBRANCH  24  42
BRANCH  36  44
ATOM     44  O   UNL     1      22.661  59.396  39.995  1.00  0.00    -0.507 OA
ATOM     45  H   UNL     1      23.088  58.566  40.237  1.00  0.00     0.293 HD
ENDBRANCH  36  44
BRANCH  38  46
ATOM     46  C   UNL     1      25.492  59.969  40.598  1.00  0.00     0.155 C 
ATOM     47  C   UNL     1      25.349  60.543  42.032  1.00  0.00     0.072 C 
ATOM     48  O   UNL     1      26.832  59.936  40.137  1.00  0.00    -0.368 OA
ATOM     49  C   UNL     1      26.406  59.980  43.002  1.00  0.00     0.153 C 
ATOM     50  C   UNL     1      27.738  59.233  40.997  1.00  0.00     0.147 C 
ATOM     51  O   UNL     1      25.789  59.587  44.209  1.00  0.00    -0.366 OA
ATOM     52  C   UNL     1      27.136  58.790  42.372  1.00  0.00     0.179 C 
ATOM     53  C   UNL     1      26.768  59.092  45.101  1.00  0.00     0.182 C 
ATOM     54  O   UNL     1      28.157  58.329  43.239  1.00  0.00    -0.341 OA
ATOM     55  C   UNL     1      26.065  58.558  46.343  1.00  0.00     0.116 C 
ATOM     56  C   UNL     1      27.615  57.950  44.494  1.00  0.00     0.280 C 
ATOM     57  C   UNL     1      26.991  57.729  47.182  1.00  0.00     0.164 C 
ATOM     58  O   UNL     1      28.710  57.717  45.366  1.00  0.00    -0.339 OA
ATOM     59  O   UNL     1      26.609  57.362  48.284  1.00  0.00    -0.297 OA
ATOM     60  C   UNL     1      28.355  57.277  46.676  1.00  0.00     0.185 C 
ATOM     61  C   UNL     1      28.979  60.124  41.167  1.00  0.00     0.041 C 
ATOM     62  C   UNL     1      28.488  55.754  46.738  1.00  0.00     0.047 C 
ENDBRANCH  38  46
ENDBRANCH  17  18
ENDBRANCH   4  17
TORSDOF 8
ENDMDL
MODEL 6
REMARK VINA RESULT:   -13.570      2.440     16.682
REMARK INTER + INTRA:         -20.350
REMARK INTER:                 -20.910
REMARK INTRA:                   0.560
REMARK UNBOUND:                -1.624
REMARK SMILES C[C@@H]1O[C@@H](O[C@H]2CC[C@@H](O[C@@]3(C)CC(=O)[C@]4(O)C5=C(C=C[C@]4(O)C3)C(=O)c3c(ccc([C@@H]4C[C@H]6O[C@H]7CC(=O)[C@@H](C)O[C@@H]7O[C@@H]6[C@H](C)O4)c3O)C5=O)O[C@@H]2C)C=CC1=O
REMARK SMILES IDX 6 1 7 2 8 3 9 4 53 5 54 6 55 7 5 8 4 9 2 10 3 11 58 12 57 13
REMARK SMILES IDX 59 14 56 15 1 16 10 17 11 18 13 19 24 20 14 21 22 22 15 23
REMARK SMILES IDX 16 24 21 25 18 26 20 27 19 28 51 29 25 30 28 31 52 32 26 33
REMARK SMILES IDX 27 34 29 35 49 36 30 37 31 38 12 39 23 40 17 42 50 44 32 46
REMARK SMILES IDX 33 47 48 48 34 49 46 50 35 51 45 52 36 53 44 54 37 55 43 56
REMARK SMILES IDX 38 57 42 58 39 59 40 60 47 61 41 62
REMARK H PARENT 23 41 17 43 50 45
ROOT
ATOM      1  C   UNL     1      16.936  65.120  32.277  1.00  0.00     0.150 C 
ATOM      2  C   UNL     1      17.054  64.804  33.766  1.00  0.00     0.040 C 
ATOM      3  C   UNL     1      18.536  64.792  34.192  1.00  0.00     0.065 C 
ATOM      4  C   UNL     1      19.458  64.364  33.025  1.00  0.00     0.251 C 
ATOM      5  O   UNL     1      18.801  63.421  32.207  1.00  0.00    -0.347 OA
ATOM      6  C   UNL     1      17.683  63.976  31.510  1.00  0.00     0.147 C 
ATOM      7  C   UNL     1      18.087  64.403  30.099  1.00  0.00     0.041 C 
ENDROOT
BRANCH   1   8
ATOM      8  O   UNL     1      15.564  65.091  31.912  1.00  0.00    -0.343 OA
BRANCH   8   9
ATOM      9  C   UNL     1      14.689  65.698  32.845  1.00  0.00     0.275 C 
ATOM     10  C   UNL     1      12.694  65.465  31.629  1.00  0.00     0.189 C 
ATOM     11  O   UNL     1      13.403  65.070  32.788  1.00  0.00    -0.338 OA
ATOM     12  C   UNL     1      12.415  66.945  31.710  1.00  0.00     0.184 C 
ATOM     13  C   UNL     1      13.548  67.792  32.085  1.00  0.00     0.051 C 
ATOM     14  O   UNL     1      11.322  67.428  31.457  1.00  0.00    -0.292 OA
ATOM     15  C   UNL     1      14.642  67.203  32.581  1.00  0.00     0.038 C 
ATOM     16  C   UNL     1      11.418  64.636  31.480  1.00  0.00     0.048 C 
ENDBRANCH   8   9
ENDBRANCH   1   8
BRANCH   4  17
ATOM     17  O   UNL     1      20.626  63.758  33.561  1.00  0.00    -0.346 OA
BRANCH  17  18
ATOM     18  C   UNL     1      20.503  62.416  34.034  1.00  0.00     0.079 C 
ATOM     19  C   UNL     1      21.944  61.801  33.964  1.00  0.00     0.114 C 
ATOM     20  C   UNL     1      19.961  62.326  35.504  1.00  0.00     0.079 C 
ATOM     21  C   UNL     1      22.393  61.266  35.294  1.00  0.00     0.175 C 
ATOM     22  C   UNL     1      20.936  62.885  36.591  1.00  0.00     0.126 C 
ATOM     23  O   UNL     1      22.684  60.083  35.407  1.00  0.00    -0.296 OA
ATOM     24  C   UNL     1      22.396  62.226  36.493  1.00  0.00     0.185 C 
ATOM     25  C   UNL     1      20.246  62.643  37.921  1.00  0.00     0.012 C 
ATOM     26  C   UNL     1      22.887  61.485  37.761  1.00  0.00     0.054 C 
ATOM     27  C   UNL     1      20.768  61.950  38.924  1.00  0.00     0.011 C 
ATOM     28  C   UNL     1      22.114  61.355  38.866  1.00  0.00     0.033 C 
ATOM     29  C   UNL     1      24.272  60.902  37.780  1.00  0.00     0.194 C 
ATOM     30  C   UNL     1      22.602  60.618  40.070  1.00  0.00     0.198 C 
ATOM     31  C   UNL     1      24.788  60.189  38.975  1.00  0.00     0.037 A 
ATOM     32  O   UNL     1      24.994  61.016  36.799  1.00  0.00    -0.289 OA
ATOM     33  O   UNL     1      21.864  60.509  41.040  1.00  0.00    -0.288 OA
ATOM     34  C   UNL     1      23.969  60.026  40.104  1.00  0.00     0.076 A 
ATOM     35  C   UNL     1      26.093  59.673  38.984  1.00  0.00     0.013 A 
ATOM     36  C   UNL     1      24.454  59.319  41.234  1.00  0.00     0.133 A 
ATOM     37  C   UNL     1      26.581  58.995  40.097  1.00  0.00     0.011 A 
ATOM     38  C   UNL     1      25.777  58.793  41.228  1.00  0.00     0.023 A 
ATOM     39  C   UNL     1      19.586  61.587  33.097  1.00  0.00     0.043 C 
BRANCH  22  40
ATOM     40  O   UNL     1      21.067  64.278  36.410  1.00  0.00    -0.382 OA
ATOM     41  H   UNL     1      20.226  64.723  36.693  1.00  0.00     0.212 HD
ENDBRANCH  22  40
BRANCH  24  42
ATOM     42  O   UNL     1      23.316  63.280  36.259  1.00  0.00    -0.374 OA
ATOM     43  H   UNL     1      23.473  63.795  37.092  1.00  0.00     0.212 HD
ENDBRANCH  24  42
BRANCH  36  44
ATOM     44  O   UNL     1      23.642  59.168  42.307  1.00  0.00    -0.507 OA
ATOM     45  H   UNL     1      23.693  58.449  42.947  1.00  0.00     0.293 HD
ENDBRANCH  36  44
BRANCH  38  46
ATOM     46  C   UNL     1      26.353  58.009  42.396  1.00  0.00     0.155 C 
ATOM     47  C   UNL     1      27.125  58.965  43.343  1.00  0.00     0.072 C 
ATOM     48  O   UNL     1      27.143  56.932  41.919  1.00  0.00    -0.368 OA
ATOM     49  C   UNL     1      27.973  58.209  44.384  1.00  0.00     0.153 C 
ATOM     50  C   UNL     1      27.760  56.149  42.948  1.00  0.00     0.147 C 
ATOM     51  O   UNL     1      27.773  58.769  45.664  1.00  0.00    -0.366 OA
ATOM     52  C   UNL     1      27.609  56.721  44.397  1.00  0.00     0.179 C 
ATOM     53  C   UNL     1      28.572  58.083  46.609  1.00  0.00     0.182 C 
ATOM     54  O   UNL     1      28.447  56.022  45.300  1.00  0.00    -0.341 OA
ATOM     55  C   UNL     1      28.243  58.619  47.997  1.00  0.00     0.116 C 
ATOM     56  C   UNL     1      28.329  56.556  46.608  1.00  0.00     0.280 C 
ATOM     57  C   UNL     1      28.798  57.731  49.071  1.00  0.00     0.164 C 
ATOM     58  O   UNL     1      29.349  55.959  47.394  1.00  0.00    -0.339 OA
ATOM     59  O   UNL     1      28.744  58.115  50.230  1.00  0.00    -0.297 OA
ATOM     60  C   UNL     1      29.357  56.346  48.768  1.00  0.00     0.185 C 
ATOM     61  C   UNL     1      29.232  55.960  42.548  1.00  0.00     0.041 C 
ATOM     62  C   UNL     1      28.640  55.272  49.587  1.00  0.00     0.047 C 
ENDBRANCH  38  46
ENDBRANCH  17  18
ENDBRANCH   4  17
TORSDOF 8
ENDMDL
MODEL 7
REMARK VINA RESULT:   -13.530      1.869      2.762
REMARK INTER + INTRA:         -20.295
REMARK INTER:                 -18.792
REMARK INTRA:                  -1.503
REMARK UNBOUND:                -1.624
REMARK SMILES C[C@@H]1O[C@@H](O[C@H]2CC[C@@H](O[C@@]3(C)CC(=O)[C@]4(O)C5=C(C=C[C@]4(O)C3)C(=O)c3c(ccc([C@@H]4C[C@H]6O[C@H]7CC(=O)[C@@H](C)O[C@@H]7O[C@@H]6[C@H](C)O4)c3O)C5=O)O[C@@H]2C)C=CC1=O
REMARK SMILES IDX 6 1 7 2 8 3 9 4 53 5 54 6 55 7 5 8 4 9 2 10 3 11 58 12 57 13
REMARK SMILES IDX 59 14 56 15 1 16 10 17 11 18 13 19 24 20 14 21 22 22 15 23
REMARK SMILES IDX 16 24 21 25 18 26 20 27 19 28 51 29 25 30 28 31 52 32 26 33
REMARK SMILES IDX 27 34 29 35 49 36 30 37 31 38 12 39 23 40 17 42 50 44 32 46
REMARK SMILES IDX 33 47 48 48 34 49 46 50 35 51 45 52 36 53 44 54 37 55 43 56
REMARK SMILES IDX 38 57 42 58 39 59 40 60 47 61 41 62
REMARK H PARENT 23 41 17 43 50 45
ROOT
ATOM      1  C   UNL     1      29.797  59.367  43.631  1.00  0.00     0.150 C 
ATOM      2  C   UNL     1      30.103  59.136  42.154  1.00  0.00     0.040 C 
ATOM      3  C   UNL     1      29.020  59.797  41.277  1.00  0.00     0.065 C 
ATOM      4  C   UNL     1      27.652  59.836  41.997  1.00  0.00     0.251 C 
ATOM      5  O   UNL     1      27.502  58.699  42.819  1.00  0.00    -0.347 OA
ATOM      6  C   UNL     1      28.414  58.688  43.919  1.00  0.00     0.147 C 
ATOM      7  C   UNL     1      27.750  59.254  45.174  1.00  0.00     0.041 C 
ENDROOT
BRANCH   1   8
ATOM      8  O   UNL     1      30.792  58.719  44.410  1.00  0.00    -0.343 OA
BRANCH   8   9
ATOM      9  C   UNL     1      31.775  58.029  43.660  1.00  0.00     0.275 C 
ATOM     10  C   UNL     1      31.897  56.089  44.978  1.00  0.00     0.189 C 
ATOM     11  O   UNL     1      31.532  56.619  43.717  1.00  0.00    -0.338 OA
ATOM     12  C   UNL     1      33.385  56.247  45.160  1.00  0.00     0.184 C 
ATOM     13  C   UNL     1      33.934  57.565  44.839  1.00  0.00     0.051 C 
ATOM     14  O   UNL     1      34.101  55.349  45.574  1.00  0.00    -0.292 OA
ATOM     15  C   UNL     1      33.162  58.427  44.168  1.00  0.00     0.038 C 
ATOM     16  C   UNL     1      31.444  54.633  45.091  1.00  0.00     0.048 C 
ENDBRANCH   8   9
ENDBRANCH   1   8
BRANCH   4  17
ATOM     17  O   UNL     1      26.619  59.825  41.022  1.00  0.00    -0.346 OA
BRANCH  17  18
ATOM     18  C   UNL     1      25.836  61.013  40.891  1.00  0.00     0.079 C 
ATOM     19  C   UNL     1      26.143  61.575  39.460  1.00  0.00     0.114 C 
ATOM     20  C   UNL     1      24.295  60.756  41.040  1.00  0.00     0.079 C 
ATOM     21  C   UNL     1      24.892  61.750  38.645  1.00  0.00     0.175 C 
ATOM     22  C   UNL     1      23.663  59.913  39.885  1.00  0.00     0.126 C 
ATOM     23  O   UNL     1      24.592  62.858  38.221  1.00  0.00    -0.296 OA
ATOM     24  C   UNL     1      23.990  60.525  38.438  1.00  0.00     0.185 C 
ATOM     25  C   UNL     1      22.179  59.843  40.196  1.00  0.00     0.012 C 
ATOM     26  C   UNL     1      22.762  60.912  37.578  1.00  0.00     0.054 C 
ATOM     27  C   UNL     1      21.219  60.249  39.377  1.00  0.00     0.011 C 
ATOM     28  C   UNL     1      21.493  60.793  38.036  1.00  0.00     0.033 C 
ATOM     29  C   UNL     1      22.978  61.424  36.181  1.00  0.00     0.194 C 
ATOM     30  C   UNL     1      20.326  61.192  37.195  1.00  0.00     0.198 C 
ATOM     31  C   UNL     1      21.831  61.802  35.317  1.00  0.00     0.037 A 
ATOM     32  O   UNL     1      24.113  61.531  35.740  1.00  0.00    -0.289 OA
ATOM     33  O   UNL     1      19.197  61.084  37.654  1.00  0.00    -0.288 OA
ATOM     34  C   UNL     1      20.520  61.710  35.811  1.00  0.00     0.076 A 
ATOM     35  C   UNL     1      22.049  62.254  34.007  1.00  0.00     0.013 A 
ATOM     36  C   UNL     1      19.427  62.099  34.993  1.00  0.00     0.133 A 
ATOM     37  C   UNL     1      20.981  62.620  33.194  1.00  0.00     0.011 A 
ATOM     38  C   UNL     1      19.662  62.564  33.668  1.00  0.00     0.023 A 
ATOM     39  C   UNL     1      26.281  62.078  41.927  1.00  0.00     0.043 C 
BRANCH  22  40
ATOM     40  O   UNL     1      24.186  58.604  39.940  1.00  0.00    -0.382 OA
ATOM     41  H   UNL     1      24.425  58.311  39.022  1.00  0.00     0.212 HD
ENDBRANCH  22  40
BRANCH  24  42
ATOM     42  O   UNL     1      24.693  59.530  37.713  1.00  0.00    -0.374 OA
ATOM     43  H   UNL     1      24.342  59.460  36.788  1.00  0.00     0.212 HD
ENDBRANCH  24  42
BRANCH  36  44
ATOM     44  O   UNL     1      18.173  62.009  35.495  1.00  0.00    -0.507 OA
ATOM     45  H   UNL     1      17.511  62.710  35.471  1.00  0.00     0.293 HD
ENDBRANCH  36  44
BRANCH  38  46
ATOM     46  C   UNL     1      18.541  63.015  32.747  1.00  0.00     0.155 C 
ATOM     47  C   UNL     1      19.138  63.666  31.471  1.00  0.00     0.072 C 
ATOM     48  O   UNL     1      17.647  63.866  33.445  1.00  0.00    -0.368 OA
ATOM     49  C   UNL     1      18.077  64.401  30.630  1.00  0.00     0.153 C 
ATOM     50  C   UNL     1      16.569  64.374  32.650  1.00  0.00     0.147 C 
ATOM     51  O   UNL     1      18.217  64.054  29.269  1.00  0.00    -0.366 OA
ATOM     52  C   UNL     1      16.667  64.056  31.120  1.00  0.00     0.179 C 
ATOM     53  C   UNL     1      17.253  64.751  28.503  1.00  0.00     0.182 C 
ATOM     54  O   UNL     1      15.703  64.796  30.393  1.00  0.00    -0.341 OA
ATOM     55  C   UNL     1      17.339  64.264  27.062  1.00  0.00     0.116 C 
ATOM     56  C   UNL     1      15.808  64.528  29.005  1.00  0.00     0.280 C 
ATOM     57  C   UNL     1      16.150  64.706  26.263  1.00  0.00     0.164 C 
ATOM     58  O   UNL     1      14.972  65.461  28.337  1.00  0.00    -0.339 OA
ATOM     59  O   UNL     1      16.156  64.519  25.055  1.00  0.00    -0.297 OA
ATOM     60  C   UNL     1      14.914  65.311  26.919  1.00  0.00     0.185 C 
ATOM     61  C   UNL     1      16.479  65.883  32.925  1.00  0.00     0.041 C 
ATOM     62  C   UNL     1      13.656  64.520  26.557  1.00  0.00     0.047 C 
ENDBRANCH  38  46
ENDBRANCH  17  18
ENDBRANCH   4  17
TORSDOF 8
ENDMDL
MODEL 8
REMARK VINA RESULT:   -13.410      2.148     16.596
REMARK INTER + INTRA:         -20.130
REMARK INTER:                 -19.420
REMARK INTRA:                  -0.709
REMARK UNBOUND:                -1.624
REMARK SMILES C[C@@H]1O[C@@H](O[C@H]2CC[C@@H](O[C@@]3(C)CC(=O)[C@]4(O)C5=C(C=C[C@]4(O)C3)C(=O)c3c(ccc([C@@H]4C[C@H]6O[C@H]7CC(=O)[C@@H](C)O[C@@H]7O[C@@H]6[C@H](C)O4)c3O)C5=O)O[C@@H]2C)C=CC1=O
REMARK SMILES IDX 6 1 7 2 8 3 9 4 53 5 54 6 55 7 5 8 4 9 2 10 3 11 58 12 57 13
REMARK SMILES IDX 59 14 56 15 1 16 10 17 11 18 13 19 24 20 14 21 22 22 15 23
REMARK SMILES IDX 16 24 21 25 18 26 20 27 19 28 51 29 25 30 28 31 52 32 26 33
REMARK SMILES IDX 27 34 29 35 49 36 30 37 31 38 12 39 23 40 17 42 50 44 32 46
REMARK SMILES IDX 33 47 48 48 34 49 46 50 35 51 45 52 36 53 44 54 37 55 43 56
REMARK SMILES IDX 38 57 42 58 39 59 40 60 47 61 41 62
REMARK H PARENT 23 41 17 43 50 45
ROOT
ATOM      1  C   UNL     1      14.684  65.123  30.850  1.00  0.00     0.150 C 
ATOM      2  C   UNL     1      15.893  65.169  29.920  1.00  0.00     0.040 C 
ATOM      3  C   UNL     1      17.113  64.517  30.602  1.00  0.00     0.065 C 
ATOM      4  C   UNL     1      17.056  64.676  32.140  1.00  0.00     0.251 C 
ATOM      5  O   UNL     1      16.447  65.902  32.480  1.00  0.00    -0.347 OA
ATOM      6  C   UNL     1      15.062  65.949  32.127  1.00  0.00     0.147 C 
ATOM      7  C   UNL     1      14.189  65.580  33.326  1.00  0.00     0.041 C 
ENDROOT
BRANCH   1   8
ATOM      8  O   UNL     1      13.589  65.759  30.206  1.00  0.00    -0.343 OA
BRANCH   8   9
ATOM      9  C   UNL     1      12.994  65.005  29.165  1.00  0.00     0.275 C 
ATOM     10  C   UNL     1      10.751  65.263  29.810  1.00  0.00     0.189 C 
ATOM     11  O   UNL     1      11.720  65.564  28.824  1.00  0.00    -0.338 OA
ATOM     12  C   UNL     1      10.538  63.770  29.843  1.00  0.00     0.184 C 
ATOM     13  C   UNL     1      11.749  62.950  29.868  1.00  0.00     0.051 C 
ATOM     14  O   UNL     1       9.429  63.259  29.873  1.00  0.00    -0.292 OA
ATOM     15  C   UNL     1      12.919  63.538  29.591  1.00  0.00     0.038 C 
ATOM     16  C   UNL     1       9.459  66.033  29.534  1.00  0.00     0.048 C 
ENDBRANCH   8   9
ENDBRANCH   1   8
BRANCH   4  17
ATOM     17  O   UNL     1      18.381  64.676  32.651  1.00  0.00    -0.346 OA
BRANCH  17  18
ATOM     18  C   UNL     1      19.023  63.407  32.792  1.00  0.00     0.079 C 
ATOM     19  C   UNL     1      20.540  63.718  33.043  1.00  0.00     0.114 C 
ATOM     20  C   UNL     1      18.453  62.556  33.981  1.00  0.00     0.079 C 
ATOM     21  C   UNL     1      21.039  63.093  34.315  1.00  0.00     0.175 C 
ATOM     22  C   UNL     1      18.748  63.144  35.400  1.00  0.00     0.126 C 
ATOM     23  O   UNL     1      21.960  62.288  34.277  1.00  0.00    -0.296 OA
ATOM     24  C   UNL     1      20.310  63.438  35.622  1.00  0.00     0.185 C 
ATOM     25  C   UNL     1      18.171  62.142  36.384  1.00  0.00     0.012 C 
ATOM     26  C   UNL     1      20.973  62.696  36.808  1.00  0.00     0.054 C 
ATOM     27  C   UNL     1      18.865  61.543  37.342  1.00  0.00     0.011 C 
ATOM     28  C   UNL     1      20.294  61.814  37.579  1.00  0.00     0.033 C 
ATOM     29  C   UNL     1      22.415  62.972  37.132  1.00  0.00     0.194 C 
ATOM     30  C   UNL     1      20.960  61.095  38.705  1.00  0.00     0.198 C 
ATOM     31  C   UNL     1      23.092  62.289  38.263  1.00  0.00     0.037 A 
ATOM     32  O   UNL     1      23.048  63.773  36.458  1.00  0.00    -0.289 OA
ATOM     33  O   UNL     1      20.313  60.294  39.365  1.00  0.00    -0.288 OA
ATOM     34  C   UNL     1      22.391  61.349  39.035  1.00  0.00     0.076 A 
ATOM     35  C   UNL     1      24.431  62.577  38.566  1.00  0.00     0.013 A 
ATOM     36  C   UNL     1      23.048  60.677  40.099  1.00  0.00     0.133 A 
ATOM     37  C   UNL     1      25.075  61.935  39.619  1.00  0.00     0.011 A 
ATOM     38  C   UNL     1      24.410  60.972  40.391  1.00  0.00     0.023 A 
ATOM     39  C   UNL     1      18.916  62.591  31.478  1.00  0.00     0.043 C 
BRANCH  22  40
ATOM     40  O   UNL     1      18.045  64.358  35.543  1.00  0.00    -0.382 OA
ATOM     41  H   UNL     1      17.932  64.776  34.650  1.00  0.00     0.212 HD
ENDBRANCH  22  40
BRANCH  24  42
ATOM     42  O   UNL     1      20.440  64.825  35.889  1.00  0.00    -0.374 OA
ATOM     43  H   UNL     1      20.381  64.998  36.864  1.00  0.00     0.212 HD
ENDBRANCH  24  42
BRANCH  36  44
ATOM     44  O   UNL     1      22.353  59.768  40.823  1.00  0.00    -0.507 OA
ATOM     45  H   UNL     1      22.703  58.929  41.147  1.00  0.00     0.293 HD
ENDBRANCH  36  44
BRANCH  38  46
ATOM     46  C   UNL     1      25.180  60.275  41.501  1.00  0.00     0.155 C 
ATOM     47  C   UNL     1      26.704  60.464  41.284  1.00  0.00     0.072 C 
ATOM     48  O   UNL     1      24.789  58.915  41.587  1.00  0.00    -0.368 OA
ATOM     49  C   UNL     1      27.549  59.554  42.195  1.00  0.00     0.153 C 
ATOM     50  C   UNL     1      25.486  58.160  42.587  1.00  0.00     0.147 C 
ATOM     51  O   UNL     1      28.587  60.301  42.792  1.00  0.00    -0.366 OA
ATOM     52  C   UNL     1      26.674  58.911  43.276  1.00  0.00     0.179 C 
ATOM     53  C   UNL     1      29.370  59.453  43.610  1.00  0.00     0.182 C 
ATOM     54  O   UNL     1      27.443  58.017  44.059  1.00  0.00    -0.341 OA
ATOM     55  C   UNL     1      30.400  60.305  44.341  1.00  0.00     0.116 C 
ATOM     56  C   UNL     1      28.534  58.691  44.664  1.00  0.00     0.280 C 
ATOM     57  C   UNL     1      31.045  59.542  45.459  1.00  0.00     0.164 C 
ATOM     58  O   UNL     1      29.369  57.699  45.239  1.00  0.00    -0.339 OA
ATOM     59  O   UNL     1      31.999  60.046  46.035  1.00  0.00    -0.297 OA
ATOM     60  C   UNL     1      30.507  58.200  45.940  1.00  0.00     0.185 C 
ATOM     61  C   UNL     1      25.934  56.846  41.927  1.00  0.00     0.041 C 
ATOM     62  C   UNL     1      30.188  58.239  47.435  1.00  0.00     0.047 C 
ENDBRANCH  38  46
ENDBRANCH  17  18
ENDBRANCH   4  17
TORSDOF 8
ENDMDL
MODEL 9
REMARK VINA RESULT:   -13.213      4.462     18.912
REMARK INTER + INTRA:         -19.858
REMARK INTER:                 -18.340
REMARK INTRA:                  -1.517
REMARK UNBOUND:                -1.624
REMARK SMILES C[C@@H]1O[C@@H](O[C@H]2CC[C@@H](O[C@@]3(C)CC(=O)[C@]4(O)C5=C(C=C[C@]4(O)C3)C(=O)c3c(ccc([C@@H]4C[C@H]6O[C@H]7CC(=O)[C@@H](C)O[C@@H]7O[C@@H]6[C@H](C)O4)c3O)C5=O)O[C@@H]2C)C=CC1=O
REMARK SMILES IDX 6 1 7 2 8 3 9 4 53 5 54 6 55 7 5 8 4 9 2 10 3 11 58 12 57 13
REMARK SMILES IDX 59 14 56 15 1 16 10 17 11 18 13 19 24 20 14 21 22 22 15 23
REMARK SMILES IDX 16 24 21 25 18 26 20 27 19 28 51 29 25 30 28 31 52 32 26 33
REMARK SMILES IDX 27 34 29 35 49 36 30 37 31 38 12 39 23 40 17 42 50 44 32 46
REMARK SMILES IDX 33 47 48 48 34 49 46 50 35 51 45 52 36 53 44 54 37 55 43 56
REMARK SMILES IDX 38 57 42 58 39 59 40 60 47 61 41 62
REMARK H PARENT 23 41 17 43 50 45
ROOT
ATOM      1  C   UNL     1      22.225  61.407  35.615  1.00  0.00     0.150 C 
ATOM      2  C   UNL     1      23.257  60.294  35.455  1.00  0.00     0.040 C 
ATOM      3  C   UNL     1      23.797  59.867  36.835  1.00  0.00     0.065 C 
ATOM      4  C   UNL     1      23.774  61.042  37.841  1.00  0.00     0.251 C 
ATOM      5  O   UNL     1      24.019  62.260  37.173  1.00  0.00    -0.347 OA
ATOM      6  C   UNL     1      22.965  62.620  36.276  1.00  0.00     0.147 C 
ATOM      7  C   UNL     1      21.992  63.586  36.951  1.00  0.00     0.041 C 
ENDROOT
BRANCH   1   8
ATOM      8  O   UNL     1      21.773  61.799  34.326  1.00  0.00    -0.343 OA
BRANCH   8   9
ATOM      9  C   UNL     1      20.437  61.436  34.031  1.00  0.00     0.275 C 
ATOM     10  C   UNL     1      19.651  63.556  33.394  1.00  0.00     0.189 C 
ATOM     11  O   UNL     1      19.938  62.241  32.956  1.00  0.00    -0.338 OA
ATOM     12  C   UNL     1      18.533  63.499  34.405  1.00  0.00     0.184 C 
ATOM     13  C   UNL     1      18.670  62.491  35.457  1.00  0.00     0.051 C 
ATOM     14  O   UNL     1      17.575  64.256  34.377  1.00  0.00    -0.292 OA
ATOM     15  C   UNL     1      19.598  61.540  35.306  1.00  0.00     0.038 C 
ATOM     16  C   UNL     1      19.317  64.450  32.200  1.00  0.00     0.048 C 
ENDBRANCH   8   9
ENDBRANCH   1   8
BRANCH   4  17
ATOM     17  O   UNL     1      24.801  60.843  38.803  1.00  0.00    -0.346 OA
BRANCH  17  18
ATOM     18  C   UNL     1      24.434  60.956  40.179  1.00  0.00     0.079 C 
ATOM     19  C   UNL     1      24.046  59.509  40.641  1.00  0.00     0.114 C 
ATOM     20  C   UNL     1      25.591  61.510  41.083  1.00  0.00     0.079 C 
ATOM     21  C   UNL     1      24.849  59.065  41.832  1.00  0.00     0.175 C 
ATOM     22  C   UNL     1      26.815  60.548  41.231  1.00  0.00     0.126 C 
ATOM     23  O   UNL     1      24.279  58.764  42.872  1.00  0.00    -0.296 OA
ATOM     24  C   UNL     1      26.381  59.081  41.715  1.00  0.00     0.185 C 
ATOM     25  C   UNL     1      27.769  61.247  42.183  1.00  0.00     0.012 C 
ATOM     26  C   UNL     1      27.016  58.594  43.040  1.00  0.00     0.054 C 
ATOM     27  C   UNL     1      28.214  60.726  43.318  1.00  0.00     0.011 C 
ATOM     28  C   UNL     1      27.846  59.374  43.772  1.00  0.00     0.033 C 
ATOM     29  C   UNL     1      26.720  57.203  43.527  1.00  0.00     0.194 C 
ATOM     30  C   UNL     1      28.432  58.889  45.058  1.00  0.00     0.198 C 
ATOM     31  C   UNL     1      27.312  56.690  44.788  1.00  0.00     0.037 A 
ATOM     32  O   UNL     1      25.983  56.474  42.878  1.00  0.00    -0.289 OA
ATOM     33  O   UNL     1      29.163  59.633  45.697  1.00  0.00    -0.288 OA
ATOM     34  C   UNL     1      28.143  57.517  45.561  1.00  0.00     0.076 A 
ATOM     35  C   UNL     1      27.045  55.380  45.215  1.00  0.00     0.013 A 
ATOM     36  C   UNL     1      28.684  57.034  46.781  1.00  0.00     0.133 A 
ATOM     37  C   UNL     1      27.588  54.895  46.400  1.00  0.00     0.011 A 
ATOM     38  C   UNL     1      28.399  55.706  47.207  1.00  0.00     0.023 A 
ATOM     39  C   UNL     1      23.181  61.857  40.338  1.00  0.00     0.043 C 
BRANCH  22  40
ATOM     40  O   UNL     1      27.452  60.429  39.977  1.00  0.00    -0.382 OA
ATOM     41  H   UNL     1      28.324  60.902  40.010  1.00  0.00     0.212 HD
ENDBRANCH  22  40
BRANCH  24  42
ATOM     42  O   UNL     1      26.792  58.170  40.710  1.00  0.00    -0.374 OA
ATOM     43  H   UNL     1      26.791  58.610  39.820  1.00  0.00     0.212 HD
ENDBRANCH  24  42
BRANCH  36  44
ATOM     44  O   UNL     1      29.475  57.853  47.513  1.00  0.00    -0.507 OA
ATOM     45  H   UNL     1      30.113  57.566  48.177  1.00  0.00     0.293 HD
ENDBRANCH  36  44
BRANCH  38  46
ATOM     46  C   UNL     1      28.928  55.132  48.512  1.00  0.00     0.155 C 
ATOM     47  C   UNL     1      30.111  54.170  48.222  1.00  0.00     0.072 C 
ATOM     48  O   UNL     1      27.876  54.523  49.240  1.00  0.00    -0.368 OA
ATOM     49  C   UNL     1      30.509  53.335  49.453  1.00  0.00     0.153 C 
ATOM     50  C   UNL     1      28.281  53.920  50.476  1.00  0.00     0.147 C 
ATOM     51  O   UNL     1      31.911  53.354  49.614  1.00  0.00    -0.366 OA
ATOM     52  C   UNL     1      29.828  53.875  50.715  1.00  0.00     0.179 C 
ATOM     53  C   UNL     1      32.269  52.567  50.733  1.00  0.00     0.182 C 
ATOM     54  O   UNL     1      30.138  53.055  51.826  1.00  0.00    -0.341 OA
ATOM     55  C   UNL     1      33.770  52.707  50.962  1.00  0.00     0.116 C 
ATOM     56  C   UNL     1      31.540  52.993  52.028  1.00  0.00     0.280 C 
ATOM     57  C   UNL     1      34.170  52.175  52.305  1.00  0.00     0.164 C 
ATOM     58  O   UNL     1      31.776  51.991  53.004  1.00  0.00    -0.339 OA
ATOM     59  O   UNL     1      35.361  52.081  52.564  1.00  0.00    -0.297 OA
ATOM     60  C   UNL     1      33.143  51.818  53.373  1.00  0.00     0.185 C 
ATOM     61  C   UNL     1      27.645  52.522  50.524  1.00  0.00     0.041 C 
ATOM     62  C   UNL     1      33.406  52.587  54.668  1.00  0.00     0.047 C 
ENDBRANCH  38  46
ENDBRANCH  17  18
ENDBRANCH   4  17
TORSDOF 8
ENDMDL
