MODEL 1
REMARK VINA RESULT:   -12.571      0.000      0.000
REMARK INTER + INTRA:         -22.288
REMARK INTER:                 -20.655
REMARK INTRA:                  -1.634
REMARK UNBOUND:                -1.634
REMARK SMILES CC(=O)O[C@H]1[C@@H](O)[C@H](O[C@@H]2C=C3CC[C@@H]4[C@H](CC[C@]5(C)[C@@H](c6ccc(=O)oc6)CC[C@]45O)[C@@]3(C)CC2)O[C@@H](C)[C@@H]1O[C@@H]1O[C@H](CO)[C@@H](O)[C@H](O)[C@H]1O
REMARK SMILES IDX 5 1 6 2 8 3 37 4 38 5 39 6 40 7 4 8 2 9 3 10 1 11 7 12 41 14
REMARK SMILES IDX 42 15 43 16 51 17 44 18 49 19 47 20 52 21 45 23 46 24 50 26
REMARK SMILES IDX 48 28 9 30 10 31 11 32 36 33 12 34 35 35 13 36 33 37 14 38
REMARK SMILES IDX 16 39 15 40 17 41 31 42 18 43 30 44 19 45 29 46 21 47 34 48
REMARK SMILES IDX 20 49 32 50 22 52 28 53 23 54 27 55 24 56 25 57 26 58
REMARK H PARENT 7 13 52 22 46 25 50 27 48 29 32 51
ROOT
ATOM      1  C   UNL     1      26.862  60.057  43.253  1.00  0.00     0.242 C 
ATOM      2  C   UNL     1      25.847  60.899  42.451  1.00  0.00     0.214 C 
ATOM      3  C   UNL     1      25.357  60.167  41.170  1.00  0.00     0.283 C 
ATOM      4  O   UNL     1      25.398  58.764  41.334  1.00  0.00    -0.344 OA
ATOM      5  C   UNL     1      26.703  58.237  41.582  1.00  0.00     0.151 C 
ATOM      6  C   UNL     1      27.290  57.650  40.301  1.00  0.00     0.042 C 
ATOM      7  C   UNL     1      27.693  59.214  42.295  1.00  0.00     0.194 C 
ENDROOT
BRANCH   1   8
ATOM      8  O   UNL     1      27.658  60.884  44.031  1.00  0.00    -0.457 OA
BRANCH   8   9
ATOM      9  C   UNL     1      27.723  60.873  45.387  1.00  0.00     0.303 C 
ATOM     10  O   UNL     1      26.715  60.760  46.070  1.00  0.00    -0.253 OA
ATOM     11  C   UNL     1      29.055  61.010  46.050  1.00  0.00     0.139 C 
ENDBRANCH   8   9
ENDBRANCH   1   8
BRANCH   2  12
ATOM     12  O   UNL     1      26.350  62.169  42.111  1.00  0.00    -0.384 OA
ATOM     13  H   UNL     1      26.636  62.618  42.948  1.00  0.00     0.211 HD
ENDBRANCH   2  12
BRANCH   7  14
ATOM     14  O   UNL     1      28.619  58.463  43.066  1.00  0.00    -0.340 OA
BRANCH  14  15
ATOM     15  C   UNL     1      29.964  58.536  42.628  1.00  0.00     0.282 C 
ATOM     16  O   UNL     1      30.316  57.359  41.898  1.00  0.00    -0.341 OA
ATOM     17  C   UNL     1      30.900  58.777  43.849  1.00  0.00     0.202 C 
ATOM     18  C   UNL     1      30.345  56.161  42.680  1.00  0.00     0.178 C 
ATOM     19  C   UNL     1      30.880  57.537  44.766  1.00  0.00     0.179 C 
ATOM     20  C   UNL     1      31.260  56.296  43.938  1.00  0.00     0.177 C 
BRANCH  17  21
ATOM     21  O   UNL     1      32.233  59.049  43.472  1.00  0.00    -0.385 OA
ATOM     22  H   UNL     1      32.447  60.005  43.625  1.00  0.00     0.211 HD
ENDBRANCH  17  21
BRANCH  18  23
ATOM     23  C   UNL     1      28.931  55.592  42.953  1.00  0.00     0.191 C 
BRANCH  23  24
ATOM     24  O   UNL     1      28.585  54.645  41.977  1.00  0.00    -0.394 OA
ATOM     25  H   UNL     1      28.881  55.013  41.103  1.00  0.00     0.210 HD
ENDBRANCH  23  24
ENDBRANCH  18  23
BRANCH  19  26
ATOM     26  O   UNL     1      29.608  57.358  45.335  1.00  0.00    -0.387 OA
ATOM     27  H   UNL     1      29.468  58.108  45.970  1.00  0.00     0.211 HD
ENDBRANCH  19  26
BRANCH  20  28
ATOM     28  O   UNL     1      32.625  56.366  43.583  1.00  0.00    -0.387 OA
ATOM     29  H   UNL     1      32.844  55.650  42.933  1.00  0.00     0.211 HD
ENDBRANCH  20  28
ENDBRANCH  14  15
ENDBRANCH   7  14
BRANCH   3  30
ATOM     30  O   UNL     1      24.003  60.510  40.994  1.00  0.00    -0.342 OA
BRANCH  30  31
ATOM     31  C   UNL     1      23.290  59.816  39.992  1.00  0.00     0.144 C 
ATOM     32  C   UNL     1      23.918  60.145  38.643  1.00  0.00     0.004 C 
ATOM     33  C   UNL     1      21.822  60.276  40.145  1.00  0.00     0.037 C 
ATOM     34  C   UNL     1      23.310  60.857  37.664  1.00  0.00    -0.065 C 
ATOM     35  C   UNL     1      21.130  60.552  38.813  1.00  0.00     0.014 C 
ATOM     36  C   UNL     1      24.128  61.243  36.450  1.00  0.00     0.032 C 
ATOM     37  C   UNL     1      21.976  61.539  37.940  1.00  0.00    -0.008 C 
ATOM     38  C   UNL     1      23.277  61.548  35.216  1.00  0.00     0.011 C 
ATOM     39  C   UNL     1      21.202  61.843  36.594  1.00  0.00     0.005 C 
ATOM     40  C   UNL     1      22.114  62.522  35.526  1.00  0.00     0.026 C 
ATOM     41  C   UNL     1      19.946  62.716  36.843  1.00  0.00     0.005 C 
ATOM     42  C   UNL     1      21.386  63.001  34.202  1.00  0.00     0.074 C 
ATOM     43  C   UNL     1      19.138  62.793  35.569  1.00  0.00     0.011 C 
ATOM     44  C   UNL     1      21.236  62.005  33.037  1.00  0.00     0.037 C 
ATOM     45  C   UNL     1      19.891  63.510  34.413  1.00  0.00     0.004 C 
ATOM     46  C   UNL     1      20.262  62.761  32.107  1.00  0.00     0.012 C 
ATOM     47  C   UNL     1      19.152  63.068  33.092  1.00  0.00     0.031 C 
ATOM     48  C   UNL     1      22.302  62.859  38.708  1.00  0.00     0.016 C 
ATOM     49  C   UNL     1      19.882  65.042  34.686  1.00  0.00     0.015 C 
BRANCH  42  50
ATOM     50  O   UNL     1      22.159  64.071  33.677  1.00  0.00    -0.389 OA
ATOM     51  H   UNL     1      21.827  64.306  32.772  1.00  0.00     0.211 HD
ENDBRANCH  42  50
BRANCH  47  52
ATOM     52  C   UNL     1      17.936  63.850  32.619  1.00  0.00    -0.009 A 
ATOM     53  C   UNL     1      17.684  63.961  31.237  1.00  0.00     0.203 A 
ATOM     54  C   UNL     1      17.037  64.479  33.496  1.00  0.00     0.015 A 
ATOM     55  O   UNL     1      16.628  64.626  30.785  1.00  0.00    -0.431 OA
ATOM     56  C   UNL     1      15.937  65.166  32.979  1.00  0.00     0.094 A 
ATOM     57  C   UNL     1      15.757  65.221  31.595  1.00  0.00     0.335 A 
ATOM     58  O   UNL     1      14.806  65.815  31.123  1.00  0.00    -0.246 OA
ENDBRANCH  47  52
ENDBRANCH  30  31
ENDBRANCH   3  30
TORSDOF 14
ENDMDL
MODEL 2
REMARK VINA RESULT:   -12.214      1.082      2.075
REMARK INTER + INTRA:         -21.702
REMARK INTER:                 -20.235
REMARK INTRA:                  -1.467
REMARK UNBOUND:                -1.634
REMARK SMILES CC(=O)O[C@H]1[C@@H](O)[C@H](O[C@@H]2C=C3CC[C@@H]4[C@H](CC[C@]5(C)[C@@H](c6ccc(=O)oc6)CC[C@]45O)[C@@]3(C)CC2)O[C@@H](C)[C@@H]1O[C@@H]1O[C@H](CO)[C@@H](O)[C@H](O)[C@H]1O
REMARK SMILES IDX 5 1 6 2 8 3 37 4 38 5 39 6 40 7 4 8 2 9 3 10 1 11 7 12 41 14
REMARK SMILES IDX 42 15 43 16 51 17 44 18 49 19 47 20 52 21 45 23 46 24 50 26
REMARK SMILES IDX 48 28 9 30 10 31 11 32 36 33 12 34 35 35 13 36 33 37 14 38
REMARK SMILES IDX 16 39 15 40 17 41 31 42 18 43 30 44 19 45 29 46 21 47 34 48
REMARK SMILES IDX 20 49 32 50 22 52 28 53 23 54 27 55 24 56 25 57 26 58
REMARK H PARENT 7 13 52 22 46 25 50 27 48 29 32 51
ROOT
ATOM      1  C   UNL     1      26.622  59.923  43.341  1.00  0.00     0.242 C 
ATOM      2  C   UNL     1      25.771  60.824  42.422  1.00  0.00     0.214 C 
ATOM      3  C   UNL     1      25.263  60.068  41.163  1.00  0.00     0.283 C 
ATOM      4  O   UNL     1      25.111  58.687  41.420  1.00  0.00    -0.344 OA
ATOM      5  C   UNL     1      26.320  58.019  41.787  1.00  0.00     0.151 C 
ATOM      6  C   UNL     1      26.896  57.270  40.587  1.00  0.00     0.042 C 
ATOM      7  C   UNL     1      27.388  58.913  42.496  1.00  0.00     0.194 C 
ENDROOT
BRANCH   1   8
ATOM      8  O   UNL     1      27.475  60.697  44.113  1.00  0.00    -0.457 OA
BRANCH   8   9
ATOM      9  C   UNL     1      27.421  60.829  45.463  1.00  0.00     0.303 C 
ATOM     10  O   UNL     1      28.319  61.383  46.082  1.00  0.00    -0.253 OA
ATOM     11  C   UNL     1      26.244  60.278  46.199  1.00  0.00     0.139 C 
ENDBRANCH   8   9
ENDBRANCH   1   8
BRANCH   2  12
ATOM     12  O   UNL     1      26.454  61.992  42.032  1.00  0.00    -0.384 OA
ATOM     13  H   UNL     1      27.404  61.892  42.296  1.00  0.00     0.211 HD
ENDBRANCH   2  12
BRANCH   7  14
ATOM     14  O   UNL     1      28.164  58.110  43.373  1.00  0.00    -0.340 OA
BRANCH  14  15
ATOM     15  C   UNL     1      27.424  57.388  44.341  1.00  0.00     0.282 C 
ATOM     16  O   UNL     1      28.075  57.444  45.611  1.00  0.00    -0.341 OA
ATOM     17  C   UNL     1      27.205  55.926  43.851  1.00  0.00     0.202 C 
ATOM     18  C   UNL     1      29.334  56.764  45.664  1.00  0.00     0.178 C 
ATOM     19  C   UNL     1      28.560  55.191  43.804  1.00  0.00     0.179 C 
ATOM     20  C   UNL     1      29.226  55.280  45.189  1.00  0.00     0.177 C 
BRANCH  17  21
ATOM     21  O   UNL     1      26.316  55.201  44.673  1.00  0.00    -0.385 OA
ATOM     22  H   UNL     1      26.170  54.291  44.306  1.00  0.00     0.211 HD
ENDBRANCH  17  21
BRANCH  18  23
ATOM     23  C   UNL     1      30.481  57.580  45.018  1.00  0.00     0.191 C 
BRANCH  23  24
ATOM     24  O   UNL     1      30.322  58.947  45.286  1.00  0.00    -0.394 OA
ATOM     25  H   UNL     1      30.210  59.401  44.410  1.00  0.00     0.210 HD
ENDBRANCH  23  24
ENDBRANCH  18  23
BRANCH  19  26
ATOM     26  O   UNL     1      29.401  55.759  42.833  1.00  0.00    -0.387 OA
ATOM     27  H   UNL     1      29.002  55.552  41.948  1.00  0.00     0.211 HD
ENDBRANCH  19  26
BRANCH  20  28
ATOM     28  O   UNL     1      28.505  54.490  46.110  1.00  0.00    -0.387 OA
ATOM     29  H   UNL     1      27.676  54.959  46.385  1.00  0.00     0.211 HD
ENDBRANCH  20  28
ENDBRANCH  14  15
ENDBRANCH   7  14
BRANCH   3  30
ATOM     30  O   UNL     1      23.977  60.565  40.877  1.00  0.00    -0.342 OA
BRANCH  30  31
ATOM     31  C   UNL     1      23.222  59.874  39.903  1.00  0.00     0.144 C 
ATOM     32  C   UNL     1      23.832  60.161  38.536  1.00  0.00     0.004 C 
ATOM     33  C   UNL     1      21.772  60.380  40.078  1.00  0.00     0.037 C 
ATOM     34  C   UNL     1      23.224  60.873  37.556  1.00  0.00    -0.065 C 
ATOM     35  C   UNL     1      21.061  60.653  38.756  1.00  0.00     0.014 C 
ATOM     36  C   UNL     1      24.027  61.214  36.319  1.00  0.00     0.032 C 
ATOM     37  C   UNL     1      21.916  61.599  37.847  1.00  0.00    -0.008 C 
ATOM     38  C   UNL     1      23.159  61.521  35.097  1.00  0.00     0.011 C 
ATOM     39  C   UNL     1      21.123  61.901  36.512  1.00  0.00     0.005 C 
ATOM     40  C   UNL     1      22.031  62.534  35.414  1.00  0.00     0.026 C 
ATOM     41  C   UNL     1      19.899  62.816  36.771  1.00  0.00     0.005 C 
ATOM     42  C   UNL     1      21.290  63.011  34.096  1.00  0.00     0.074 C 
ATOM     43  C   UNL     1      19.066  62.893  35.512  1.00  0.00     0.011 C 
ATOM     44  C   UNL     1      21.087  62.000  32.953  1.00  0.00     0.037 C 
ATOM     45  C   UNL     1      19.816  63.568  34.328  1.00  0.00     0.004 C 
ATOM     46  C   UNL     1      20.116  62.767  32.029  1.00  0.00     0.012 C 
ATOM     47  C   UNL     1      19.036  63.124  33.032  1.00  0.00     0.031 C 
ATOM     48  C   UNL     1      22.296  62.922  38.584  1.00  0.00     0.016 C 
ATOM     49  C   UNL     1      19.857  65.104  34.574  1.00  0.00     0.015 C 
BRANCH  42  50
ATOM     50  O   UNL     1      22.083  64.049  33.536  1.00  0.00    -0.389 OA
ATOM     51  H   UNL     1      22.603  64.492  34.255  1.00  0.00     0.211 HD
ENDBRANCH  42  50
BRANCH  47  52
ATOM     52  C   UNL     1      17.834  63.933  32.569  1.00  0.00    -0.009 A 
ATOM     53  C   UNL     1      17.536  63.999  31.194  1.00  0.00     0.203 A 
ATOM     54  C   UNL     1      16.992  64.630  33.450  1.00  0.00     0.015 A 
ATOM     55  O   UNL     1      16.490  64.685  30.752  1.00  0.00    -0.431 OA
ATOM     56  C   UNL     1      15.900  65.339  32.944  1.00  0.00     0.094 A 
ATOM     57  C   UNL     1      15.672  65.346  31.566  1.00  0.00     0.335 A 
ATOM     58  O   UNL     1      14.727  65.956  31.103  1.00  0.00    -0.246 OA
ENDBRANCH  47  52
ENDBRANCH  30  31
ENDBRANCH   3  30
TORSDOF 14
ENDMDL
MODEL 3
REMARK VINA RESULT:   -12.038      2.090      4.176
REMARK INTER + INTRA:         -21.413
REMARK INTER:                 -19.722
REMARK INTRA:                  -1.691
REMARK UNBOUND:                -1.634
REMARK SMILES CC(=O)O[C@H]1[C@@H](O)[C@H](O[C@@H]2C=C3CC[C@@H]4[C@H](CC[C@]5(C)[C@@H](c6ccc(=O)oc6)CC[C@]45O)[C@@]3(C)CC2)O[C@@H](C)[C@@H]1O[C@@H]1O[C@H](CO)[C@@H](O)[C@H](O)[C@H]1O
REMARK SMILES IDX 5 1 6 2 8 3 37 4 38 5 39 6 40 7 4 8 2 9 3 10 1 11 7 12 41 14
REMARK SMILES IDX 42 15 43 16 51 17 44 18 49 19 47 20 52 21 45 23 46 24 50 26
REMARK SMILES IDX 48 28 9 30 10 31 11 32 36 33 12 34 35 35 13 36 33 37 14 38
REMARK SMILES IDX 16 39 15 40 17 41 31 42 18 43 30 44 19 45 29 46 21 47 34 48
REMARK SMILES IDX 20 49 32 50 22 52 28 53 23 54 27 55 24 56 25 57 26 58
REMARK H PARENT 7 13 52 22 46 25 50 27 48 29 32 51
ROOT
ATOM      1  C   UNL     1      26.833  57.941  41.971  1.00  0.00     0.242 C 
ATOM      2  C   UNL     1      26.105  58.186  40.633  1.00  0.00     0.214 C 
ATOM      3  C   UNL     1      25.441  59.590  40.574  1.00  0.00     0.283 C 
ATOM      4  O   UNL     1      26.136  60.522  41.377  1.00  0.00    -0.344 OA
ATOM      5  C   UNL     1      26.173  60.190  42.767  1.00  0.00     0.151 C 
ATOM      6  C   UNL     1      25.127  60.999  43.531  1.00  0.00     0.042 C 
ATOM      7  C   UNL     1      26.097  58.664  43.092  1.00  0.00     0.194 C 
ENDROOT
BRANCH   1   8
ATOM      8  O   UNL     1      26.933  56.580  42.218  1.00  0.00    -0.457 OA
BRANCH   8   9
ATOM      9  C   UNL     1      28.062  55.835  42.103  1.00  0.00     0.303 C 
ATOM     10  O   UNL     1      28.842  56.004  41.175  1.00  0.00    -0.253 OA
ATOM     11  C   UNL     1      28.346  54.786  43.128  1.00  0.00     0.139 C 
ENDBRANCH   8   9
ENDBRANCH   1   8
BRANCH   2  12
ATOM     12  O   UNL     1      25.147  57.194  40.352  1.00  0.00    -0.384 OA
ATOM     13  H   UNL     1      24.353  57.366  40.921  1.00  0.00     0.211 HD
ENDBRANCH   2  12
BRANCH   7  14
ATOM     14  O   UNL     1      26.789  58.408  44.305  1.00  0.00    -0.340 OA
BRANCH  14  15
ATOM     15  C   UNL     1      26.036  57.730  45.295  1.00  0.00     0.282 C 
ATOM     16  O   UNL     1      25.502  58.658  46.239  1.00  0.00    -0.341 OA
ATOM     17  C   UNL     1      26.921  56.641  45.970  1.00  0.00     0.202 C 
ATOM     18  C   UNL     1      26.484  59.319  47.045  1.00  0.00     0.178 C 
ATOM     19  C   UNL     1      28.051  57.319  46.770  1.00  0.00     0.179 C 
ATOM     20  C   UNL     1      27.430  58.310  47.770  1.00  0.00     0.177 C 
BRANCH  17  21
ATOM     21  O   UNL     1      26.187  55.797  46.833  1.00  0.00    -0.385 OA
ATOM     22  H   UNL     1      25.910  54.972  46.357  1.00  0.00     0.211 HD
ENDBRANCH  17  21
BRANCH  18  23
ATOM     23  C   UNL     1      27.199  60.467  46.292  1.00  0.00     0.191 C 
BRANCH  23  24
ATOM     24  O   UNL     1      28.301  60.926  47.027  1.00  0.00    -0.394 OA
ATOM     25  H   UNL     1      28.761  60.123  47.387  1.00  0.00     0.210 HD
ENDBRANCH  23  24
ENDBRANCH  18  23
BRANCH  19  26
ATOM     26  O   UNL     1      28.932  57.996  45.912  1.00  0.00    -0.387 OA
ATOM     27  H   UNL     1      28.375  58.504  45.268  1.00  0.00     0.211 HD
ENDBRANCH  19  26
BRANCH  20  28
ATOM     28  O   UNL     1      26.752  57.597  48.783  1.00  0.00    -0.387 OA
ATOM     29  H   UNL     1      27.179  57.768  49.662  1.00  0.00     0.211 HD
ENDBRANCH  20  28
ENDBRANCH  14  15
ENDBRANCH   7  14
BRANCH   3  30
ATOM     30  O   UNL     1      25.555  60.043  39.246  1.00  0.00    -0.342 OA
BRANCH  30  31
ATOM     31  C   UNL     1      25.141  61.367  38.980  1.00  0.00     0.144 C 
ATOM     32  C   UNL     1      23.674  61.496  39.375  1.00  0.00     0.004 C 
ATOM     33  C   UNL     1      25.421  61.586  37.476  1.00  0.00     0.037 C 
ATOM     34  C   UNL     1      22.657  61.697  38.503  1.00  0.00    -0.065 C 
ATOM     35  C   UNL     1      24.300  62.325  36.750  1.00  0.00     0.014 C 
ATOM     36  C   UNL     1      21.241  61.635  39.033  1.00  0.00     0.032 C 
ATOM     37  C   UNL     1      22.920  61.631  37.004  1.00  0.00    -0.008 C 
ATOM     38  C   UNL     1      20.230  62.376  38.155  1.00  0.00     0.011 C 
ATOM     39  C   UNL     1      21.794  62.392  36.194  1.00  0.00     0.005 C 
ATOM     40  C   UNL     1      20.359  61.996  36.659  1.00  0.00     0.026 C 
ATOM     41  C   UNL     1      21.933  62.159  34.668  1.00  0.00     0.005 C 
ATOM     42  C   UNL     1      19.166  62.593  35.802  1.00  0.00     0.074 C 
ATOM     43  C   UNL     1      20.975  63.072  33.940  1.00  0.00     0.011 C 
ATOM     44  C   UNL     1      18.606  63.977  36.176  1.00  0.00     0.037 C 
ATOM     45  C   UNL     1      19.483  62.759  34.249  1.00  0.00     0.004 C 
ATOM     46  C   UNL     1      17.698  64.282  34.964  1.00  0.00     0.012 C 
ATOM     47  C   UNL     1      18.688  64.058  33.839  1.00  0.00     0.031 C 
ATOM     48  C   UNL     1      22.954  60.116  36.625  1.00  0.00     0.016 C 
ATOM     49  C   UNL     1      19.073  61.470  33.479  1.00  0.00     0.015 C 
BRANCH  42  50
ATOM     50  O   UNL     1      18.072  61.699  35.948  1.00  0.00    -0.389 OA
ATOM     51  H   UNL     1      17.684  61.504  35.056  1.00  0.00     0.211 HD
ENDBRANCH  42  50
BRANCH  47  52
ATOM     52  C   UNL     1      18.225  64.227  32.400  1.00  0.00    -0.009 A 
ATOM     53  C   UNL     1      19.140  64.002  31.352  1.00  0.00     0.203 A 
ATOM     54  C   UNL     1      16.918  64.600  32.052  1.00  0.00     0.015 A 
ATOM     55  O   UNL     1      18.772  64.128  30.083  1.00  0.00    -0.431 OA
ATOM     56  C   UNL     1      16.570  64.719  30.704  1.00  0.00     0.094 A 
ATOM     57  C   UNL     1      17.537  64.471  29.727  1.00  0.00     0.335 A 
ATOM     58  O   UNL     1      17.257  64.568  28.547  1.00  0.00    -0.246 OA
ENDBRANCH  47  52
ENDBRANCH  30  31
ENDBRANCH   3  30
TORSDOF 14
ENDMDL
MODEL 4
REMARK VINA RESULT:   -11.490      1.744      3.373
REMARK INTER + INTRA:         -20.512
REMARK INTER:                 -18.909
REMARK INTRA:                  -1.603
REMARK UNBOUND:                -1.634
REMARK SMILES CC(=O)O[C@H]1[C@@H](O)[C@H](O[C@@H]2C=C3CC[C@@H]4[C@H](CC[C@]5(C)[C@@H](c6ccc(=O)oc6)CC[C@]45O)[C@@]3(C)CC2)O[C@@H](C)[C@@H]1O[C@@H]1O[C@H](CO)[C@@H](O)[C@H](O)[C@H]1O
REMARK SMILES IDX 5 1 6 2 8 3 37 4 38 5 39 6 40 7 4 8 2 9 3 10 1 11 7 12 41 14
REMARK SMILES IDX 42 15 43 16 51 17 44 18 49 19 47 20 52 21 45 23 46 24 50 26
REMARK SMILES IDX 48 28 9 30 10 31 11 32 36 33 12 34 35 35 13 36 33 37 14 38
REMARK SMILES IDX 16 39 15 40 17 41 31 42 18 43 30 44 19 45 29 46 21 47 34 48
REMARK SMILES IDX 20 49 32 50 22 52 28 53 23 54 27 55 24 56 25 57 26 58
REMARK H PARENT 7 13 52 22 46 25 50 27 48 29 32 51
ROOT
ATOM      1  C   UNL     1      27.137  57.965  41.724  1.00  0.00     0.242 C 
ATOM      2  C   UNL     1      25.980  58.193  40.728  1.00  0.00     0.214 C 
ATOM      3  C   UNL     1      25.586  59.692  40.617  1.00  0.00     0.283 C 
ATOM      4  O   UNL     1      26.687  60.534  40.888  1.00  0.00    -0.344 OA
ATOM      5  C   UNL     1      27.228  60.392  42.204  1.00  0.00     0.151 C 
ATOM      6  C   UNL     1      26.726  61.517  43.107  1.00  0.00     0.042 C 
ATOM      7  C   UNL     1      27.044  58.984  42.854  1.00  0.00     0.194 C 
ENDROOT
BRANCH   1   8
ATOM      8  O   UNL     1      27.106  56.664  42.203  1.00  0.00    -0.457 OA
BRANCH   8   9
ATOM      9  C   UNL     1      28.116  55.762  42.110  1.00  0.00     0.303 C 
ATOM     10  O   UNL     1      28.924  55.806  41.193  1.00  0.00    -0.253 OA
ATOM     11  C   UNL     1      28.232  54.694  43.148  1.00  0.00     0.139 C 
ENDBRANCH   8   9
ENDBRANCH   1   8
BRANCH   2  12
ATOM     12  O   UNL     1      24.844  57.423  41.038  1.00  0.00    -0.384 OA
ATOM     13  H   UNL     1      24.781  57.355  42.026  1.00  0.00     0.211 HD
ENDBRANCH   2  12
BRANCH   7  14
ATOM     14  O   UNL     1      28.115  58.738  43.752  1.00  0.00    -0.340 OA
BRANCH  14  15
ATOM     15  C   UNL     1      29.410  58.936  43.213  1.00  0.00     0.282 C 
ATOM     16  O   UNL     1      30.257  57.830  43.528  1.00  0.00    -0.341 OA
ATOM     17  C   UNL     1      29.988  60.289  43.724  1.00  0.00     0.202 C 
ATOM     18  C   UNL     1      30.557  57.689  44.921  1.00  0.00     0.178 C 
ATOM     19  C   UNL     1      30.233  60.203  45.243  1.00  0.00     0.179 C 
ATOM     20  C   UNL     1      31.145  58.998  45.536  1.00  0.00     0.177 C 
BRANCH  17  21
ATOM     21  O   UNL     1      31.193  60.646  43.082  1.00  0.00    -0.385 OA
ATOM     22  H   UNL     1      31.713  59.835  42.845  1.00  0.00     0.211 HD
ENDBRANCH  17  21
BRANCH  18  23
ATOM     23  C   UNL     1      29.395  57.051  45.720  1.00  0.00     0.191 C 
BRANCH  23  24
ATOM     24  O   UNL     1      29.475  57.407  47.074  1.00  0.00    -0.394 OA
ATOM     25  H   UNL     1      30.425  57.298  47.344  1.00  0.00     0.210 HD
ENDBRANCH  23  24
ENDBRANCH  18  23
BRANCH  19  26
ATOM     26  O   UNL     1      29.020  60.062  45.937  1.00  0.00    -0.387 OA
ATOM     27  H   UNL     1      28.317  60.484  45.378  1.00  0.00     0.211 HD
ENDBRANCH  19  26
BRANCH  20  28
ATOM     28  O   UNL     1      32.445  59.262  45.052  1.00  0.00    -0.387 OA
ATOM     29  H   UNL     1      32.415  59.441  44.077  1.00  0.00     0.211 HD
ENDBRANCH  20  28
ENDBRANCH  14  15
ENDBRANCH   7  14
BRANCH   3  30
ATOM     30  O   UNL     1      25.226  59.923  39.276  1.00  0.00    -0.342 OA
BRANCH  30  31
ATOM     31  C   UNL     1      24.933  61.256  38.910  1.00  0.00     0.144 C 
ATOM     32  C   UNL     1      23.492  61.554  39.304  1.00  0.00     0.004 C 
ATOM     33  C   UNL     1      25.211  61.331  37.391  1.00  0.00     0.037 C 
ATOM     34  C   UNL     1      22.485  61.783  38.426  1.00  0.00    -0.065 C 
ATOM     35  C   UNL     1      24.155  62.114  36.618  1.00  0.00     0.014 C 
ATOM     36  C   UNL     1      21.077  61.897  38.970  1.00  0.00     0.032 C 
ATOM     37  C   UNL     1      22.719  61.576  36.935  1.00  0.00    -0.008 C 
ATOM     38  C   UNL     1      20.128  62.659  38.044  1.00  0.00     0.011 C 
ATOM     39  C   UNL     1      21.657  62.375  36.076  1.00  0.00     0.005 C 
ATOM     40  C   UNL     1      20.199  62.154  36.581  1.00  0.00     0.026 C 
ATOM     41  C   UNL     1      21.752  62.012  34.572  1.00  0.00     0.005 C 
ATOM     42  C   UNL     1      19.055  62.793  35.689  1.00  0.00     0.074 C 
ATOM     43  C   UNL     1      20.873  62.953  33.782  1.00  0.00     0.011 C 
ATOM     44  C   UNL     1      18.633  64.249  35.957  1.00  0.00     0.037 C 
ATOM     45  C   UNL     1      19.363  62.808  34.126  1.00  0.00     0.004 C 
ATOM     46  C   UNL     1      17.740  64.544  34.731  1.00  0.00     0.012 C 
ATOM     47  C   UNL     1      18.689  64.141  33.620  1.00  0.00     0.031 C 
ATOM     48  C   UNL     1      22.605  60.040  36.677  1.00  0.00     0.016 C 
ATOM     49  C   UNL     1      18.823  61.508  33.462  1.00  0.00     0.015 C 
BRANCH  42  50
ATOM     50  O   UNL     1      17.884  62.021  35.912  1.00  0.00    -0.389 OA
ATOM     51  H   UNL     1      17.522  62.224  36.813  1.00  0.00     0.211 HD
ENDBRANCH  42  50
BRANCH  47  52
ATOM     52  C   UNL     1      18.223  64.240  32.176  1.00  0.00    -0.009 A 
ATOM     53  C   UNL     1      19.152  64.036  31.137  1.00  0.00     0.203 A 
ATOM     54  C   UNL     1      16.897  64.530  31.813  1.00  0.00     0.015 A 
ATOM     55  O   UNL     1      18.783  64.103  29.864  1.00  0.00    -0.431 OA
ATOM     56  C   UNL     1      16.549  64.590  30.462  1.00  0.00     0.094 A 
ATOM     57  C   UNL     1      17.532  64.366  29.495  1.00  0.00     0.335 A 
ATOM     58  O   UNL     1      17.252  64.413  28.313  1.00  0.00    -0.246 OA
ENDBRANCH  47  52
ENDBRANCH  30  31
ENDBRANCH   3  30
TORSDOF 14
ENDMDL
MODEL 5
REMARK VINA RESULT:   -10.938      3.525     16.346
REMARK INTER + INTRA:         -19.606
REMARK INTER:                 -17.729
REMARK INTRA:                  -1.876
REMARK UNBOUND:                -1.634
REMARK SMILES CC(=O)O[C@H]1[C@@H](O)[C@H](O[C@@H]2C=C3CC[C@@H]4[C@H](CC[C@]5(C)[C@@H](c6ccc(=O)oc6)CC[C@]45O)[C@@]3(C)CC2)O[C@@H](C)[C@@H]1O[C@@H]1O[C@H](CO)[C@@H](O)[C@H](O)[C@H]1O
REMARK SMILES IDX 5 1 6 2 8 3 37 4 38 5 39 6 40 7 4 8 2 9 3 10 1 11 7 12 41 14
REMARK SMILES IDX 42 15 43 16 51 17 44 18 49 19 47 20 52 21 45 23 46 24 50 26
REMARK SMILES IDX 48 28 9 30 10 31 11 32 36 33 12 34 35 35 13 36 33 37 14 38
REMARK SMILES IDX 16 39 15 40 17 41 31 42 18 43 30 44 19 45 29 46 21 47 34 48
REMARK SMILES IDX 20 49 32 50 22 52 28 53 23 54 27 55 24 56 25 57 26 58
REMARK H PARENT 7 13 52 22 46 25 50 27 48 29 32 51
ROOT
ATOM      1  C   UNL     1      14.150  65.233  30.296  1.00  0.00     0.242 C 
ATOM      2  C   UNL     1      14.689  65.181  31.742  1.00  0.00     0.214 C 
ATOM      3  C   UNL     1      16.082  64.498  31.826  1.00  0.00     0.283 C 
ATOM      4  O   UNL     1      16.809  64.663  30.625  1.00  0.00    -0.344 OA
ATOM      5  C   UNL     1      16.185  64.087  29.475  1.00  0.00     0.151 C 
ATOM      6  C   UNL     1      16.825  62.740  29.144  1.00  0.00     0.042 C 
ATOM      7  C   UNL     1      14.626  64.004  29.531  1.00  0.00     0.194 C 
ENDROOT
BRANCH   1   8
ATOM      8  O   UNL     1      12.767  65.327  30.306  1.00  0.00    -0.457 OA
BRANCH   8   9
ATOM      9  C   UNL     1      12.046  66.434  29.991  1.00  0.00     0.303 C 
ATOM     10  O   UNL     1      11.927  66.805  28.832  1.00  0.00    -0.253 OA
ATOM     11  C   UNL     1      11.395  67.211  31.088  1.00  0.00     0.139 C 
ENDBRANCH   8   9
ENDBRANCH   1   8
BRANCH   2  12
ATOM     12  O   UNL     1      13.795  64.550  32.627  1.00  0.00    -0.384 OA
ATOM     13  H   UNL     1      13.996  63.579  32.623  1.00  0.00     0.211 HD
ENDBRANCH   2  12
BRANCH   7  14
ATOM     14  O   UNL     1      14.104  64.082  28.213  1.00  0.00    -0.340 OA
BRANCH  14  15
ATOM     15  C   UNL     1      14.183  62.883  27.463  1.00  0.00     0.282 C 
ATOM     16  O   UNL     1      14.239  63.171  26.066  1.00  0.00    -0.341 OA
ATOM     17  C   UNL     1      12.986  61.956  27.829  1.00  0.00     0.202 C 
ATOM     18  C   UNL     1      13.046  63.753  25.530  1.00  0.00     0.178 C 
ATOM     19  C   UNL     1      11.671  62.601  27.350  1.00  0.00     0.179 C 
ATOM     20  C   UNL     1      11.778  62.897  25.843  1.00  0.00     0.177 C 
BRANCH  17  21
ATOM     21  O   UNL     1      13.100  60.667  27.265  1.00  0.00    -0.385 OA
ATOM     22  H   UNL     1      12.692  60.649  26.361  1.00  0.00     0.211 HD
ENDBRANCH  17  21
BRANCH  18  23
ATOM     23  C   UNL     1      12.919  65.261  25.855  1.00  0.00     0.191 C 
BRANCH  23  24
ATOM     24  O   UNL     1      11.570  65.633  25.945  1.00  0.00    -0.394 OA
ATOM     25  H   UNL     1      11.168  65.084  26.669  1.00  0.00     0.210 HD
ENDBRANCH  23  24
ENDBRANCH  18  23
BRANCH  19  26
ATOM     26  O   UNL     1      11.414  63.790  28.052  1.00  0.00    -0.387 OA
ATOM     27  H   UNL     1      11.702  64.539  27.468  1.00  0.00     0.211 HD
ENDBRANCH  19  26
BRANCH  20  28
ATOM     28  O   UNL     1      11.779  61.682  25.123  1.00  0.00    -0.387 OA
ATOM     29  H   UNL     1      11.698  60.917  25.748  1.00  0.00     0.211 HD
ENDBRANCH  20  28
ENDBRANCH  14  15
ENDBRANCH   7  14
BRANCH   3  30
ATOM     30  O   UNL     1      16.809  65.169  32.827  1.00  0.00    -0.342 OA
BRANCH  30  31
ATOM     31  C   UNL     1      18.218  65.096  32.758  1.00  0.00     0.144 C 
ATOM     32  C   UNL     1      18.613  63.633  32.601  1.00  0.00     0.004 C 
ATOM     33  C   UNL     1      18.724  65.762  34.057  1.00  0.00     0.037 C 
ATOM     34  C   UNL     1      19.276  62.910  33.537  1.00  0.00    -0.065 C 
ATOM     35  C   UNL     1      19.879  65.012  34.714  1.00  0.00     0.014 C 
ATOM     36  C   UNL     1      19.446  61.425  33.301  1.00  0.00     0.032 C 
ATOM     37  C   UNL     1      19.518  63.502  34.919  1.00  0.00    -0.008 C 
ATOM     38  C   UNL     1      20.612  60.816  34.082  1.00  0.00     0.011 C 
ATOM     39  C   UNL     1      20.716  62.771  35.650  1.00  0.00     0.005 C 
ATOM     40  C   UNL     1      20.595  61.218  35.577  1.00  0.00     0.026 C 
ATOM     41  C   UNL     1      20.840  63.218  37.129  1.00  0.00     0.005 C 
ATOM     42  C   UNL     1      21.668  60.402  36.412  1.00  0.00     0.074 C 
ATOM     43  C   UNL     1      22.118  62.657  37.708  1.00  0.00     0.011 C 
ATOM     44  C   UNL     1      23.012  60.051  35.748  1.00  0.00     0.037 C 
ATOM     45  C   UNL     1      22.128  61.103  37.767  1.00  0.00     0.004 C 
ATOM     46  C   UNL     1      23.828  59.534  36.953  1.00  0.00     0.012 C 
ATOM     47  C   UNL     1      23.646  60.698  37.906  1.00  0.00     0.031 C 
ATOM     48  C   UNL     1      18.187  63.327  35.717  1.00  0.00     0.016 C 
ATOM     49  C   UNL     1      21.217  60.643  38.942  1.00  0.00     0.015 C 
BRANCH  42  50
ATOM     50  O   UNL     1      21.074  59.152  36.728  1.00  0.00    -0.389 OA
ATOM     51  H   UNL     1      20.476  59.259  37.513  1.00  0.00     0.211 HD
ENDBRANCH  42  50
BRANCH  47  52
ATOM     52  C   UNL     1      24.277  60.631  39.288  1.00  0.00    -0.009 A 
ATOM     53  C   UNL     1      25.026  61.728  39.757  1.00  0.00     0.203 A 
ATOM     54  C   UNL     1      24.154  59.519  40.136  1.00  0.00     0.015 A 
ATOM     55  O   UNL     1      25.584  61.713  40.961  1.00  0.00    -0.431 OA
ATOM     56  C   UNL     1      24.754  59.544  41.397  1.00  0.00     0.094 A 
ATOM     57  C   UNL     1      25.473  60.676  41.787  1.00  0.00     0.335 A 
ATOM     58  O   UNL     1      26.004  60.720  42.880  1.00  0.00    -0.246 OA
ENDBRANCH  47  52
ENDBRANCH  30  31
ENDBRANCH   3  30
TORSDOF 14
ENDMDL
MODEL 6
REMARK VINA RESULT:   -10.791      4.161      7.045
REMARK INTER + INTRA:         -19.363
REMARK INTER:                 -17.482
REMARK INTRA:                  -1.881
REMARK UNBOUND:                -1.634
REMARK SMILES CC(=O)O[C@H]1[C@@H](O)[C@H](O[C@@H]2C=C3CC[C@@H]4[C@H](CC[C@]5(C)[C@@H](c6ccc(=O)oc6)CC[C@]45O)[C@@]3(C)CC2)O[C@@H](C)[C@@H]1O[C@@H]1O[C@H](CO)[C@@H](O)[C@H](O)[C@H]1O
REMARK SMILES IDX 5 1 6 2 8 3 37 4 38 5 39 6 40 7 4 8 2 9 3 10 1 11 7 12 41 14
REMARK SMILES IDX 42 15 43 16 51 17 44 18 49 19 47 20 52 21 45 23 46 24 50 26
REMARK SMILES IDX 48 28 9 30 10 31 11 32 36 33 12 34 35 35 13 36 33 37 14 38
REMARK SMILES IDX 16 39 15 40 17 41 31 42 18 43 30 44 19 45 29 46 21 47 34 48
REMARK SMILES IDX 20 49 32 50 22 52 28 53 23 54 27 55 24 56 25 57 26 58
REMARK H PARENT 7 13 52 22 46 25 50 27 48 29 32 51
ROOT
ATOM      1  C   UNL     1      28.081  53.862  46.582  1.00  0.00     0.242 C 
ATOM      2  C   UNL     1      27.848  55.357  46.280  1.00  0.00     0.214 C 
ATOM      3  C   UNL     1      28.513  55.799  44.947  1.00  0.00     0.283 C 
ATOM      4  O   UNL     1      28.598  54.723  44.035  1.00  0.00    -0.344 OA
ATOM      5  C   UNL     1      29.387  53.623  44.492  1.00  0.00     0.151 C 
ATOM      6  C   UNL     1      30.778  53.671  43.864  1.00  0.00     0.042 C 
ATOM      7  C   UNL     1      29.442  53.440  46.043  1.00  0.00     0.194 C 
ENDROOT
BRANCH   1   8
ATOM      8  O   UNL     1      27.975  53.627  47.945  1.00  0.00    -0.457 OA
BRANCH   8   9
ATOM      9  C   UNL     1      27.078  52.798  48.538  1.00  0.00     0.303 C 
ATOM     10  O   UNL     1      27.043  51.605  48.268  1.00  0.00    -0.253 OA
ATOM     11  C   UNL     1      26.117  53.361  49.532  1.00  0.00     0.139 C 
ENDBRANCH   8   9
ENDBRANCH   1   8
BRANCH   2  12
ATOM     12  O   UNL     1      28.281  56.192  47.328  1.00  0.00    -0.384 OA
ATOM     13  H   UNL     1      28.574  55.613  48.078  1.00  0.00     0.211 HD
ENDBRANCH   2  12
BRANCH   7  14
ATOM     14  O   UNL     1      29.625  52.065  46.347  1.00  0.00    -0.340 OA
BRANCH  14  15
ATOM     15  C   UNL     1      30.770  51.768  47.126  1.00  0.00     0.282 C 
ATOM     16  O   UNL     1      31.800  51.212  46.307  1.00  0.00    -0.341 OA
ATOM     17  C   UNL     1      30.374  50.827  48.301  1.00  0.00     0.202 C 
ATOM     18  C   UNL     1      31.496  49.924  45.762  1.00  0.00     0.178 C 
ATOM     19  C   UNL     1      29.947  49.455  47.741  1.00  0.00     0.179 C 
ATOM     20  C   UNL     1      31.083  48.897  46.864  1.00  0.00     0.177 C 
BRANCH  17  21
ATOM     21  O   UNL     1      31.422  50.639  49.228  1.00  0.00    -0.385 OA
ATOM     22  H   UNL     1      32.174  51.255  49.029  1.00  0.00     0.211 HD
ENDBRANCH  17  21
BRANCH  18  23
ATOM     23  C   UNL     1      30.543  50.000  44.544  1.00  0.00     0.191 C 
BRANCH  23  24
ATOM     24  O   UNL     1      31.238  50.424  43.402  1.00  0.00    -0.394 OA
ATOM     25  H   UNL     1      31.891  49.709  43.182  1.00  0.00     0.210 HD
ENDBRANCH  23  24
ENDBRANCH  18  23
BRANCH  19  26
ATOM     26  O   UNL     1      28.772  49.571  46.981  1.00  0.00    -0.387 OA
ATOM     27  H   UNL     1      28.605  50.541  46.854  1.00  0.00     0.211 HD
ENDBRANCH  19  26
BRANCH  20  28
ATOM     28  O   UNL     1      32.179  48.542  47.681  1.00  0.00    -0.387 OA
ATOM     29  H   UNL     1      32.006  48.817  48.618  1.00  0.00     0.211 HD
ENDBRANCH  20  28
ENDBRANCH  14  15
ENDBRANCH   7  14
BRANCH   3  30
ATOM     30  O   UNL     1      27.662  56.755  44.361  1.00  0.00    -0.342 OA
BRANCH  30  31
ATOM     31  C   UNL     1      27.977  57.177  43.050  1.00  0.00     0.144 C 
ATOM     32  C   UNL     1      27.894  58.698  43.006  1.00  0.00     0.004 C 
ATOM     33  C   UNL     1      26.962  56.454  42.135  1.00  0.00     0.037 C 
ATOM     34  C   UNL     1      26.968  59.399  42.308  1.00  0.00    -0.065 C 
ATOM     35  C   UNL     1      26.390  57.346  41.037  1.00  0.00     0.014 C 
ATOM     36  C   UNL     1      26.915  60.900  42.501  1.00  0.00     0.032 C 
ATOM     37  C   UNL     1      25.810  58.669  41.640  1.00  0.00    -0.008 C 
ATOM     38  C   UNL     1      26.255  61.639  41.335  1.00  0.00     0.011 C 
ATOM     39  C   UNL     1      25.179  59.541  40.481  1.00  0.00     0.005 C 
ATOM     40  C   UNL     1      24.901  61.009  40.928  1.00  0.00     0.026 C 
ATOM     41  C   UNL     1      23.876  58.904  39.933  1.00  0.00     0.005 C 
ATOM     42  C   UNL     1      24.129  61.915  39.880  1.00  0.00     0.074 C 
ATOM     43  C   UNL     1      23.441  59.657  38.698  1.00  0.00     0.011 C 
ATOM     44  C   UNL     1      24.944  62.684  38.824  1.00  0.00     0.037 C 
ATOM     45  C   UNL     1      23.060  61.137  38.990  1.00  0.00     0.004 C 
ATOM     46  C   UNL     1      23.830  63.182  37.876  1.00  0.00     0.012 C 
ATOM     47  C   UNL     1      23.126  61.870  37.596  1.00  0.00     0.031 C 
ATOM     48  C   UNL     1      24.760  58.384  42.761  1.00  0.00     0.016 C 
ATOM     49  C   UNL     1      21.666  61.167  39.681  1.00  0.00     0.015 C 
BRANCH  42  50
ATOM     50  O   UNL     1      23.453  62.916  40.627  1.00  0.00    -0.389 OA
ATOM     51  H   UNL     1      23.267  62.577  41.541  1.00  0.00     0.211 HD
ENDBRANCH  42  50
BRANCH  47  52
ATOM     52  C   UNL     1      21.902  61.864  36.692  1.00  0.00    -0.009 A 
ATOM     53  C   UNL     1      21.769  60.853  35.719  1.00  0.00     0.203 A 
ATOM     54  C   UNL     1      20.882  62.825  36.773  1.00  0.00     0.015 A 
ATOM     55  O   UNL     1      20.712  60.808  34.919  1.00  0.00    -0.431 OA
ATOM     56  C   UNL     1      19.784  62.740  35.913  1.00  0.00     0.094 A 
ATOM     57  C   UNL     1      19.728  61.700  34.982  1.00  0.00     0.335 A 
ATOM     58  O   UNL     1      18.781  61.606  34.224  1.00  0.00    -0.246 OA
ENDBRANCH  47  52
ENDBRANCH  30  31
ENDBRANCH   3  30
TORSDOF 14
ENDMDL
MODEL 7
REMARK VINA RESULT:   -10.790      3.460     16.271
REMARK INTER + INTRA:         -19.362
REMARK INTER:                 -17.443
REMARK INTRA:                  -1.920
REMARK UNBOUND:                -1.634
REMARK SMILES CC(=O)O[C@H]1[C@@H](O)[C@H](O[C@@H]2C=C3CC[C@@H]4[C@H](CC[C@]5(C)[C@@H](c6ccc(=O)oc6)CC[C@]45O)[C@@]3(C)CC2)O[C@@H](C)[C@@H]1O[C@@H]1O[C@H](CO)[C@@H](O)[C@H](O)[C@H]1O
REMARK SMILES IDX 5 1 6 2 8 3 37 4 38 5 39 6 40 7 4 8 2 9 3 10 1 11 7 12 41 14
REMARK SMILES IDX 42 15 43 16 51 17 44 18 49 19 47 20 52 21 45 23 46 24 50 26
REMARK SMILES IDX 48 28 9 30 10 31 11 32 36 33 12 34 35 35 13 36 33 37 14 38
REMARK SMILES IDX 16 39 15 40 17 41 31 42 18 43 30 44 19 45 29 46 21 47 34 48
REMARK SMILES IDX 20 49 32 50 22 52 28 53 23 54 27 55 24 56 25 57 26 58
REMARK H PARENT 7 13 52 22 46 25 50 27 48 29 32 51
ROOT
ATOM      1  C   UNL     1      14.594  65.819  30.278  1.00  0.00     0.242 C 
ATOM      2  C   UNL     1      15.026  65.544  31.734  1.00  0.00     0.214 C 
ATOM      3  C   UNL     1      16.245  64.584  31.814  1.00  0.00     0.283 C 
ATOM      4  O   UNL     1      17.059  64.690  30.664  1.00  0.00    -0.344 OA
ATOM      5  C   UNL     1      16.400  64.347  29.442  1.00  0.00     0.151 C 
ATOM      6  C   UNL     1      16.774  62.927  29.020  1.00  0.00     0.042 C 
ATOM      7  C   UNL     1      14.856  64.583  29.427  1.00  0.00     0.194 C 
ENDROOT
BRANCH   1   8
ATOM      8  O   UNL     1      13.261  66.196  30.239  1.00  0.00    -0.457 OA
BRANCH   8   9
ATOM      9  C   UNL     1      12.786  67.453  30.434  1.00  0.00     0.303 C 
ATOM     10  O   UNL     1      13.327  68.422  29.920  1.00  0.00    -0.253 OA
ATOM     11  C   UNL     1      11.585  67.648  31.300  1.00  0.00     0.139 C 
ENDBRANCH   8   9
ENDBRANCH   1   8
BRANCH   2  12
ATOM     12  O   UNL     1      13.973  65.043  32.522  1.00  0.00    -0.384 OA
ATOM     13  H   UNL     1      14.360  64.414  33.184  1.00  0.00     0.211 HD
ENDBRANCH   2  12
BRANCH   7  14
ATOM     14  O   UNL     1      14.439  64.871  28.101  1.00  0.00    -0.340 OA
BRANCH  14  15
ATOM     15  C   UNL     1      15.134  65.930  27.467  1.00  0.00     0.282 C 
ATOM     16  O   UNL     1      14.214  66.881  26.930  1.00  0.00    -0.341 OA
ATOM     17  C   UNL     1      16.091  65.353  26.382  1.00  0.00     0.202 C 
ATOM     18  C   UNL     1      13.415  66.390  25.848  1.00  0.00     0.178 C 
ATOM     19  C   UNL     1      15.261  64.729  25.243  1.00  0.00     0.179 C 
ATOM     20  C   UNL     1      14.283  65.785  24.699  1.00  0.00     0.177 C 
BRANCH  17  21
ATOM     21  O   UNL     1      16.955  66.330  25.840  1.00  0.00    -0.385 OA
ATOM     22  H   UNL     1      16.519  67.221  25.848  1.00  0.00     0.211 HD
ENDBRANCH  17  21
BRANCH  18  23
ATOM     23  C   UNL     1      12.244  65.498  26.328  1.00  0.00     0.191 C 
BRANCH  23  24
ATOM     24  O   UNL     1      11.771  65.935  27.574  1.00  0.00    -0.394 OA
ATOM     25  H   UNL     1      11.224  66.747  27.405  1.00  0.00     0.210 HD
ENDBRANCH  23  24
ENDBRANCH  18  23
BRANCH  19  26
ATOM     26  O   UNL     1      14.546  63.610  25.703  1.00  0.00    -0.387 OA
ATOM     27  H   UNL     1      13.739  63.528  25.132  1.00  0.00     0.211 HD
ENDBRANCH  19  26
BRANCH  20  28
ATOM     28  O   UNL     1      15.004  66.785  24.010  1.00  0.00    -0.387 OA
ATOM     29  H   UNL     1      15.687  66.368  23.424  1.00  0.00     0.211 HD
ENDBRANCH  20  28
ENDBRANCH  14  15
ENDBRANCH   7  14
BRANCH   3  30
ATOM     30  O   UNL     1      17.032  65.009  32.901  1.00  0.00    -0.342 OA
BRANCH  30  31
ATOM     31  C   UNL     1      18.428  64.817  32.798  1.00  0.00     0.144 C 
ATOM     32  C   UNL     1      18.703  63.318  32.782  1.00  0.00     0.004 C 
ATOM     33  C   UNL     1      19.032  65.567  34.007  1.00  0.00     0.037 C 
ATOM     34  C   UNL     1      19.342  62.642  33.768  1.00  0.00    -0.065 C 
ATOM     35  C   UNL     1      20.149  64.796  34.704  1.00  0.00     0.014 C 
ATOM     36  C   UNL     1      19.389  61.132  33.682  1.00  0.00     0.032 C 
ATOM     37  C   UNL     1      19.681  63.348  35.074  1.00  0.00    -0.008 C 
ATOM     38  C   UNL     1      20.533  60.513  34.487  1.00  0.00     0.011 C 
ATOM     39  C   UNL     1      20.845  62.601  35.841  1.00  0.00     0.005 C 
ATOM     40  C   UNL     1      20.602  61.063  35.933  1.00  0.00     0.026 C 
ATOM     41  C   UNL     1      21.058  63.183  37.262  1.00  0.00     0.005 C 
ATOM     42  C   UNL     1      21.639  60.252  36.816  1.00  0.00     0.074 C 
ATOM     43  C   UNL     1      22.309  62.582  37.859  1.00  0.00     0.011 C 
ATOM     44  C   UNL     1      22.927  59.729  36.153  1.00  0.00     0.037 C 
ATOM     45  C   UNL     1      22.201  61.046  38.078  1.00  0.00     0.004 C 
ATOM     46  C   UNL     1      23.744  59.271  37.381  1.00  0.00     0.012 C 
ATOM     47  C   UNL     1      23.687  60.537  38.213  1.00  0.00     0.031 C 
ATOM     48  C   UNL     1      18.370  63.363  35.924  1.00  0.00     0.016 C 
ATOM     49  C   UNL     1      21.302  60.781  39.320  1.00  0.00     0.015 C 
BRANCH  42  50
ATOM     50  O   UNL     1      20.962  59.091  37.276  1.00  0.00    -0.389 OA
ATOM     51  H   UNL     1      19.996  59.167  37.064  1.00  0.00     0.211 HD
ENDBRANCH  42  50
BRANCH  47  52
ATOM     52  C   UNL     1      24.362  60.558  39.576  1.00  0.00    -0.009 A 
ATOM     53  C   UNL     1      25.099  61.696  39.962  1.00  0.00     0.203 A 
ATOM     54  C   UNL     1      24.292  59.491  40.486  1.00  0.00     0.015 A 
ATOM     55  O   UNL     1      25.693  61.757  41.147  1.00  0.00    -0.431 OA
ATOM     56  C   UNL     1      24.930  59.597  41.724  1.00  0.00     0.094 A 
ATOM     57  C   UNL     1      25.633  60.764  42.030  1.00  0.00     0.335 A 
ATOM     58  O   UNL     1      26.196  60.879  43.102  1.00  0.00    -0.246 OA
ENDBRANCH  47  52
ENDBRANCH  30  31
ENDBRANCH   3  30
TORSDOF 14
ENDMDL
MODEL 8
REMARK VINA RESULT:   -10.757      3.391      6.741
REMARK INTER + INTRA:         -19.307
REMARK INTER:                 -17.525
REMARK INTRA:                  -1.782
REMARK UNBOUND:                -1.634
REMARK SMILES CC(=O)O[C@H]1[C@@H](O)[C@H](O[C@@H]2C=C3CC[C@@H]4[C@H](CC[C@]5(C)[C@@H](c6ccc(=O)oc6)CC[C@]45O)[C@@]3(C)CC2)O[C@@H](C)[C@@H]1O[C@@H]1O[C@H](CO)[C@@H](O)[C@H](O)[C@H]1O
REMARK SMILES IDX 5 1 6 2 8 3 37 4 38 5 39 6 40 7 4 8 2 9 3 10 1 11 7 12 41 14
REMARK SMILES IDX 42 15 43 16 51 17 44 18 49 19 47 20 52 21 45 23 46 24 50 26
REMARK SMILES IDX 48 28 9 30 10 31 11 32 36 33 12 34 35 35 13 36 33 37 14 38
REMARK SMILES IDX 16 39 15 40 17 41 31 42 18 43 30 44 19 45 29 46 21 47 34 48
REMARK SMILES IDX 20 49 32 50 22 52 28 53 23 54 27 55 24 56 25 57 26 58
REMARK H PARENT 7 13 52 22 46 25 50 27 48 29 32 51
ROOT
ATOM      1  C   UNL     1      29.170  54.656  44.795  1.00  0.00     0.242 C 
ATOM      2  C   UNL     1      29.282  55.431  43.466  1.00  0.00     0.214 C 
ATOM      3  C   UNL     1      28.601  56.826  43.539  1.00  0.00     0.283 C 
ATOM      4  O   UNL     1      28.619  57.338  44.856  1.00  0.00    -0.344 OA
ATOM      5  C   UNL     1      27.918  56.536  45.809  1.00  0.00     0.151 C 
ATOM      6  C   UNL     1      26.536  57.126  46.084  1.00  0.00     0.042 C 
ATOM      7  C   UNL     1      27.856  55.009  45.481  1.00  0.00     0.194 C 
ENDROOT
BRANCH   1   8
ATOM      8  O   UNL     1      29.277  53.293  44.564  1.00  0.00    -0.457 OA
BRANCH   8   9
ATOM      9  C   UNL     1      30.396  52.545  44.739  1.00  0.00     0.303 C 
ATOM     10  O   UNL     1      31.430  53.041  45.164  1.00  0.00    -0.253 OA
ATOM     11  C   UNL     1      30.358  51.092  44.397  1.00  0.00     0.139 C 
ENDBRANCH   8   9
ENDBRANCH   1   8
BRANCH   2  12
ATOM     12  O   UNL     1      28.766  54.706  42.375  1.00  0.00    -0.384 OA
ATOM     13  H   UNL     1      29.528  54.444  41.796  1.00  0.00     0.211 HD
ENDBRANCH   2  12
BRANCH   7  14
ATOM     14  O   UNL     1      27.784  54.272  46.693  1.00  0.00    -0.340 OA
BRANCH  14  15
ATOM     15  C   UNL     1      28.659  54.711  47.716  1.00  0.00     0.282 C 
ATOM     16  O   UNL     1      29.605  53.690  48.036  1.00  0.00    -0.341 OA
ATOM     17  C   UNL     1      27.831  55.160  48.956  1.00  0.00     0.202 C 
ATOM     18  C   UNL     1      29.039  52.522  48.640  1.00  0.00     0.178 C 
ATOM     19  C   UNL     1      27.127  53.936  49.576  1.00  0.00     0.179 C 
ATOM     20  C   UNL     1      28.182  52.863  49.900  1.00  0.00     0.177 C 
BRANCH  17  21
ATOM     21  O   UNL     1      28.621  55.786  49.945  1.00  0.00    -0.385 OA
ATOM     22  H   UNL     1      28.197  56.633  50.241  1.00  0.00     0.211 HD
ENDBRANCH  17  21
BRANCH  18  23
ATOM     23  C   UNL     1      28.353  51.591  47.610  1.00  0.00     0.191 C 
BRANCH  23  24
ATOM     24  O   UNL     1      27.445  50.735  48.249  1.00  0.00    -0.394 OA
ATOM     25  H   UNL     1      27.601  49.825  47.883  1.00  0.00     0.210 HD
ENDBRANCH  23  24
ENDBRANCH  18  23
BRANCH  19  26
ATOM     26  O   UNL     1      26.170  53.412  48.693  1.00  0.00    -0.387 OA
ATOM     27  H   UNL     1      25.449  53.016  49.249  1.00  0.00     0.211 HD
ENDBRANCH  19  26
BRANCH  20  28
ATOM     28  O   UNL     1      28.987  53.302  50.974  1.00  0.00    -0.387 OA
ATOM     29  H   UNL     1      29.620  53.998  50.661  1.00  0.00     0.211 HD
ENDBRANCH  20  28
ENDBRANCH  14  15
ENDBRANCH   7  14
BRANCH   3  30
ATOM     30  O   UNL     1      29.378  57.703  42.759  1.00  0.00    -0.342 OA
BRANCH  30  31
ATOM     31  C   UNL     1      28.934  59.041  42.660  1.00  0.00     0.144 C 
ATOM     32  C   UNL     1      27.484  59.098  43.127  1.00  0.00     0.004 C 
ATOM     33  C   UNL     1      29.147  59.432  41.180  1.00  0.00     0.037 C 
ATOM     34  C   UNL     1      26.428  59.377  42.325  1.00  0.00    -0.065 C 
ATOM     35  C   UNL     1      27.986  60.227  40.589  1.00  0.00     0.014 C 
ATOM     36  C   UNL     1      25.036  59.230  42.903  1.00  0.00     0.032 C 
ATOM     37  C   UNL     1      26.627  59.483  40.819  1.00  0.00    -0.008 C 
ATOM     38  C   UNL     1      23.979  60.045  42.155  1.00  0.00     0.011 C 
ATOM     39  C   UNL     1      25.457  60.309  40.146  1.00  0.00     0.005 C 
ATOM     40  C   UNL     1      24.049  59.837  40.622  1.00  0.00     0.026 C 
ATOM     41  C   UNL     1      25.535  60.251  38.599  1.00  0.00     0.005 C 
ATOM     42  C   UNL     1      22.813  60.504  39.887  1.00  0.00     0.074 C 
ATOM     43  C   UNL     1      24.534  61.222  38.018  1.00  0.00     0.011 C 
ATOM     44  C   UNL     1      22.250  61.828  40.438  1.00  0.00     0.037 C 
ATOM     45  C   UNL     1      23.061  60.849  38.352  1.00  0.00     0.004 C 
ATOM     46  C   UNL     1      21.287  62.250  39.305  1.00  0.00     0.012 C 
ATOM     47  C   UNL     1      22.232  62.171  38.123  1.00  0.00     0.031 C 
ATOM     48  C   UNL     1      26.666  58.021  40.271  1.00  0.00     0.016 C 
ATOM     49  C   UNL     1      22.636  59.647  37.459  1.00  0.00     0.015 C 
BRANCH  42  50
ATOM     50  O   UNL     1      21.739  59.580  39.976  1.00  0.00    -0.389 OA
ATOM     51  H   UNL     1      22.087  58.695  40.260  1.00  0.00     0.211 HD
ENDBRANCH  42  50
BRANCH  47  52
ATOM     52  C   UNL     1      21.706  62.491  36.732  1.00  0.00    -0.009 A 
ATOM     53  C   UNL     1      22.610  62.894  35.729  1.00  0.00     0.203 A 
ATOM     54  C   UNL     1      20.348  62.407  36.385  1.00  0.00     0.015 A 
ATOM     55  O   UNL     1      22.192  63.171  34.501  1.00  0.00    -0.431 OA
ATOM     56  C   UNL     1      19.949  62.705  35.080  1.00  0.00     0.094 A 
ATOM     57  C   UNL     1      20.913  63.089  34.145  1.00  0.00     0.335 A 
ATOM     58  O   UNL     1      20.589  63.353  33.003  1.00  0.00    -0.246 OA
ENDBRANCH  47  52
ENDBRANCH  30  31
ENDBRANCH   3  30
TORSDOF 14
ENDMDL
MODEL 9
REMARK VINA RESULT:   -10.567      4.416      7.440
REMARK INTER + INTRA:         -18.995
REMARK INTER:                 -17.076
REMARK INTRA:                  -1.919
REMARK UNBOUND:                -1.634
REMARK SMILES CC(=O)O[C@H]1[C@@H](O)[C@H](O[C@@H]2C=C3CC[C@@H]4[C@H](CC[C@]5(C)[C@@H](c6ccc(=O)oc6)CC[C@]45O)[C@@]3(C)CC2)O[C@@H](C)[C@@H]1O[C@@H]1O[C@H](CO)[C@@H](O)[C@H](O)[C@H]1O
REMARK SMILES IDX 5 1 6 2 8 3 37 4 38 5 39 6 40 7 4 8 2 9 3 10 1 11 7 12 41 14
REMARK SMILES IDX 42 15 43 16 51 17 44 18 49 19 47 20 52 21 45 23 46 24 50 26
REMARK SMILES IDX 48 28 9 30 10 31 11 32 36 33 12 34 35 35 13 36 33 37 14 38
REMARK SMILES IDX 16 39 15 40 17 41 31 42 18 43 30 44 19 45 29 46 21 47 34 48
REMARK SMILES IDX 20 49 32 50 22 52 28 53 23 54 27 55 24 56 25 57 26 58
REMARK H PARENT 7 13 52 22 46 25 50 27 48 29 32 51
ROOT
ATOM      1  C   UNL     1      28.619  54.420  47.420  1.00  0.00     0.242 C 
ATOM      2  C   UNL     1      28.379  55.778  46.727  1.00  0.00     0.214 C 
ATOM      3  C   UNL     1      28.747  55.742  45.218  1.00  0.00     0.283 C 
ATOM      4  O   UNL     1      28.588  54.444  44.682  1.00  0.00    -0.344 OA
ATOM      5  C   UNL     1      29.419  53.451  45.287  1.00  0.00     0.151 C 
ATOM      6  C   UNL     1      30.637  53.172  44.409  1.00  0.00     0.042 C 
ATOM      7  C   UNL     1      29.810  53.724  46.775  1.00  0.00     0.194 C 
ENDROOT
BRANCH   1   8
ATOM      8  O   UNL     1      28.809  54.606  48.781  1.00  0.00    -0.457 OA
BRANCH   8   9
ATOM      9  C   UNL     1      27.862  54.449  49.742  1.00  0.00     0.303 C 
ATOM     10  O   UNL     1      28.107  54.684  50.917  1.00  0.00    -0.253 OA
ATOM     11  C   UNL     1      26.502  53.975  49.349  1.00  0.00     0.139 C 
ENDBRANCH   8   9
ENDBRANCH   1   8
BRANCH   2  12
ATOM     12  O   UNL     1      29.063  56.834  47.359  1.00  0.00    -0.384 OA
ATOM     13  H   UNL     1      28.415  57.569  47.512  1.00  0.00     0.211 HD
ENDBRANCH   2  12
BRANCH   7  14
ATOM     14  O   UNL     1      30.006  52.486  47.443  1.00  0.00    -0.340 OA
BRANCH  14  15
ATOM     15  C   UNL     1      29.088  51.465  47.098  1.00  0.00     0.282 C 
ATOM     16  O   UNL     1      28.253  51.146  48.213  1.00  0.00    -0.341 OA
ATOM     17  C   UNL     1      29.862  50.223  46.564  1.00  0.00     0.202 C 
ATOM     18  C   UNL     1      28.938  50.541  49.315  1.00  0.00     0.178 C 
ATOM     19  C   UNL     1      30.689  49.601  47.707  1.00  0.00     0.179 C 
ATOM     20  C   UNL     1      29.751  49.279  48.885  1.00  0.00     0.177 C 
BRANCH  17  21
ATOM     21  O   UNL     1      29.008  49.237  46.024  1.00  0.00    -0.385 OA
ATOM     22  H   UNL     1      28.906  48.482  46.660  1.00  0.00     0.211 HD
ENDBRANCH  17  21
BRANCH  18  23
ATOM     23  C   UNL     1      29.719  51.569  50.169  1.00  0.00     0.191 C 
BRANCH  23  24
ATOM     24  O   UNL     1      30.655  50.918  50.986  1.00  0.00    -0.394 OA
ATOM     25  H   UNL     1      30.426  51.147  51.925  1.00  0.00     0.210 HD
ENDBRANCH  23  24
ENDBRANCH  18  23
BRANCH  19  26
ATOM     26  O   UNL     1      31.698  50.482  48.129  1.00  0.00    -0.387 OA
ATOM     27  H   UNL     1      31.413  51.395  47.864  1.00  0.00     0.211 HD
ENDBRANCH  19  26
BRANCH  20  28
ATOM     28  O   UNL     1      28.902  48.207  48.533  1.00  0.00    -0.387 OA
ATOM     29  H   UNL     1      28.889  47.532  49.258  1.00  0.00     0.211 HD
ENDBRANCH  20  28
ENDBRANCH  14  15
ENDBRANCH   7  14
BRANCH   3  30
ATOM     30  O   UNL     1      27.822  56.566  44.550  1.00  0.00    -0.342 OA
BRANCH  30  31
ATOM     31  C   UNL     1      28.208  57.078  43.291  1.00  0.00     0.144 C 
ATOM     32  C   UNL     1      28.007  58.589  43.309  1.00  0.00     0.004 C 
ATOM     33  C   UNL     1      27.336  56.326  42.261  1.00  0.00     0.037 C 
ATOM     34  C   UNL     1      27.089  59.251  42.564  1.00  0.00    -0.065 C 
ATOM     35  C   UNL     1      26.786  57.227  41.158  1.00  0.00     0.014 C 
ATOM     36  C   UNL     1      26.899  60.731  42.819  1.00  0.00     0.032 C 
ATOM     37  C   UNL     1      26.053  58.469  41.767  1.00  0.00    -0.008 C 
ATOM     38  C   UNL     1      26.280  61.476  41.634  1.00  0.00     0.011 C 
ATOM     39  C   UNL     1      25.452  59.349  40.597  1.00  0.00     0.005 C 
ATOM     40  C   UNL     1      25.019  60.766  41.083  1.00  0.00     0.026 C 
ATOM     41  C   UNL     1      24.255  58.642  39.910  1.00  0.00     0.005 C 
ATOM     42  C   UNL     1      24.266  61.662  40.014  1.00  0.00     0.074 C 
ATOM     43  C   UNL     1      23.864  59.422  38.676  1.00  0.00     0.011 C 
ATOM     44  C   UNL     1      25.101  62.545  39.067  1.00  0.00     0.037 C 
ATOM     45  C   UNL     1      23.342  60.851  39.001  1.00  0.00     0.004 C 
ATOM     46  C   UNL     1      24.033  63.004  38.050  1.00  0.00     0.012 C 
ATOM     47  C   UNL     1      23.463  61.657  37.651  1.00  0.00     0.031 C 
ATOM     48  C   UNL     1      24.940  58.047  42.778  1.00  0.00     0.016 C 
ATOM     49  C   UNL     1      21.897  60.738  39.569  1.00  0.00     0.015 C 
BRANCH  42  50
ATOM     50  O   UNL     1      23.452  62.569  40.743  1.00  0.00    -0.389 OA
ATOM     51  H   UNL     1      22.812  63.008  40.125  1.00  0.00     0.211 HD
ENDBRANCH  42  50
BRANCH  47  52
ATOM     52  C   UNL     1      22.324  61.604  36.645  1.00  0.00    -0.009 A 
ATOM     53  C   UNL     1      22.075  60.404  35.949  1.00  0.00     0.203 A 
ATOM     54  C   UNL     1      21.493  62.701  36.365  1.00  0.00     0.015 A 
ATOM     55  O   UNL     1      21.084  60.315  35.071  1.00  0.00    -0.431 OA
ATOM     56  C   UNL     1      20.459  62.564  35.436  1.00  0.00     0.094 A 
ATOM     57  C   UNL     1      20.277  61.336  34.797  1.00  0.00     0.335 A 
ATOM     58  O   UNL     1      19.383  61.193  33.984  1.00  0.00    -0.246 OA
ENDBRANCH  47  52
ENDBRANCH  30  31
ENDBRANCH   3  30
TORSDOF 14
ENDMDL
