MODEL 1
REMARK VINA RESULT:   -12.883      0.000      0.000
REMARK INTER + INTRA:         -21.901
REMARK INTER:                 -20.790
REMARK INTRA:                  -1.110
REMARK UNBOUND:                -1.110
REMARK SMILES C[C@H]1O[C@@H](O[C@H]2CC[C@]3(C=O)[C@H]4CC[C@]5(C)[C@@H](C6=CC(=O)OC6)CC[C@]5(O)[C@@H]4CC[C@]3(O)C2)C[C@H](O)[C@H]1O[C@@H]1O[C@H](CO)[C@@H](O)[C@H](O)[C@H]1O
REMARK SMILES IDX 1 1 2 2 3 3 4 4 34 5 35 6 37 7 38 8 39 9 40 10 48 11 41 12
REMARK SMILES IDX 46 13 44 14 49 15 42 17 43 18 47 20 45 22 5 24 6 25 7 26
REMARK SMILES IDX 33 27 8 28 31 29 9 30 30 31 12 32 29 33 13 34 28 35 14 36
REMARK SMILES IDX 26 37 15 38 25 39 17 40 24 41 16 42 32 43 10 45 11 46 27 47
REMARK SMILES IDX 18 49 19 50 23 51 20 52 22 53 21 54 36 55
REMARK H PARENT 49 16 43 19 47 21 45 23 32 44 27 48 36 56
ROOT
ATOM      1  C   UNL     1      25.240  57.463  41.694  1.00  0.00     0.041 C 
ATOM      2  C   UNL     1      26.463  58.327  41.341  1.00  0.00     0.150 C 
ATOM      3  O   UNL     1      26.124  59.353  40.416  1.00  0.00    -0.347 OA
ATOM      4  C   UNL     1      25.672  60.595  40.969  1.00  0.00     0.253 C 
ATOM      5  C   UNL     1      25.451  60.621  42.497  1.00  0.00     0.096 C 
ATOM      6  C   UNL     1      26.570  59.979  43.313  1.00  0.00     0.151 C 
ATOM      7  C   UNL     1      27.294  58.888  42.510  1.00  0.00     0.179 C 
ENDROOT
BRANCH   7   8
ATOM      8  O   UNL     1      27.713  57.852  43.387  1.00  0.00    -0.341 OA
BRANCH   8   9
ATOM      9  C   UNL     1      27.122  57.930  44.671  1.00  0.00     0.282 C 
ATOM     10  O   UNL     1      27.953  58.734  45.492  1.00  0.00    -0.341 OA
ATOM     11  C   UNL     1      27.024  56.512  45.260  1.00  0.00     0.202 C 
ATOM     12  C   UNL     1      27.352  58.957  46.755  1.00  0.00     0.178 C 
ATOM     13  C   UNL     1      26.377  56.614  46.654  1.00  0.00     0.179 C 
ATOM     14  C   UNL     1      27.176  57.613  47.516  1.00  0.00     0.177 C 
BRANCH  11  15
ATOM     15  O   UNL     1      26.287  55.656  44.422  1.00  0.00    -0.385 OA
ATOM     16  H   UNL     1      25.370  55.584  44.794  1.00  0.00     0.211 HD
ENDBRANCH  11  15
BRANCH  12  17
ATOM     17  C   UNL     1      28.250  59.908  47.558  1.00  0.00     0.191 C 
BRANCH  17  18
ATOM     18  O   UNL     1      28.339  61.153  46.920  1.00  0.00    -0.394 OA
ATOM     19  H   UNL     1      29.281  61.252  46.615  1.00  0.00     0.210 HD
ENDBRANCH  17  18
ENDBRANCH  12  17
BRANCH  13  20
ATOM     20  O   UNL     1      26.291  55.356  47.274  1.00  0.00    -0.387 OA
ATOM     21  H   UNL     1      27.173  54.912  47.179  1.00  0.00     0.211 HD
ENDBRANCH  13  20
BRANCH  14  22
ATOM     22  O   UNL     1      26.550  57.805  48.761  1.00  0.00    -0.387 OA
ATOM     23  H   UNL     1      27.267  57.914  49.439  1.00  0.00     0.211 HD
ENDBRANCH  14  22
ENDBRANCH   8   9
ENDBRANCH   7   8
BRANCH   4  24
ATOM     24  O   UNL     1      24.389  60.802  40.452  1.00  0.00    -0.349 OA
BRANCH  24  25
ATOM     25  C   UNL     1      24.164  61.965  39.696  1.00  0.00     0.124 C 
ATOM     26  C   UNL     1      24.988  61.800  38.382  1.00  0.00     0.033 C 
ATOM     27  C   UNL     1      22.628  61.996  39.436  1.00  0.00     0.068 C 
ATOM     28  C   UNL     1      24.201  62.288  37.175  1.00  0.00     0.020 C 
ATOM     29  C   UNL     1      22.284  60.940  38.359  1.00  0.00     0.080 C 
ATOM     30  C   UNL     1      22.855  61.471  36.950  1.00  0.00     0.058 C 
ATOM     31  C   UNL     1      20.775  60.603  38.304  1.00  0.00     0.037 C 
ATOM     32  C   UNL     1      21.837  62.471  36.250  1.00  0.00     0.011 C 
ATOM     33  C   UNL     1      19.912  61.674  37.664  1.00  0.00     0.010 C 
ATOM     34  C   UNL     1      22.324  62.948  34.841  1.00  0.00     0.006 C 
ATOM     35  C   UNL     1      20.390  61.881  36.215  1.00  0.00     0.026 C 
ATOM     36  C   UNL     1      21.441  62.396  33.729  1.00  0.00     0.010 C 
ATOM     37  C   UNL     1      19.379  62.685  35.329  1.00  0.00     0.074 C 
ATOM     38  C   UNL     1      19.903  62.747  33.835  1.00  0.00     0.003 C 
ATOM     39  C   UNL     1      19.145  64.175  35.741  1.00  0.00     0.037 C 
ATOM     40  C   UNL     1      19.633  64.219  33.381  1.00  0.00     0.028 C 
ATOM     41  C   UNL     1      19.761  65.051  34.660  1.00  0.00     0.012 C 
ATOM     42  C   UNL     1      19.230  61.699  32.898  1.00  0.00     0.015 C 
BRANCH  29  43
ATOM     43  O   UNL     1      22.930  59.730  38.716  1.00  0.00    -0.389 OA
ATOM     44  H   UNL     1      22.496  58.977  38.234  1.00  0.00     0.211 HD
ENDBRANCH  29  43
BRANCH  30  45
ATOM     45  C   UNL     1      23.123  60.294  35.997  1.00  0.00     0.234 C 
ATOM     46  O   UNL     1      24.136  59.616  36.042  1.00  0.00    -0.303 OA
ENDBRANCH  30  45
BRANCH  37  47
ATOM     47  O   UNL     1      18.135  62.008  35.352  1.00  0.00    -0.389 OA
ATOM     48  H   UNL     1      17.560  62.398  36.062  1.00  0.00     0.211 HD
ENDBRANCH  37  47
BRANCH  40  49
ATOM     49  C   UNL     1      18.282  64.442  32.697  1.00  0.00    -0.022 C 
ATOM     50  C   UNL     1      18.147  64.399  31.376  1.00  0.00     0.096 C 
ATOM     51  C   UNL     1      16.924  64.718  33.317  1.00  0.00     0.265 C 
ATOM     52  C   UNL     1      16.752  64.624  31.103  1.00  0.00     0.331 C 
ATOM     53  O   UNL     1      16.063  64.806  32.237  1.00  0.00    -0.458 OA
ATOM     54  O   UNL     1      16.248  64.638  29.992  1.00  0.00    -0.247 OA
ENDBRANCH  40  49
ENDBRANCH  24  25
ENDBRANCH   4  24
BRANCH   6  55
ATOM     55  O   UNL     1      27.491  60.925  43.795  1.00  0.00    -0.390 OA
ATOM     56  H   UNL     1      27.512  60.853  44.783  1.00  0.00     0.211 HD
ENDBRANCH   6  55
TORSDOF 14
ENDMDL
MODEL 2
REMARK VINA RESULT:   -12.701      2.226     13.746
REMARK INTER + INTRA:         -21.608
REMARK INTER:                 -20.267
REMARK INTRA:                  -1.340
REMARK UNBOUND:                -1.110
REMARK SMILES C[C@H]1O[C@@H](O[C@H]2CC[C@]3(C=O)[C@H]4CC[C@]5(C)[C@@H](C6=CC(=O)OC6)CC[C@]5(O)[C@@H]4CC[C@]3(O)C2)C[C@H](O)[C@H]1O[C@@H]1O[C@H](CO)[C@@H](O)[C@H](O)[C@H]1O
REMARK SMILES IDX 1 1 2 2 3 3 4 4 34 5 35 6 37 7 38 8 39 9 40 10 48 11 41 12
REMARK SMILES IDX 46 13 44 14 49 15 42 17 43 18 47 20 45 22 5 24 6 25 7 26
REMARK SMILES IDX 33 27 8 28 31 29 9 30 30 31 12 32 29 33 13 34 28 35 14 36
REMARK SMILES IDX 26 37 15 38 25 39 17 40 24 41 16 42 32 43 10 45 11 46 27 47
REMARK SMILES IDX 18 49 19 50 23 51 20 52 22 53 21 54 36 55
REMARK H PARENT 49 16 43 19 47 21 45 23 32 44 27 48 36 56
ROOT
ATOM      1  C   UNL     1      22.550  62.122  40.303  1.00  0.00     0.041 C 
ATOM      2  C   UNL     1      23.281  62.400  38.978  1.00  0.00     0.150 C 
ATOM      3  O   UNL     1      24.689  62.467  39.165  1.00  0.00    -0.347 OA
ATOM      4  C   UNL     1      25.413  61.236  39.061  1.00  0.00     0.253 C 
ATOM      5  C   UNL     1      24.561  59.955  38.916  1.00  0.00     0.096 C 
ATOM      6  C   UNL     1      23.418  60.061  37.911  1.00  0.00     0.151 C 
ATOM      7  C   UNL     1      22.926  61.509  37.773  1.00  0.00     0.179 C 
ENDROOT
BRANCH   7   8
ATOM      8  O   UNL     1      21.527  61.513  37.525  1.00  0.00    -0.341 OA
BRANCH   8   9
ATOM      9  C   UNL     1      21.195  61.818  36.183  1.00  0.00     0.282 C 
ATOM     10  O   UNL     1      20.437  63.016  36.176  1.00  0.00    -0.341 OA
ATOM     11  C   UNL     1      20.352  60.666  35.607  1.00  0.00     0.202 C 
ATOM     12  C   UNL     1      20.181  63.445  34.850  1.00  0.00     0.178 C 
ATOM     13  C   UNL     1      20.002  61.011  34.147  1.00  0.00     0.179 C 
ATOM     14  C   UNL     1      19.319  62.393  34.098  1.00  0.00     0.177 C 
BRANCH  11  15
ATOM     15  O   UNL     1      21.034  59.439  35.686  1.00  0.00    -0.385 OA
ATOM     16  H   UNL     1      21.657  59.486  36.457  1.00  0.00     0.211 HD
ENDBRANCH  11  15
BRANCH  12  17
ATOM     17  C   UNL     1      19.446  64.791  34.909  1.00  0.00     0.191 C 
BRANCH  17  18
ATOM     18  O   UNL     1      20.213  65.738  35.600  1.00  0.00    -0.394 OA
ATOM     19  H   UNL     1      20.237  66.556  35.035  1.00  0.00     0.210 HD
ENDBRANCH  17  18
ENDBRANCH  12  17
BRANCH  13  20
ATOM     20  O   UNL     1      19.196  60.019  33.564  1.00  0.00    -0.387 OA
ATOM     21  H   UNL     1      18.359  59.960  34.095  1.00  0.00     0.211 HD
ENDBRANCH  13  20
BRANCH  14  22
ATOM     22  O   UNL     1      19.079  62.780  32.767  1.00  0.00    -0.387 OA
ATOM     23  H   UNL     1      18.108  62.974  32.686  1.00  0.00     0.211 HD
ENDBRANCH  14  22
ENDBRANCH   8   9
ENDBRANCH   7   8
BRANCH   4  24
ATOM     24  O   UNL     1      26.056  61.061  40.290  1.00  0.00    -0.349 OA
BRANCH  24  25
ATOM     25  C   UNL     1      26.508  59.772  40.619  1.00  0.00     0.124 C 
ATOM     26  C   UNL     1      28.047  59.890  40.840  1.00  0.00     0.033 C 
ATOM     27  C   UNL     1      25.746  59.389  41.923  1.00  0.00     0.068 C 
ATOM     28  C   UNL     1      28.494  59.068  42.039  1.00  0.00     0.020 C 
ATOM     29  C   UNL     1      26.364  60.169  43.108  1.00  0.00     0.080 C 
ATOM     30  C   UNL     1      27.821  59.548  43.398  1.00  0.00     0.058 C 
ATOM     31  C   UNL     1      25.458  60.180  44.362  1.00  0.00     0.037 C 
ATOM     32  C   UNL     1      27.731  58.265  44.330  1.00  0.00     0.011 C 
ATOM     33  C   UNL     1      25.418  58.868  45.124  1.00  0.00     0.010 C 
ATOM     34  C   UNL     1      29.135  57.679  44.698  1.00  0.00     0.006 C 
ATOM     35  C   UNL     1      26.847  58.535  45.591  1.00  0.00     0.026 C 
ATOM     36  C   UNL     1      29.444  57.856  46.179  1.00  0.00     0.010 C 
ATOM     37  C   UNL     1      26.906  57.413  46.682  1.00  0.00     0.074 C 
ATOM     38  C   UNL     1      28.398  57.222  47.180  1.00  0.00     0.003 C 
ATOM     39  C   UNL     1      26.444  55.990  46.223  1.00  0.00     0.037 C 
ATOM     40  C   UNL     1      28.587  55.673  47.279  1.00  0.00     0.028 C 
ATOM     41  C   UNL     1      27.676  55.097  46.192  1.00  0.00     0.012 C 
ATOM     42  C   UNL     1      28.700  57.949  48.524  1.00  0.00     0.015 C 
BRANCH  29  43
ATOM     43  O   UNL     1      26.486  61.526  42.717  1.00  0.00    -0.389 OA
ATOM     44  H   UNL     1      26.316  62.106  43.506  1.00  0.00     0.211 HD
ENDBRANCH  29  43
BRANCH  30  45
ATOM     45  C   UNL     1      28.726  60.589  44.079  1.00  0.00     0.234 C 
ATOM     46  O   UNL     1      29.510  61.295  43.466  1.00  0.00    -0.303 OA
ENDBRANCH  30  45
BRANCH  37  47
ATOM     47  O   UNL     1      26.103  57.818  47.777  1.00  0.00    -0.389 OA
ATOM     48  H   UNL     1      26.624  58.434  48.358  1.00  0.00     0.211 HD
ENDBRANCH  37  47
BRANCH  40  49
ATOM     49  C   UNL     1      28.272  55.075  48.653  1.00  0.00    -0.022 C 
ATOM     50  C   UNL     1      29.221  54.838  49.551  1.00  0.00     0.096 C 
ATOM     51  C   UNL     1      26.932  54.674  49.243  1.00  0.00     0.265 C 
ATOM     52  C   UNL     1      28.558  54.308  50.713  1.00  0.00     0.331 C 
ATOM     53  O   UNL     1      27.236  54.222  50.515  1.00  0.00    -0.458 OA
ATOM     54  O   UNL     1      29.111  53.988  51.752  1.00  0.00    -0.247 OA
ENDBRANCH  40  49
ENDBRANCH  24  25
ENDBRANCH   4  24
BRANCH   6  55
ATOM     55  O   UNL     1      23.762  59.539  36.652  1.00  0.00    -0.390 OA
ATOM     56  H   UNL     1      23.442  60.174  35.962  1.00  0.00     0.211 HD
ENDBRANCH   6  55
TORSDOF 14
ENDMDL
MODEL 3
REMARK VINA RESULT:   -12.418      2.083      3.093
REMARK INTER + INTRA:         -21.150
REMARK INTER:                 -19.711
REMARK INTRA:                  -1.439
REMARK UNBOUND:                -1.110
REMARK SMILES C[C@H]1O[C@@H](O[C@H]2CC[C@]3(C=O)[C@H]4CC[C@]5(C)[C@@H](C6=CC(=O)OC6)CC[C@]5(O)[C@@H]4CC[C@]3(O)C2)C[C@H](O)[C@H]1O[C@@H]1O[C@H](CO)[C@@H](O)[C@H](O)[C@H]1O
REMARK SMILES IDX 1 1 2 2 3 3 4 4 34 5 35 6 37 7 38 8 39 9 40 10 48 11 41 12
REMARK SMILES IDX 46 13 44 14 49 15 42 17 43 18 47 20 45 22 5 24 6 25 7 26
REMARK SMILES IDX 33 27 8 28 31 29 9 30 30 31 12 32 29 33 13 34 28 35 14 36
REMARK SMILES IDX 26 37 15 38 25 39 17 40 24 41 16 42 32 43 10 45 11 46 27 47
REMARK SMILES IDX 18 49 19 50 23 51 20 52 22 53 21 54 36 55
REMARK H PARENT 49 16 43 19 47 21 45 23 32 44 27 48 36 56
ROOT
ATOM      1  C   UNL     1      25.283  58.809  43.316  1.00  0.00     0.041 C 
ATOM      2  C   UNL     1      26.239  58.694  42.115  1.00  0.00     0.150 C 
ATOM      3  O   UNL     1      25.606  59.097  40.907  1.00  0.00    -0.347 OA
ATOM      4  C   UNL     1      25.690  60.486  40.569  1.00  0.00     0.253 C 
ATOM      5  C   UNL     1      26.317  61.411  41.635  1.00  0.00     0.096 C 
ATOM      6  C   UNL     1      27.598  60.875  42.269  1.00  0.00     0.151 C 
ATOM      7  C   UNL     1      27.630  59.339  42.254  1.00  0.00     0.179 C 
ENDROOT
BRANCH   7   8
ATOM      8  O   UNL     1      28.303  58.867  43.412  1.00  0.00    -0.341 OA
BRANCH   8   9
ATOM      9  C   UNL     1      29.594  58.352  43.142  1.00  0.00     0.282 C 
ATOM     10  O   UNL     1      29.607  56.980  43.500  1.00  0.00    -0.341 OA
ATOM     11  C   UNL     1      30.622  59.120  43.990  1.00  0.00     0.202 C 
ATOM     12  C   UNL     1      30.834  56.374  43.134  1.00  0.00     0.178 C 
ATOM     13  C   UNL     1      32.020  58.551  43.683  1.00  0.00     0.179 C 
ATOM     14  C   UNL     1      32.012  57.025  43.910  1.00  0.00     0.177 C 
BRANCH  11  15
ATOM     15  O   UNL     1      30.572  60.502  43.734  1.00  0.00    -0.385 OA
ATOM     16  H   UNL     1      30.659  60.976  44.602  1.00  0.00     0.211 HD
ENDBRANCH  11  15
BRANCH  12  17
ATOM     17  C   UNL     1      30.749  54.876  43.457  1.00  0.00     0.191 C 
BRANCH  17  18
ATOM     18  O   UNL     1      29.576  54.325  42.923  1.00  0.00    -0.394 OA
ATOM     19  H   UNL     1      29.578  53.359  43.161  1.00  0.00     0.210 HD
ENDBRANCH  17  18
ENDBRANCH  12  17
BRANCH  13  20
ATOM     20  O   UNL     1      33.012  59.180  44.454  1.00  0.00    -0.387 OA
ATOM     21  H   UNL     1      33.583  58.469  44.847  1.00  0.00     0.211 HD
ENDBRANCH  13  20
BRANCH  14  22
ATOM     22  O   UNL     1      33.246  56.463  43.539  1.00  0.00    -0.387 OA
ATOM     23  H   UNL     1      33.080  55.873  42.758  1.00  0.00     0.211 HD
ENDBRANCH  14  22
ENDBRANCH   8   9
ENDBRANCH   7   8
BRANCH   4  24
ATOM     24  O   UNL     1      24.371  60.941  40.480  1.00  0.00    -0.349 OA
BRANCH  24  25
ATOM     25  C   UNL     1      24.123  62.097  39.721  1.00  0.00     0.124 C 
ATOM     26  C   UNL     1      24.947  61.945  38.407  1.00  0.00     0.033 C 
ATOM     27  C   UNL     1      22.586  62.100  39.464  1.00  0.00     0.068 C 
ATOM     28  C   UNL     1      24.149  62.415  37.200  1.00  0.00     0.020 C 
ATOM     29  C   UNL     1      22.259  61.034  38.391  1.00  0.00     0.080 C 
ATOM     30  C   UNL     1      22.818  61.573  36.979  1.00  0.00     0.058 C 
ATOM     31  C   UNL     1      20.757  60.669  38.339  1.00  0.00     0.037 C 
ATOM     32  C   UNL     1      21.781  62.551  36.278  1.00  0.00     0.011 C 
ATOM     33  C   UNL     1      19.873  61.722  37.698  1.00  0.00     0.010 C 
ATOM     34  C   UNL     1      22.256  63.034  34.867  1.00  0.00     0.006 C 
ATOM     35  C   UNL     1      20.345  61.935  36.248  1.00  0.00     0.026 C 
ATOM     36  C   UNL     1      21.381  62.463  33.758  1.00  0.00     0.010 C 
ATOM     37  C   UNL     1      19.318  62.717  35.361  1.00  0.00     0.074 C 
ATOM     38  C   UNL     1      19.838  62.786  33.866  1.00  0.00     0.003 C 
ATOM     39  C   UNL     1      19.057  64.204  35.770  1.00  0.00     0.037 C 
ATOM     40  C   UNL     1      19.539  64.251  33.409  1.00  0.00     0.028 C 
ATOM     41  C   UNL     1      19.654  65.089  34.686  1.00  0.00     0.012 C 
ATOM     42  C   UNL     1      19.183  61.723  32.933  1.00  0.00     0.015 C 
BRANCH  29  43
ATOM     43  O   UNL     1      22.929  59.838  38.750  1.00  0.00    -0.389 OA
ATOM     44  H   UNL     1      23.614  60.046  39.438  1.00  0.00     0.211 HD
ENDBRANCH  29  43
BRANCH  30  45
ATOM     45  C   UNL     1      23.106  60.398  36.029  1.00  0.00     0.234 C 
ATOM     46  O   UNL     1      24.182  59.823  35.985  1.00  0.00    -0.303 OA
ENDBRANCH  30  45
BRANCH  37  47
ATOM     47  O   UNL     1      18.086  62.017  35.389  1.00  0.00    -0.389 OA
ATOM     48  H   UNL     1      17.872  61.762  36.325  1.00  0.00     0.211 HD
ENDBRANCH  37  47
BRANCH  40  49
ATOM     49  C   UNL     1      18.183  64.447  32.727  1.00  0.00    -0.022 C 
ATOM     50  C   UNL     1      18.039  64.354  31.410  1.00  0.00     0.096 C 
ATOM     51  C   UNL     1      16.829  64.745  33.346  1.00  0.00     0.265 C 
ATOM     52  C   UNL     1      16.642  64.568  31.139  1.00  0.00     0.331 C 
ATOM     53  O   UNL     1      15.961  64.792  32.270  1.00  0.00    -0.458 OA
ATOM     54  O   UNL     1      16.129  64.539  30.031  1.00  0.00    -0.247 OA
ENDBRANCH  40  49
ENDBRANCH  24  25
ENDBRANCH   4  24
BRANCH   6  55
ATOM     55  O   UNL     1      28.754  61.394  41.661  1.00  0.00    -0.390 OA
ATOM     56  H   UNL     1      29.313  61.801  42.371  1.00  0.00     0.211 HD
ENDBRANCH   6  55
TORSDOF 14
ENDMDL
MODEL 4
REMARK VINA RESULT:   -12.365      1.505      3.176
REMARK INTER + INTRA:         -21.066
REMARK INTER:                 -19.515
REMARK INTRA:                  -1.551
REMARK UNBOUND:                -1.110
REMARK SMILES C[C@H]1O[C@@H](O[C@H]2CC[C@]3(C=O)[C@H]4CC[C@]5(C)[C@@H](C6=CC(=O)OC6)CC[C@]5(O)[C@@H]4CC[C@]3(O)C2)C[C@H](O)[C@H]1O[C@@H]1O[C@H](CO)[C@@H](O)[C@H](O)[C@H]1O
REMARK SMILES IDX 1 1 2 2 3 3 4 4 34 5 35 6 37 7 38 8 39 9 40 10 48 11 41 12
REMARK SMILES IDX 46 13 44 14 49 15 42 17 43 18 47 20 45 22 5 24 6 25 7 26
REMARK SMILES IDX 33 27 8 28 31 29 9 30 30 31 12 32 29 33 13 34 28 35 14 36
REMARK SMILES IDX 26 37 15 38 25 39 17 40 24 41 16 42 32 43 10 45 11 46 27 47
REMARK SMILES IDX 18 49 19 50 23 51 20 52 22 53 21 54 36 55
REMARK H PARENT 49 16 43 19 47 21 45 23 32 44 27 48 36 56
ROOT
ATOM      1  C   UNL     1      27.417  61.659  42.547  1.00  0.00     0.041 C 
ATOM      2  C   UNL     1      26.656  60.418  43.043  1.00  0.00     0.150 C 
ATOM      3  O   UNL     1      25.560  60.106  42.192  1.00  0.00    -0.347 OA
ATOM      4  C   UNL     1      25.829  59.236  41.086  1.00  0.00     0.253 C 
ATOM      5  C   UNL     1      27.312  58.869  40.853  1.00  0.00     0.096 C 
ATOM      6  C   UNL     1      28.077  58.481  42.115  1.00  0.00     0.151 C 
ATOM      7  C   UNL     1      27.485  59.159  43.360  1.00  0.00     0.179 C 
ENDROOT
BRANCH   7   8
ATOM      8  O   UNL     1      28.526  59.449  44.283  1.00  0.00    -0.341 OA
BRANCH   8   9
ATOM      9  C   UNL     1      28.438  58.700  45.481  1.00  0.00     0.282 C 
ATOM     10  O   UNL     1      27.811  57.463  45.185  1.00  0.00    -0.341 OA
ATOM     11  C   UNL     1      27.588  59.485  46.496  1.00  0.00     0.202 C 
ATOM     12  C   UNL     1      27.808  56.613  46.319  1.00  0.00     0.178 C 
ATOM     13  C   UNL     1      27.506  58.659  47.794  1.00  0.00     0.179 C 
ATOM     14  C   UNL     1      26.976  57.247  47.469  1.00  0.00     0.177 C 
BRANCH  11  15
ATOM     15  O   UNL     1      28.128  60.760  46.743  1.00  0.00    -0.385 OA
ATOM     16  H   UNL     1      29.025  60.637  47.149  1.00  0.00     0.211 HD
ENDBRANCH  11  15
BRANCH  12  17
ATOM     17  C   UNL     1      27.206  55.262  45.911  1.00  0.00     0.191 C 
BRANCH  17  18
ATOM     18  O   UNL     1      26.185  55.446  44.968  1.00  0.00    -0.394 OA
ATOM     19  H   UNL     1      26.480  54.991  44.133  1.00  0.00     0.210 HD
ENDBRANCH  17  18
ENDBRANCH  12  17
BRANCH  13  20
ATOM     20  O   UNL     1      26.708  59.297  48.759  1.00  0.00    -0.387 OA
ATOM     21  H   UNL     1      25.765  59.243  48.454  1.00  0.00     0.211 HD
ENDBRANCH  13  20
BRANCH  14  22
ATOM     22  O   UNL     1      26.985  56.437  48.618  1.00  0.00    -0.387 OA
ATOM     23  H   UNL     1      27.920  56.408  48.952  1.00  0.00     0.211 HD
ENDBRANCH  14  22
ENDBRANCH   8   9
ENDBRANCH   7   8
BRANCH   4  24
ATOM     24  O   UNL     1      25.489  59.957  39.937  1.00  0.00    -0.349 OA
BRANCH  24  25
ATOM     25  C   UNL     1      24.433  59.476  39.146  1.00  0.00     0.124 C 
ATOM     26  C   UNL     1      23.122  59.773  39.936  1.00  0.00     0.033 C 
ATOM     27  C   UNL     1      24.520  60.276  37.812  1.00  0.00     0.068 C 
ATOM     28  C   UNL     1      22.022  60.268  39.009  1.00  0.00     0.020 C 
ATOM     29  C   UNL     1      23.999  61.712  38.058  1.00  0.00     0.080 C 
ATOM     30  C   UNL     1      22.405  61.625  38.274  1.00  0.00     0.058 C 
ATOM     31  C   UNL     1      24.398  62.700  36.937  1.00  0.00     0.037 C 
ATOM     32  C   UNL     1      21.630  61.615  36.886  1.00  0.00     0.011 C 
ATOM     33  C   UNL     1      23.618  62.538  35.645  1.00  0.00     0.010 C 
ATOM     34  C   UNL     1      20.074  61.610  37.057  1.00  0.00     0.006 C 
ATOM     35  C   UNL     1      22.126  62.763  35.947  1.00  0.00     0.026 C 
ATOM     36  C   UNL     1      19.456  62.919  36.581  1.00  0.00     0.010 C 
ATOM     37  C   UNL     1      21.251  62.981  34.666  1.00  0.00     0.074 C 
ATOM     38  C   UNL     1      19.760  63.317  35.082  1.00  0.00     0.003 C 
ATOM     39  C   UNL     1      21.138  61.756  33.700  1.00  0.00     0.037 C 
ATOM     40  C   UNL     1      18.876  62.488  34.093  1.00  0.00     0.028 C 
ATOM     41  C   UNL     1      19.708  61.243  33.777  1.00  0.00     0.012 C 
ATOM     42  C   UNL     1      19.434  64.841  35.042  1.00  0.00     0.015 C 
BRANCH  29  43
ATOM     43  O   UNL     1      24.618  62.202  39.234  1.00  0.00    -0.389 OA
ATOM     44  H   UNL     1      24.428  63.174  39.319  1.00  0.00     0.211 HD
ENDBRANCH  29  43
BRANCH  30  45
ATOM     45  C   UNL     1      21.907  62.818  39.107  1.00  0.00     0.234 C 
ATOM     46  O   UNL     1      21.713  62.757  40.310  1.00  0.00    -0.303 OA
ENDBRANCH  30  45
BRANCH  37  47
ATOM     47  O   UNL     1      21.787  64.078  33.947  1.00  0.00    -0.389 OA
ATOM     48  H   UNL     1      22.404  64.589  34.534  1.00  0.00     0.211 HD
ENDBRANCH  37  47
BRANCH  40  49
ATOM     49  C   UNL     1      18.469  63.232  32.819  1.00  0.00    -0.022 C 
ATOM     50  C   UNL     1      17.288  63.830  32.700  1.00  0.00     0.096 C 
ATOM     51  C   UNL     1      19.254  63.446  31.537  1.00  0.00     0.265 C 
ATOM     52  C   UNL     1      17.270  64.438  31.397  1.00  0.00     0.331 C 
ATOM     53  O   UNL     1      18.415  64.205  30.741  1.00  0.00    -0.458 OA
ATOM     54  O   UNL     1      16.347  65.093  30.940  1.00  0.00    -0.247 OA
ENDBRANCH  40  49
ENDBRANCH  24  25
ENDBRANCH   4  24
BRANCH   6  55
ATOM     55  O   UNL     1      28.136  57.089  42.299  1.00  0.00    -0.390 OA
ATOM     56  H   UNL     1      27.342  56.818  42.827  1.00  0.00     0.211 HD
ENDBRANCH   6  55
TORSDOF 14
ENDMDL
MODEL 5
REMARK VINA RESULT:   -12.223      2.324     13.700
REMARK INTER + INTRA:         -20.837
REMARK INTER:                 -20.036
REMARK INTRA:                  -0.801
REMARK UNBOUND:                -1.110
REMARK SMILES C[C@H]1O[C@@H](O[C@H]2CC[C@]3(C=O)[C@H]4CC[C@]5(C)[C@@H](C6=CC(=O)OC6)CC[C@]5(O)[C@@H]4CC[C@]3(O)C2)C[C@H](O)[C@H]1O[C@@H]1O[C@H](CO)[C@@H](O)[C@H](O)[C@H]1O
REMARK SMILES IDX 1 1 2 2 3 3 4 4 34 5 35 6 37 7 38 8 39 9 40 10 48 11 41 12
REMARK SMILES IDX 46 13 44 14 49 15 42 17 43 18 47 20 45 22 5 24 6 25 7 26
REMARK SMILES IDX 33 27 8 28 31 29 9 30 30 31 12 32 29 33 13 34 28 35 14 36
REMARK SMILES IDX 26 37 15 38 25 39 17 40 24 41 16 42 32 43 10 45 11 46 27 47
REMARK SMILES IDX 18 49 19 50 23 51 20 52 22 53 21 54 36 55
REMARK H PARENT 49 16 43 19 47 21 45 23 32 44 27 48 36 56
ROOT
ATOM      1  C   UNL     1      24.951  62.161  37.075  1.00  0.00     0.041 C 
ATOM      2  C   UNL     1      23.823  61.123  37.207  1.00  0.00     0.150 C 
ATOM      3  O   UNL     1      24.299  59.909  37.775  1.00  0.00    -0.347 OA
ATOM      4  C   UNL     1      24.268  59.810  39.204  1.00  0.00     0.253 C 
ATOM      5  C   UNL     1      23.873  61.094  39.967  1.00  0.00     0.096 C 
ATOM      6  C   UNL     1      22.664  61.829  39.395  1.00  0.00     0.151 C 
ATOM      7  C   UNL     1      22.518  61.578  37.886  1.00  0.00     0.179 C 
ENDROOT
BRANCH   7   8
ATOM      8  O   UNL     1      21.991  62.739  37.261  1.00  0.00    -0.341 OA
BRANCH   8   9
ATOM      9  C   UNL     1      21.140  62.450  36.167  1.00  0.00     0.282 C 
ATOM     10  O   UNL     1      21.233  63.519  35.240  1.00  0.00    -0.341 OA
ATOM     11  C   UNL     1      19.694  62.332  36.681  1.00  0.00     0.202 C 
ATOM     12  C   UNL     1      20.501  63.231  34.061  1.00  0.00     0.178 C 
ATOM     13  C   UNL     1      18.782  62.015  35.481  1.00  0.00     0.179 C 
ATOM     14  C   UNL     1      18.988  63.082  34.386  1.00  0.00     0.177 C 
BRANCH  11  15
ATOM     15  O   UNL     1      19.580  61.345  37.676  1.00  0.00    -0.385 OA
ATOM     16  H   UNL     1      19.032  61.718  38.414  1.00  0.00     0.211 HD
ENDBRANCH  11  15
BRANCH  12  17
ATOM     17  C   UNL     1      20.719  64.377  33.063  1.00  0.00     0.191 C 
BRANCH  17  18
ATOM     18  O   UNL     1      22.076  64.724  33.005  1.00  0.00    -0.394 OA
ATOM     19  H   UNL     1      22.573  63.899  32.755  1.00  0.00     0.210 HD
ENDBRANCH  17  18
ENDBRANCH  12  17
BRANCH  13  20
ATOM     20  O   UNL     1      17.434  61.931  35.868  1.00  0.00    -0.387 OA
ATOM     21  H   UNL     1      16.900  61.726  35.056  1.00  0.00     0.211 HD
ENDBRANCH  13  20
BRANCH  14  22
ATOM     22  O   UNL     1      18.244  62.763  33.236  1.00  0.00    -0.387 OA
ATOM     23  H   UNL     1      17.758  63.583  32.961  1.00  0.00     0.211 HD
ENDBRANCH  14  22
ENDBRANCH   8   9
ENDBRANCH   7   8
BRANCH   4  24
ATOM     24  O   UNL     1      25.589  59.588  39.604  1.00  0.00    -0.349 OA
BRANCH  24  25
ATOM     25  C   UNL     1      25.824  58.612  40.586  1.00  0.00     0.124 C 
ATOM     26  C   UNL     1      27.274  58.090  40.347  1.00  0.00     0.033 C 
ATOM     27  C   UNL     1      25.673  59.352  41.948  1.00  0.00     0.068 C 
ATOM     28  C   UNL     1      28.012  57.896  41.664  1.00  0.00     0.020 C 
ATOM     29  C   UNL     1      26.926  60.231  42.179  1.00  0.00     0.080 C 
ATOM     30  C   UNL     1      28.164  59.248  42.488  1.00  0.00     0.058 C 
ATOM     31  C   UNL     1      26.721  61.298  43.279  1.00  0.00     0.037 C 
ATOM     32  C   UNL     1      28.210  58.834  44.021  1.00  0.00     0.011 C 
ATOM     33  C   UNL     1      26.726  60.754  44.696  1.00  0.00     0.010 C 
ATOM     34  C   UNL     1      29.446  57.941  44.375  1.00  0.00     0.006 C 
ATOM     35  C   UNL     1      28.088  60.083  44.953  1.00  0.00     0.026 C 
ATOM     36  C   UNL     1      30.427  58.678  45.279  1.00  0.00     0.010 C 
ATOM     37  C   UNL     1      28.371  59.798  46.467  1.00  0.00     0.074 C 
ATOM     38  C   UNL     1      29.834  59.216  46.642  1.00  0.00     0.003 C 
ATOM     39  C   UNL     1      27.432  58.751  47.152  1.00  0.00     0.037 C 
ATOM     40  C   UNL     1      29.678  58.057  47.680  1.00  0.00     0.028 C 
ATOM     41  C   UNL     1      28.266  57.513  47.449  1.00  0.00     0.012 C 
ATOM     42  C   UNL     1      30.877  60.284  47.089  1.00  0.00     0.015 C 
BRANCH  29  43
ATOM     43  O   UNL     1      27.172  60.956  40.987  1.00  0.00    -0.389 OA
ATOM     44  H   UNL     1      28.153  61.024  40.846  1.00  0.00     0.211 HD
ENDBRANCH  29  43
BRANCH  30  45
ATOM     45  C   UNL     1      29.495  59.924  42.120  1.00  0.00     0.234 C 
ATOM     46  O   UNL     1      29.927  59.974  40.980  1.00  0.00    -0.303 OA
ENDBRANCH  30  45
BRANCH  37  47
ATOM     47  O   UNL     1      28.275  61.022  47.174  1.00  0.00    -0.389 OA
ATOM     48  H   UNL     1      28.907  61.012  47.940  1.00  0.00     0.211 HD
ENDBRANCH  37  47
BRANCH  40  49
ATOM     49  C   UNL     1      29.893  58.469  49.138  1.00  0.00    -0.022 C 
ATOM     50  C   UNL     1      28.883  58.821  49.926  1.00  0.00     0.096 C 
ATOM     51  C   UNL     1      31.182  58.544  49.937  1.00  0.00     0.265 C 
ATOM     52  C   UNL     1      29.454  59.113  51.213  1.00  0.00     0.331 C 
ATOM     53  O   UNL     1      30.784  58.947  51.199  1.00  0.00    -0.458 OA
ATOM     54  O   UNL     1      28.824  59.456  52.200  1.00  0.00    -0.247 OA
ENDBRANCH  40  49
ENDBRANCH  24  25
ENDBRANCH   4  24
BRANCH   6  55
ATOM     55  O   UNL     1      21.472  61.499  40.063  1.00  0.00    -0.390 OA
ATOM     56  H   UNL     1      20.838  61.139  39.392  1.00  0.00     0.211 HD
ENDBRANCH   6  55
TORSDOF 14
ENDMDL
MODEL 6
REMARK VINA RESULT:   -12.152      1.484      2.193
REMARK INTER + INTRA:         -20.721
REMARK INTER:                 -19.264
REMARK INTRA:                  -1.457
REMARK UNBOUND:                -1.110
REMARK SMILES C[C@H]1O[C@@H](O[C@H]2CC[C@]3(C=O)[C@H]4CC[C@]5(C)[C@@H](C6=CC(=O)OC6)CC[C@]5(O)[C@@H]4CC[C@]3(O)C2)C[C@H](O)[C@H]1O[C@@H]1O[C@H](CO)[C@@H](O)[C@H](O)[C@H]1O
REMARK SMILES IDX 1 1 2 2 3 3 4 4 34 5 35 6 37 7 38 8 39 9 40 10 48 11 41 12
REMARK SMILES IDX 46 13 44 14 49 15 42 17 43 18 47 20 45 22 5 24 6 25 7 26
REMARK SMILES IDX 33 27 8 28 31 29 9 30 30 31 12 32 29 33 13 34 28 35 14 36
REMARK SMILES IDX 26 37 15 38 25 39 17 40 24 41 16 42 32 43 10 45 11 46 27 47
REMARK SMILES IDX 18 49 19 50 23 51 20 52 22 53 21 54 36 55
REMARK H PARENT 49 16 43 19 47 21 45 23 32 44 27 48 36 56
ROOT
ATOM      1  C   UNL     1      25.581  57.292  41.498  1.00  0.00     0.041 C 
ATOM      2  C   UNL     1      26.629  58.412  41.622  1.00  0.00     0.150 C 
ATOM      3  O   UNL     1      26.330  59.501  40.758  1.00  0.00    -0.347 OA
ATOM      4  C   UNL     1      25.481  60.528  41.284  1.00  0.00     0.253 C 
ATOM      5  C   UNL     1      24.859  60.253  42.672  1.00  0.00     0.096 C 
ATOM      6  C   UNL     1      25.832  59.696  43.707  1.00  0.00     0.151 C 
ATOM      7  C   UNL     1      26.970  58.908  43.040  1.00  0.00     0.179 C 
ENDROOT
BRANCH   7   8
ATOM      8  O   UNL     1      27.358  57.831  43.882  1.00  0.00    -0.341 OA
BRANCH   8   9
ATOM      9  C   UNL     1      28.631  58.013  44.474  1.00  0.00     0.282 C 
ATOM     10  O   UNL     1      28.668  59.305  45.056  1.00  0.00    -0.341 OA
ATOM     11  C   UNL     1      29.708  57.905  43.380  1.00  0.00     0.202 C 
ATOM     12  C   UNL     1      29.872  59.501  45.778  1.00  0.00     0.178 C 
ATOM     13  C   UNL     1      31.085  58.101  44.040  1.00  0.00     0.179 C 
ATOM     14  C   UNL     1      31.094  59.433  44.820  1.00  0.00     0.177 C 
BRANCH  11  15
ATOM     15  O   UNL     1      29.640  56.670  42.711  1.00  0.00    -0.385 OA
ATOM     16  H   UNL     1      30.553  56.281  42.697  1.00  0.00     0.211 HD
ENDBRANCH  11  15
BRANCH  12  17
ATOM     17  C   UNL     1      29.809  60.874  46.461  1.00  0.00     0.191 C 
BRANCH  17  18
ATOM     18  O   UNL     1      28.497  61.367  46.450  1.00  0.00    -0.394 OA
ATOM     19  H   UNL     1      28.381  61.893  47.286  1.00  0.00     0.210 HD
ENDBRANCH  17  18
ENDBRANCH  12  17
BRANCH  13  20
ATOM     20  O   UNL     1      32.121  58.055  43.092  1.00  0.00    -0.387 OA
ATOM     21  H   UNL     1      32.874  57.547  43.494  1.00  0.00     0.211 HD
ENDBRANCH  13  20
BRANCH  14  22
ATOM     22  O   UNL     1      32.304  59.591  45.517  1.00  0.00    -0.387 OA
ATOM     23  H   UNL     1      32.553  60.551  45.465  1.00  0.00     0.211 HD
ENDBRANCH  14  22
ENDBRANCH   8   9
ENDBRANCH   7   8
BRANCH   4  24
ATOM     24  O   UNL     1      24.371  60.583  40.436  1.00  0.00    -0.349 OA
BRANCH  24  25
ATOM     25  C   UNL     1      24.140  61.776  39.731  1.00  0.00     0.124 C 
ATOM     26  C   UNL     1      24.972  61.676  38.416  1.00  0.00     0.033 C 
ATOM     27  C   UNL     1      22.605  61.806  39.465  1.00  0.00     0.068 C 
ATOM     28  C   UNL     1      24.186  62.211  37.227  1.00  0.00     0.020 C 
ATOM     29  C   UNL     1      22.275  60.796  38.340  1.00  0.00     0.080 C 
ATOM     30  C   UNL     1      22.848  61.394  36.959  1.00  0.00     0.058 C 
ATOM     31  C   UNL     1      20.769  60.450  38.262  1.00  0.00     0.037 C 
ATOM     32  C   UNL     1      21.826  62.416  36.299  1.00  0.00     0.011 C 
ATOM     33  C   UNL     1      19.900  61.541  37.666  1.00  0.00     0.010 C 
ATOM     34  C   UNL     1      22.315  62.959  34.915  1.00  0.00     0.006 C 
ATOM     35  C   UNL     1      20.384  61.817  36.231  1.00  0.00     0.026 C 
ATOM     36  C   UNL     1      21.442  62.451  33.775  1.00  0.00     0.010 C 
ATOM     37  C   UNL     1      19.370  62.651  35.376  1.00  0.00     0.074 C 
ATOM     38  C   UNL     1      19.901  62.784  33.889  1.00  0.00     0.003 C 
ATOM     39  C   UNL     1      19.122  64.120  35.852  1.00  0.00     0.037 C 
ATOM     40  C   UNL     1      19.620  64.273  33.500  1.00  0.00     0.028 C 
ATOM     41  C   UNL     1      19.736  65.048  34.815  1.00  0.00     0.012 C 
ATOM     42  C   UNL     1      19.241  61.773  32.903  1.00  0.00     0.015 C 
BRANCH  29  43
ATOM     43  O   UNL     1      22.929  59.577  38.647  1.00  0.00    -0.389 OA
ATOM     44  H   UNL     1      23.675  59.761  39.277  1.00  0.00     0.211 HD
ENDBRANCH  29  43
BRANCH  30  45
ATOM     45  C   UNL     1      23.130  60.263  35.957  1.00  0.00     0.234 C 
ATOM     46  O   UNL     1      24.161  59.610  35.959  1.00  0.00    -0.303 OA
ENDBRANCH  30  45
BRANCH  37  47
ATOM     47  O   UNL     1      18.132  61.964  35.363  1.00  0.00    -0.389 OA
ATOM     48  H   UNL     1      17.696  62.084  34.478  1.00  0.00     0.211 HD
ENDBRANCH  37  47
BRANCH  40  49
ATOM     49  C   UNL     1      18.271  64.514  32.819  1.00  0.00    -0.022 C 
ATOM     50  C   UNL     1      17.207  64.931  33.495  1.00  0.00     0.096 C 
ATOM     51  C   UNL     1      17.890  64.361  31.357  1.00  0.00     0.265 C 
ATOM     52  C   UNL     1      16.144  65.070  32.535  1.00  0.00     0.331 C 
ATOM     53  O   UNL     1      16.560  64.736  31.306  1.00  0.00    -0.458 OA
ATOM     54  O   UNL     1      15.014  65.452  32.789  1.00  0.00    -0.247 OA
ENDBRANCH  40  49
ENDBRANCH  24  25
ENDBRANCH   4  24
BRANCH   6  55
ATOM     55  O   UNL     1      26.356  60.698  44.542  1.00  0.00    -0.390 OA
ATOM     56  H   UNL     1      25.704  61.445  44.566  1.00  0.00     0.211 HD
ENDBRANCH   6  55
TORSDOF 14
ENDMDL
MODEL 7
REMARK VINA RESULT:   -12.126      1.585      2.852
REMARK INTER + INTRA:         -20.680
REMARK INTER:                 -19.412
REMARK INTRA:                  -1.268
REMARK UNBOUND:                -1.110
REMARK SMILES C[C@H]1O[C@@H](O[C@H]2CC[C@]3(C=O)[C@H]4CC[C@]5(C)[C@@H](C6=CC(=O)OC6)CC[C@]5(O)[C@@H]4CC[C@]3(O)C2)C[C@H](O)[C@H]1O[C@@H]1O[C@H](CO)[C@@H](O)[C@H](O)[C@H]1O
REMARK SMILES IDX 1 1 2 2 3 3 4 4 34 5 35 6 37 7 38 8 39 9 40 10 48 11 41 12
REMARK SMILES IDX 46 13 44 14 49 15 42 17 43 18 47 20 45 22 5 24 6 25 7 26
REMARK SMILES IDX 33 27 8 28 31 29 9 30 30 31 12 32 29 33 13 34 28 35 14 36
REMARK SMILES IDX 26 37 15 38 25 39 17 40 24 41 16 42 32 43 10 45 11 46 27 47
REMARK SMILES IDX 18 49 19 50 23 51 20 52 22 53 21 54 36 55
REMARK H PARENT 49 16 43 19 47 21 45 23 32 44 27 48 36 56
ROOT
ATOM      1  C   UNL     1      27.983  59.669  40.823  1.00  0.00     0.041 C 
ATOM      2  C   UNL     1      27.082  59.660  42.071  1.00  0.00     0.150 C 
ATOM      3  O   UNL     1      25.753  60.055  41.756  1.00  0.00    -0.347 OA
ATOM      4  C   UNL     1      24.850  59.017  41.357  1.00  0.00     0.253 C 
ATOM      5  C   UNL     1      25.467  57.614  41.161  1.00  0.00     0.096 C 
ATOM      6  C   UNL     1      26.423  57.179  42.269  1.00  0.00     0.151 C 
ATOM      7  C   UNL     1      27.090  58.389  42.940  1.00  0.00     0.179 C 
ENDROOT
BRANCH   7   8
ATOM      8  O   UNL     1      28.411  58.044  43.334  1.00  0.00    -0.341 OA
BRANCH   8   9
ATOM      9  C   UNL     1      28.649  58.224  44.718  1.00  0.00     0.282 C 
ATOM     10  O   UNL     1      27.425  58.028  45.407  1.00  0.00    -0.341 OA
ATOM     11  C   UNL     1      29.154  59.659  44.952  1.00  0.00     0.202 C 
ATOM     12  C   UNL     1      27.622  58.069  46.809  1.00  0.00     0.178 C 
ATOM     13  C   UNL     1      29.411  59.838  46.460  1.00  0.00     0.179 C 
ATOM     14  C   UNL     1      28.134  59.471  47.244  1.00  0.00     0.177 C 
BRANCH  11  15
ATOM     15  O   UNL     1      30.317  59.924  44.207  1.00  0.00    -0.385 OA
ATOM     16  H   UNL     1      30.796  59.065  44.076  1.00  0.00     0.211 HD
ENDBRANCH  11  15
BRANCH  12  17
ATOM     17  C   UNL     1      26.285  57.755  47.496  1.00  0.00     0.191 C 
BRANCH  17  18
ATOM     18  O   UNL     1      25.249  57.715  46.553  1.00  0.00    -0.394 OA
ATOM     19  H   UNL     1      24.572  57.072  46.898  1.00  0.00     0.210 HD
ENDBRANCH  17  18
ENDBRANCH  12  17
BRANCH  13  20
ATOM     20  O   UNL     1      29.839  61.142  46.758  1.00  0.00    -0.387 OA
ATOM     21  H   UNL     1      30.347  61.105  47.610  1.00  0.00     0.211 HD
ENDBRANCH  13  20
BRANCH  14  22
ATOM     22  O   UNL     1      28.369  59.526  48.629  1.00  0.00    -0.387 OA
ATOM     23  H   UNL     1      27.792  60.245  48.999  1.00  0.00     0.211 HD
ENDBRANCH  14  22
ENDBRANCH   8   9
ENDBRANCH   7   8
BRANCH   4  24
ATOM     24  O   UNL     1      24.410  59.360  40.075  1.00  0.00    -0.349 OA
BRANCH  24  25
ATOM     25  C   UNL     1      23.094  59.832  39.935  1.00  0.00     0.124 C 
ATOM     26  C   UNL     1      23.145  61.365  40.215  1.00  0.00     0.033 C 
ATOM     27  C   UNL     1      22.694  59.508  38.465  1.00  0.00     0.068 C 
ATOM     28  C   UNL     1      22.265  62.132  39.240  1.00  0.00     0.020 C 
ATOM     29  C   UNL     1      23.408  60.506  37.523  1.00  0.00     0.080 C 
ATOM     30  C   UNL     1      22.722  61.949  37.727  1.00  0.00     0.058 C 
ATOM     31  C   UNL     1      23.409  60.048  36.045  1.00  0.00     0.037 C 
ATOM     32  C   UNL     1      21.411  62.101  36.843  1.00  0.00     0.011 C 
ATOM     33  C   UNL     1      22.073  60.192  35.339  1.00  0.00     0.010 C 
ATOM     34  C   UNL     1      20.760  63.520  36.956  1.00  0.00     0.006 C 
ATOM     35  C   UNL     1      21.670  61.677  35.360  1.00  0.00     0.026 C 
ATOM     36  C   UNL     1      20.873  64.292  35.647  1.00  0.00     0.010 C 
ATOM     37  C   UNL     1      20.509  62.027  34.369  1.00  0.00     0.074 C 
ATOM     38  C   UNL     1      20.244  63.590  34.379  1.00  0.00     0.003 C 
ATOM     39  C   UNL     1      19.122  61.378  34.686  1.00  0.00     0.037 C 
ATOM     40  C   UNL     1      18.686  63.727  34.378  1.00  0.00     0.028 C 
ATOM     41  C   UNL     1      18.184  62.492  35.129  1.00  0.00     0.012 C 
ATOM     42  C   UNL     1      20.912  64.338  33.186  1.00  0.00     0.015 C 
BRANCH  29  43
ATOM     43  O   UNL     1      24.772  60.562  37.904  1.00  0.00    -0.389 OA
ATOM     44  H   UNL     1      24.930  61.399  38.416  1.00  0.00     0.211 HD
ENDBRANCH  29  43
BRANCH  30  45
ATOM     45  C   UNL     1      23.703  63.072  37.349  1.00  0.00     0.234 C 
ATOM     46  O   UNL     1      24.748  63.275  37.947  1.00  0.00    -0.303 OA
ENDBRANCH  30  45
BRANCH  37  47
ATOM     47  O   UNL     1      20.905  61.635  33.067  1.00  0.00    -0.389 OA
ATOM     48  H   UNL     1      20.387  62.152  32.394  1.00  0.00     0.211 HD
ENDBRANCH  37  47
BRANCH  40  49
ATOM     49  C   UNL     1      18.053  63.839  32.988  1.00  0.00    -0.022 C 
ATOM     50  C   UNL     1      17.061  64.684  32.733  1.00  0.00     0.096 C 
ATOM     51  C   UNL     1      18.396  63.091  31.713  1.00  0.00     0.265 C 
ATOM     52  C   UNL     1      16.745  64.531  31.338  1.00  0.00     0.331 C 
ATOM     53  O   UNL     1      17.528  63.606  30.767  1.00  0.00    -0.458 OA
ATOM     54  O   UNL     1      15.890  65.162  30.738  1.00  0.00    -0.247 OA
ENDBRANCH  40  49
ENDBRANCH  24  25
ENDBRANCH   4  24
BRANCH   6  55
ATOM     55  O   UNL     1      25.794  56.371  43.231  1.00  0.00    -0.390 OA
ATOM     56  H   UNL     1      25.493  55.540  42.780  1.00  0.00     0.211 HD
ENDBRANCH   6  55
TORSDOF 14
ENDMDL
MODEL 8
REMARK VINA RESULT:   -12.107      3.567     13.834
REMARK INTER + INTRA:         -20.650
REMARK INTER:                 -19.935
REMARK INTRA:                  -0.715
REMARK UNBOUND:                -1.110
REMARK SMILES C[C@H]1O[C@@H](O[C@H]2CC[C@]3(C=O)[C@H]4CC[C@]5(C)[C@@H](C6=CC(=O)OC6)CC[C@]5(O)[C@@H]4CC[C@]3(O)C2)C[C@H](O)[C@H]1O[C@@H]1O[C@H](CO)[C@@H](O)[C@H](O)[C@H]1O
REMARK SMILES IDX 1 1 2 2 3 3 4 4 34 5 35 6 37 7 38 8 39 9 40 10 48 11 41 12
REMARK SMILES IDX 46 13 44 14 49 15 42 17 43 18 47 20 45 22 5 24 6 25 7 26
REMARK SMILES IDX 33 27 8 28 31 29 9 30 30 31 12 32 29 33 13 34 28 35 14 36
REMARK SMILES IDX 26 37 15 38 25 39 17 40 24 41 16 42 32 43 10 45 11 46 27 47
REMARK SMILES IDX 18 49 19 50 23 51 20 52 22 53 21 54 36 55
REMARK H PARENT 49 16 43 19 47 21 45 23 32 44 27 48 36 56
ROOT
ATOM      1  C   UNL     1      21.266  60.205  39.523  1.00  0.00     0.041 C 
ATOM      2  C   UNL     1      22.150  61.371  39.048  1.00  0.00     0.150 C 
ATOM      3  O   UNL     1      23.101  61.740  40.038  1.00  0.00    -0.347 OA
ATOM      4  C   UNL     1      24.359  61.055  40.011  1.00  0.00     0.253 C 
ATOM      5  C   UNL     1      24.475  59.884  39.010  1.00  0.00     0.096 C 
ATOM      6  C   UNL     1      23.928  60.180  37.617  1.00  0.00     0.151 C 
ATOM      7  C   UNL     1      22.815  61.237  37.665  1.00  0.00     0.179 C 
ENDROOT
BRANCH   7   8
ATOM      8  O   UNL     1      21.853  60.959  36.657  1.00  0.00    -0.341 OA
BRANCH   8   9
ATOM      9  C   UNL     1      21.194  62.116  36.175  1.00  0.00     0.282 C 
ATOM     10  O   UNL     1      19.856  61.765  35.862  1.00  0.00    -0.341 OA
ATOM     11  C   UNL     1      21.915  62.604  34.906  1.00  0.00     0.202 C 
ATOM     12  C   UNL     1      19.107  62.910  35.494  1.00  0.00     0.178 C 
ATOM     13  C   UNL     1      21.189  63.864  34.396  1.00  0.00     0.179 C 
ATOM     14  C   UNL     1      19.691  63.548  34.203  1.00  0.00     0.177 C 
BRANCH  11  15
ATOM     15  O   UNL     1      23.273  62.870  35.154  1.00  0.00    -0.385 OA
ATOM     16  H   UNL     1      23.451  62.676  36.111  1.00  0.00     0.211 HD
ENDBRANCH  11  15
BRANCH  12  17
ATOM     17  C   UNL     1      17.651  62.482  35.262  1.00  0.00     0.191 C 
BRANCH  17  18
ATOM     18  O   UNL     1      17.183  61.730  36.349  1.00  0.00    -0.394 OA
ATOM     19  H   UNL     1      16.546  62.310  36.846  1.00  0.00     0.210 HD
ENDBRANCH  17  18
ENDBRANCH  12  17
BRANCH  13  20
ATOM     20  O   UNL     1      21.769  64.347  33.211  1.00  0.00    -0.387 OA
ATOM     21  H   UNL     1      21.041  64.727  32.653  1.00  0.00     0.211 HD
ENDBRANCH  13  20
BRANCH  14  22
ATOM     22  O   UNL     1      18.984  64.706  33.835  1.00  0.00    -0.387 OA
ATOM     23  H   UNL     1      19.469  65.484  34.218  1.00  0.00     0.211 HD
ENDBRANCH  14  22
ENDBRANCH   8   9
ENDBRANCH   7   8
BRANCH   4  24
ATOM     24  O   UNL     1      24.486  60.433  41.256  1.00  0.00    -0.349 OA
BRANCH  24  25
ATOM     25  C   UNL     1      25.568  60.805  42.071  1.00  0.00     0.124 C 
ATOM     26  C   UNL     1      25.228  60.305  43.508  1.00  0.00     0.033 C 
ATOM     27  C   UNL     1      26.808  60.081  41.466  1.00  0.00     0.068 C 
ATOM     28  C   UNL     1      26.452  59.710  44.187  1.00  0.00     0.020 C 
ATOM     29  C   UNL     1      26.736  58.580  41.834  1.00  0.00     0.080 C 
ATOM     30  C   UNL     1      27.030  58.447  43.412  1.00  0.00     0.058 C 
ATOM     31  C   UNL     1      27.676  57.701  40.974  1.00  0.00     0.037 C 
ATOM     32  C   UNL     1      28.590  58.414  43.712  1.00  0.00     0.011 C 
ATOM     33  C   UNL     1      29.146  57.815  41.329  1.00  0.00     0.010 C 
ATOM     34  C   UNL     1      28.915  58.208  45.229  1.00  0.00     0.006 C 
ATOM     35  C   UNL     1      29.326  57.383  42.796  1.00  0.00     0.026 C 
ATOM     36  C   UNL     1      29.560  56.850  45.482  1.00  0.00     0.010 C 
ATOM     37  C   UNL     1      30.817  57.106  43.191  1.00  0.00     0.074 C 
ATOM     38  C   UNL     1      30.888  56.560  44.677  1.00  0.00     0.003 C 
ATOM     39  C   UNL     1      31.770  58.346  43.168  1.00  0.00     0.037 C 
ATOM     40  C   UNL     1      32.104  57.307  45.316  1.00  0.00     0.028 C 
ATOM     41  C   UNL     1      32.145  58.664  44.607  1.00  0.00     0.012 C 
ATOM     42  C   UNL     1      31.027  55.010  44.761  1.00  0.00     0.015 C 
BRANCH  29  43
ATOM     43  O   UNL     1      25.425  58.125  41.547  1.00  0.00    -0.389 OA
ATOM     44  H   UNL     1      25.345  57.963  40.570  1.00  0.00     0.211 HD
ENDBRANCH  29  43
BRANCH  30  45
ATOM     45  C   UNL     1      26.394  57.165  43.974  1.00  0.00     0.234 C 
ATOM     46  O   UNL     1      26.063  56.222  43.274  1.00  0.00    -0.303 OA
ENDBRANCH  30  45
BRANCH  37  47
ATOM     47  O   UNL     1      31.332  56.121  42.313  1.00  0.00    -0.389 OA
ATOM     48  H   UNL     1      31.278  56.452  41.378  1.00  0.00     0.211 HD
ENDBRANCH  37  47
BRANCH  40  49
ATOM     49  C   UNL     1      33.442  56.571  45.202  1.00  0.00    -0.022 C 
ATOM     50  C   UNL     1      34.280  56.788  44.195  1.00  0.00     0.096 C 
ATOM     51  C   UNL     1      34.054  55.541  46.133  1.00  0.00     0.265 C 
ATOM     52  C   UNL     1      35.425  55.950  44.433  1.00  0.00     0.331 C 
ATOM     53  O   UNL     1      35.275  55.238  45.557  1.00  0.00    -0.458 OA
ATOM     54  O   UNL     1      36.415  55.895  43.721  1.00  0.00    -0.247 OA
ENDBRANCH  40  49
ENDBRANCH  24  25
ENDBRANCH   4  24
BRANCH   6  55
ATOM     55  O   UNL     1      24.936  60.571  36.718  1.00  0.00    -0.390 OA
ATOM     56  H   UNL     1      25.623  59.856  36.703  1.00  0.00     0.211 HD
ENDBRANCH   6  55
TORSDOF 14
ENDMDL
MODEL 9
REMARK VINA RESULT:   -12.017      3.275     13.697
REMARK INTER + INTRA:         -20.504
REMARK INTER:                 -19.068
REMARK INTRA:                  -1.436
REMARK UNBOUND:                -1.110
REMARK SMILES C[C@H]1O[C@@H](O[C@H]2CC[C@]3(C=O)[C@H]4CC[C@]5(C)[C@@H](C6=CC(=O)OC6)CC[C@]5(O)[C@@H]4CC[C@]3(O)C2)C[C@H](O)[C@H]1O[C@@H]1O[C@H](CO)[C@@H](O)[C@H](O)[C@H]1O
REMARK SMILES IDX 1 1 2 2 3 3 4 4 34 5 35 6 37 7 38 8 39 9 40 10 48 11 41 12
REMARK SMILES IDX 46 13 44 14 49 15 42 17 43 18 47 20 45 22 5 24 6 25 7 26
REMARK SMILES IDX 33 27 8 28 31 29 9 30 30 31 12 32 29 33 13 34 28 35 14 36
REMARK SMILES IDX 26 37 15 38 25 39 17 40 24 41 16 42 32 43 10 45 11 46 27 47
REMARK SMILES IDX 18 49 19 50 23 51 20 52 22 53 21 54 36 55
REMARK H PARENT 49 16 43 19 47 21 45 23 32 44 27 48 36 56
ROOT
ATOM      1  C   UNL     1      24.085  62.891  39.262  1.00  0.00     0.041 C 
ATOM      2  C   UNL     1      23.510  61.887  38.247  1.00  0.00     0.150 C 
ATOM      3  O   UNL     1      23.825  60.547  38.605  1.00  0.00    -0.347 OA
ATOM      4  C   UNL     1      22.902  59.877  39.470  1.00  0.00     0.253 C 
ATOM      5  C   UNL     1      21.755  60.740  40.043  1.00  0.00     0.096 C 
ATOM      6  C   UNL     1      21.067  61.643  39.023  1.00  0.00     0.151 C 
ATOM      7  C   UNL     1      22.020  62.026  37.881  1.00  0.00     0.179 C 
ENDROOT
BRANCH   7   8
ATOM      8  O   UNL     1      21.721  63.341  37.434  1.00  0.00    -0.341 OA
BRANCH   8   9
ATOM      9  C   UNL     1      21.088  63.374  36.168  1.00  0.00     0.282 C 
ATOM     10  O   UNL     1      19.787  62.829  36.310  1.00  0.00    -0.341 OA
ATOM     11  C   UNL     1      21.905  62.520  35.183  1.00  0.00     0.202 C 
ATOM     12  C   UNL     1      19.054  62.950  35.103  1.00  0.00     0.178 C 
ATOM     13  C   UNL     1      21.207  62.568  33.811  1.00  0.00     0.179 C 
ATOM     14  C   UNL     1      19.735  62.132  33.971  1.00  0.00     0.177 C 
BRANCH  11  15
ATOM     15  O   UNL     1      23.234  62.971  35.089  1.00  0.00    -0.385 OA
ATOM     16  H   UNL     1      23.799  62.371  35.641  1.00  0.00     0.211 HD
ENDBRANCH  11  15
BRANCH  12  17
ATOM     17  C   UNL     1      17.629  62.433  35.348  1.00  0.00     0.191 C 
BRANCH  17  18
ATOM     18  O   UNL     1      17.572  61.702  36.542  1.00  0.00    -0.394 OA
ATOM     19  H   UNL     1      18.419  61.184  36.602  1.00  0.00     0.210 HD
ENDBRANCH  17  18
ENDBRANCH  12  17
BRANCH  13  20
ATOM     20  O   UNL     1      21.877  61.775  32.864  1.00  0.00    -0.387 OA
ATOM     21  H   UNL     1      22.360  62.385  32.249  1.00  0.00     0.211 HD
ENDBRANCH  13  20
BRANCH  14  22
ATOM     22  O   UNL     1      19.044  62.263  32.754  1.00  0.00    -0.387 OA
ATOM     23  H   UNL     1      19.602  62.827  32.156  1.00  0.00     0.211 HD
ENDBRANCH  14  22
ENDBRANCH   8   9
ENDBRANCH   7   8
BRANCH   4  24
ATOM     24  O   UNL     1      23.632  59.513  40.605  1.00  0.00    -0.349 OA
BRANCH  24  25
ATOM     25  C   UNL     1      25.009  59.792  40.620  1.00  0.00     0.124 C 
ATOM     26  C   UNL     1      25.259  60.706  41.858  1.00  0.00     0.033 C 
ATOM     27  C   UNL     1      25.709  58.406  40.751  1.00  0.00     0.068 C 
ATOM     28  C   UNL     1      26.535  60.309  42.586  1.00  0.00     0.020 C 
ATOM     29  C   UNL     1      25.552  57.904  42.206  1.00  0.00     0.080 C 
ATOM     30  C   UNL     1      26.485  58.821  43.145  1.00  0.00     0.058 C 
ATOM     31  C   UNL     1      25.849  56.394  42.360  1.00  0.00     0.037 C 
ATOM     32  C   UNL     1      27.986  58.299  43.160  1.00  0.00     0.011 C 
ATOM     33  C   UNL     1      27.320  56.030  42.294  1.00  0.00     0.010 C 
ATOM     34  C   UNL     1      28.906  59.120  44.124  1.00  0.00     0.006 C 
ATOM     35  C   UNL     1      28.052  56.761  43.433  1.00  0.00     0.026 C 
ATOM     36  C   UNL     1      29.353  58.283  45.316  1.00  0.00     0.010 C 
ATOM     37  C   UNL     1      29.492  56.210  43.711  1.00  0.00     0.074 C 
ATOM     38  C   UNL     1      30.118  56.944  44.968  1.00  0.00     0.003 C 
ATOM     39  C   UNL     1      30.534  56.412  42.562  1.00  0.00     0.037 C 
ATOM     40  C   UNL     1      31.599  57.235  44.560  1.00  0.00     0.028 C 
ATOM     41  C   UNL     1      31.554  57.433  43.043  1.00  0.00     0.012 C 
ATOM     42  C   UNL     1      30.012  56.117  46.285  1.00  0.00     0.015 C 
BRANCH  29  43
ATOM     43  O   UNL     1      24.193  58.063  42.574  1.00  0.00    -0.389 OA
ATOM     44  H   UNL     1      23.714  58.541  41.846  1.00  0.00     0.211 HD
ENDBRANCH  29  43
BRANCH  30  45
ATOM     45  C   UNL     1      25.953  58.834  44.588  1.00  0.00     0.234 C 
ATOM     46  O   UNL     1      25.260  57.942  45.052  1.00  0.00    -0.303 OA
ENDBRANCH  30  45
BRANCH  37  47
ATOM     47  O   UNL     1      29.389  54.825  43.991  1.00  0.00    -0.389 OA
ATOM     48  H   UNL     1      29.829  54.308  43.265  1.00  0.00     0.211 HD
ENDBRANCH  37  47
BRANCH  40  49
ATOM     49  C   UNL     1      32.600  56.148  44.958  1.00  0.00    -0.022 C 
ATOM     50  C   UNL     1      33.475  56.324  45.941  1.00  0.00     0.096 C 
ATOM     51  C   UNL     1      32.786  54.755  44.383  1.00  0.00     0.265 C 
ATOM     52  C   UNL     1      34.221  55.098  46.044  1.00  0.00     0.331 C 
ATOM     53  O   UNL     1      33.808  54.205  45.136  1.00  0.00    -0.458 OA
ATOM     54  O   UNL     1      35.108  54.881  46.855  1.00  0.00    -0.247 OA
ENDBRANCH  40  49
ENDBRANCH  24  25
ENDBRANCH   4  24
BRANCH   6  55
ATOM     55  O   UNL     1      19.892  61.069  38.508  1.00  0.00    -0.390 OA
ATOM     56  H   UNL     1      19.643  61.570  37.690  1.00  0.00     0.211 HD
ENDBRANCH   6  55
TORSDOF 14
ENDMDL
