MODEL 1
REMARK VINA RESULT:   -13.868      0.000      0.000
REMARK INTER + INTRA:         -21.393
REMARK INTER:                 -20.354
REMARK INTRA:                  -1.039
REMARK UNBOUND:                -1.039
REMARK SMILES C[C@H]1CC[C@]2(NC1)O[C@H]1C[C@H]3[C@@H]4CC=C5C[C@@H](O[C@@H]6O[C@H](CO)[C@@H](O[C@@H]7O[C@@H](C)[C@H](O)[C@@H](O)[C@H]7O)[C@H](O)[C@H]6O)CC[C@]5(C)[C@H]4CC[C@]3(C)[C@H]1[C@@H]2C
REMARK SMILES IDX 19 1 20 2 21 3 24 4 36 5 38 6 18 7 17 8 2 9 3 10 7 11 4 12
REMARK SMILES IDX 6 13 5 14 8 15 50 16 9 17 49 18 10 19 47 20 11 21 46 22
REMARK SMILES IDX 12 23 45 24 13 25 44 26 14 27 42 28 15 29 41 30 16 31 40 32
REMARK SMILES IDX 1 33 51 35 48 36 43 37 39 38 22 40 23 41 37 43 25 45 26 46
REMARK SMILES IDX 27 47 34 48 28 49 32 50 30 51 29 52 35 53 33 55 31 57
REMARK H PARENT 6 34 39 39 23 42 37 44 35 54 33 56 31 58
ROOT
ATOM      1  C   UNL     1      23.709  60.974  39.365  1.00  0.00     0.282 C 
ATOM      2  O   UNL     1      24.015  60.775  38.003  1.00  0.00    -0.341 OA
ATOM      3  C   UNL     1      22.861  60.409  37.273  1.00  0.00     0.178 C 
ATOM      4  C   UNL     1      21.818  61.560  37.283  1.00  0.00     0.184 C 
ATOM      5  C   UNL     1      21.508  61.972  38.736  1.00  0.00     0.180 C 
ATOM      6  C   UNL     1      22.823  62.228  39.508  1.00  0.00     0.202 C 
ENDROOT
BRANCH   1   7
ATOM      7  O   UNL     1      24.939  61.137  40.059  1.00  0.00    -0.346 OA
BRANCH   7   8
ATOM      8  C   UNL     1      25.613  59.902  40.260  1.00  0.00     0.125 C 
ATOM      9  C   UNL     1      29.908  51.389  50.172  1.00  0.00    -0.000 C 
ATOM     10  C   UNL     1      30.584  51.792  48.832  1.00  0.00     0.009 C 
ATOM     11  C   UNL     1      28.933  52.484  50.674  1.00  0.00     0.087 C 
ATOM     12  C   UNL     1      30.512  53.306  48.623  1.00  0.00     0.053 C 
ATOM     13  N   UNL     1      28.158  53.058  49.574  1.00  0.00    -0.289 NA
ATOM     14  C   UNL     1      28.992  53.699  48.514  1.00  0.00     0.122 C 
ATOM     15  O   UNL     1      28.515  53.257  47.250  1.00  0.00    -0.357 OA
ATOM     16  C   UNL     1      28.720  55.213  48.525  1.00  0.00     0.039 C 
ATOM     17  C   UNL     1      28.696  54.329  46.345  1.00  0.00     0.125 C 
ATOM     18  C   UNL     1      29.033  55.628  47.092  1.00  0.00     0.031 C 
ATOM     19  C   UNL     1      27.459  54.634  45.505  1.00  0.00     0.037 C 
ATOM     20  C   UNL     1      28.164  56.749  46.392  1.00  0.00    -0.024 C 
ATOM     21  C   UNL     1      27.801  56.055  45.066  1.00  0.00     0.002 C 
ATOM     22  C   UNL     1      28.933  58.039  46.001  1.00  0.00     0.008 C 
ATOM     23  C   UNL     1      26.785  56.865  44.247  1.00  0.00     0.000 C 
ATOM     24  C   UNL     1      28.033  58.973  45.140  1.00  0.00     0.005 C 
ATOM     25  C   UNL     1      26.427  56.102  42.965  1.00  0.00     0.031 C 
ATOM     26  C   UNL     1      27.385  58.262  43.888  1.00  0.00     0.003 C 
ATOM     27  C   UNL     1      25.600  56.926  42.036  1.00  0.00    -0.027 C 
ATOM     28  C   UNL     1      26.271  59.137  43.158  1.00  0.00    -0.008 C 
ATOM     29  C   UNL     1      25.501  58.266  42.128  1.00  0.00    -0.065 C 
ATOM     30  C   UNL     1      26.897  60.379  42.409  1.00  0.00     0.014 C 
ATOM     31  C   UNL     1      24.691  58.995  41.103  1.00  0.00     0.063 C 
ATOM     32  C   UNL     1      27.015  60.135  40.901  1.00  0.00     0.033 C 
ATOM     33  C   UNL     1      29.217  50.026  50.024  1.00  0.00     0.009 C 
ATOM     34  H   UNL     1      27.550  52.308  49.168  1.00  0.00     0.125 HD
ATOM     35  C   UNL     1      29.423  56.056  49.594  1.00  0.00     0.012 C 
ATOM     36  C   UNL     1      26.894  57.119  47.252  1.00  0.00     0.012 C 
ATOM     37  C   UNL     1      25.242  59.705  44.178  1.00  0.00     0.016 C 
ENDBRANCH   7   8
ENDBRANCH   1   7
BRANCH   6  38
ATOM     38  O   UNL     1      22.563  62.537  40.854  1.00  0.00    -0.385 OA
ATOM     39  H   UNL     1      21.625  62.271  41.050  1.00  0.00     0.211 HD
ENDBRANCH   6  38
BRANCH   3  40
ATOM     40  C   UNL     1      23.295  60.090  35.839  1.00  0.00     0.191 C 
BRANCH  40  41
ATOM     41  O   UNL     1      24.597  59.563  35.826  1.00  0.00    -0.394 OA
ATOM     42  H   UNL     1      24.803  59.338  34.880  1.00  0.00     0.210 HD
ENDBRANCH  40  41
ENDBRANCH   3  40
BRANCH   5  43
ATOM     43  O   UNL     1      20.663  63.094  38.785  1.00  0.00    -0.387 OA
ATOM     44  H   UNL     1      21.237  63.899  38.883  1.00  0.00     0.211 HD
ENDBRANCH   5  43
BRANCH   4  45
ATOM     45  O   UNL     1      20.634  61.092  36.644  1.00  0.00    -0.341 OA
BRANCH  45  46
ATOM     46  C   UNL     1      20.218  61.912  35.569  1.00  0.00     0.282 C 
ATOM     47  O   UNL     1      21.288  62.797  35.239  1.00  0.00    -0.344 OA
ATOM     48  C   UNL     1      18.976  62.714  36.031  1.00  0.00     0.202 C 
ATOM     49  C   UNL     1      20.974  63.665  34.155  1.00  0.00     0.150 C 
ATOM     50  C   UNL     1      18.502  63.681  34.921  1.00  0.00     0.179 C 
ATOM     51  C   UNL     1      19.702  64.526  34.445  1.00  0.00     0.174 C 
ATOM     52  C   UNL     1      21.032  62.929  32.804  1.00  0.00     0.041 C 
BRANCH  48  53
ATOM     53  O   UNL     1      17.927  61.877  36.455  1.00  0.00    -0.385 OA
ATOM     54  H   UNL     1      17.919  61.882  37.447  1.00  0.00     0.211 HD
ENDBRANCH  48  53
BRANCH  50  55
ATOM     55  O   UNL     1      17.862  63.036  33.843  1.00  0.00    -0.387 OA
ATOM     56  H   UNL     1      18.432  63.063  33.043  1.00  0.00     0.211 HD
ENDBRANCH  50  55
BRANCH  51  57
ATOM     57  O   UNL     1      19.994  65.498  35.424  1.00  0.00    -0.388 OA
ATOM     58  H   UNL     1      20.047  66.390  34.994  1.00  0.00     0.211 HD
ENDBRANCH  51  57
ENDBRANCH  45  46
ENDBRANCH   4  45
TORSDOF 11
ENDMDL
MODEL 2
REMARK VINA RESULT:   -13.829      1.564      2.562
REMARK INTER + INTRA:         -21.336
REMARK INTER:                 -19.927
REMARK INTRA:                  -1.409
REMARK UNBOUND:                -1.039
REMARK SMILES C[C@H]1CC[C@]2(NC1)O[C@H]1C[C@H]3[C@@H]4CC=C5C[C@@H](O[C@@H]6O[C@H](CO)[C@@H](O[C@@H]7O[C@@H](C)[C@H](O)[C@@H](O)[C@H]7O)[C@H](O)[C@H]6O)CC[C@]5(C)[C@H]4CC[C@]3(C)[C@H]1[C@@H]2C
REMARK SMILES IDX 19 1 20 2 21 3 24 4 36 5 38 6 18 7 17 8 2 9 3 10 7 11 4 12
REMARK SMILES IDX 6 13 5 14 8 15 50 16 9 17 49 18 10 19 47 20 11 21 46 22
REMARK SMILES IDX 12 23 45 24 13 25 44 26 14 27 42 28 15 29 41 30 16 31 40 32
REMARK SMILES IDX 1 33 51 35 48 36 43 37 39 38 22 40 23 41 37 43 25 45 26 46
REMARK SMILES IDX 27 47 34 48 28 49 32 50 30 51 29 52 35 53 33 55 31 57
REMARK H PARENT 6 34 39 39 23 42 37 44 35 54 33 56 31 58
ROOT
ATOM      1  C   UNL     1      24.360  61.452  39.277  1.00  0.00     0.282 C 
ATOM      2  O   UNL     1      23.161  60.717  39.377  1.00  0.00    -0.341 OA
ATOM      3  C   UNL     1      22.066  61.468  38.894  1.00  0.00     0.178 C 
ATOM      4  C   UNL     1      22.227  61.759  37.376  1.00  0.00     0.184 C 
ATOM      5  C   UNL     1      23.586  62.439  37.117  1.00  0.00     0.180 C 
ATOM      6  C   UNL     1      24.722  61.631  37.788  1.00  0.00     0.202 C 
ENDROOT
BRANCH   1   7
ATOM      7  O   UNL     1      25.368  60.719  39.960  1.00  0.00    -0.346 OA
BRANCH   7   8
ATOM      8  C   UNL     1      24.880  60.107  41.147  1.00  0.00     0.125 C 
ATOM      9  C   UNL     1      28.933  52.567  51.912  1.00  0.00    -0.000 C 
ATOM     10  C   UNL     1      27.623  52.504  51.078  1.00  0.00     0.009 C 
ATOM     11  C   UNL     1      30.107  53.159  51.091  1.00  0.00     0.087 C 
ATOM     12  C   UNL     1      27.933  52.557  49.580  1.00  0.00     0.053 C 
ATOM     13  N   UNL     1      29.672  54.290  50.271  1.00  0.00    -0.289 NA
ATOM     14  C   UNL     1      28.607  53.947  49.283  1.00  0.00     0.122 C 
ATOM     15  O   UNL     1      27.598  54.947  49.358  1.00  0.00    -0.357 OA
ATOM     16  C   UNL     1      29.188  54.088  47.865  1.00  0.00     0.039 C 
ATOM     17  C   UNL     1      27.073  55.099  48.054  1.00  0.00     0.125 C 
ATOM     18  C   UNL     1      27.958  54.390  47.018  1.00  0.00     0.031 C 
ATOM     19  C   UNL     1      26.976  56.553  47.600  1.00  0.00     0.037 C 
ATOM     20  C   UNL     1      28.070  55.397  45.804  1.00  0.00    -0.024 C 
ATOM     21  C   UNL     1      26.884  56.337  46.092  1.00  0.00     0.002 C 
ATOM     22  C   UNL     1      27.798  54.785  44.404  1.00  0.00     0.008 C 
ATOM     23  C   UNL     1      26.863  57.550  45.149  1.00  0.00     0.000 C 
ATOM     24  C   UNL     1      27.729  55.902  43.322  1.00  0.00     0.005 C 
ATOM     25  C   UNL     1      25.693  58.471  45.515  1.00  0.00     0.031 C 
ATOM     26  C   UNL     1      26.724  57.069  43.669  1.00  0.00     0.003 C 
ATOM     27  C   UNL     1      25.502  59.559  44.512  1.00  0.00    -0.027 C 
ATOM     28  C   UNL     1      26.840  58.327  42.698  1.00  0.00    -0.008 C 
ATOM     29  C   UNL     1      26.026  59.519  43.272  1.00  0.00    -0.065 C 
ATOM     30  C   UNL     1      26.309  57.999  41.246  1.00  0.00     0.014 C 
ATOM     31  C   UNL     1      25.718  60.639  42.329  1.00  0.00     0.063 C 
ATOM     32  C   UNL     1      24.898  58.553  41.017  1.00  0.00     0.033 C 
ATOM     33  C   UNL     1      28.690  53.345  53.214  1.00  0.00     0.009 C 
ATOM     34  H   UNL     1      29.359  55.062  50.906  1.00  0.00     0.125 HD
ATOM     35  C   UNL     1      30.054  52.940  47.334  1.00  0.00     0.012 C 
ATOM     36  C   UNL     1      29.456  56.150  45.802  1.00  0.00     0.012 C 
ATOM     37  C   UNL     1      28.320  58.781  42.538  1.00  0.00     0.016 C 
ENDBRANCH   7   8
ENDBRANCH   1   7
BRANCH   6  38
ATOM     38  O   UNL     1      25.960  62.273  37.621  1.00  0.00    -0.385 OA
ATOM     39  H   UNL     1      26.577  61.631  37.178  1.00  0.00     0.211 HD
ENDBRANCH   6  38
BRANCH   3  40
ATOM     40  C   UNL     1      20.791  60.658  39.152  1.00  0.00     0.191 C 
BRANCH  40  41
ATOM     41  O   UNL     1      20.520  59.811  38.065  1.00  0.00    -0.394 OA
ATOM     42  H   UNL     1      21.296  59.884  37.448  1.00  0.00     0.210 HD
ENDBRANCH  40  41
ENDBRANCH   3  40
BRANCH   5  43
ATOM     43  O   UNL     1      23.825  62.606  35.742  1.00  0.00    -0.387 OA
ATOM     44  H   UNL     1      23.145  62.073  35.252  1.00  0.00     0.211 HD
ENDBRANCH   5  43
BRANCH   4  45
ATOM     45  O   UNL     1      21.166  62.619  36.974  1.00  0.00    -0.341 OA
BRANCH  45  46
ATOM     46  C   UNL     1      20.680  62.337  35.676  1.00  0.00     0.282 C 
ATOM     47  O   UNL     1      21.212  63.308  34.775  1.00  0.00    -0.344 OA
ATOM     48  C   UNL     1      19.133  62.424  35.713  1.00  0.00     0.202 C 
ATOM     49  C   UNL     1      20.790  63.107  33.431  1.00  0.00     0.150 C 
ATOM     50  C   UNL     1      18.536  62.186  34.307  1.00  0.00     0.179 C 
ATOM     51  C   UNL     1      19.232  63.124  33.299  1.00  0.00     0.174 C 
ATOM     52  C   UNL     1      21.539  61.937  32.770  1.00  0.00     0.041 C 
BRANCH  48  53
ATOM     53  O   UNL     1      18.571  61.546  36.658  1.00  0.00    -0.385 OA
ATOM     54  H   UNL     1      18.690  61.951  37.555  1.00  0.00     0.211 HD
ENDBRANCH  48  53
BRANCH  50  55
ATOM     55  O   UNL     1      18.591  60.840  33.888  1.00  0.00    -0.387 OA
ATOM     56  H   UNL     1      17.684  60.487  33.756  1.00  0.00     0.211 HD
ENDBRANCH  50  55
BRANCH  51  57
ATOM     57  O   UNL     1      18.749  64.435  33.485  1.00  0.00    -0.388 OA
ATOM     58  H   UNL     1      17.776  64.401  33.676  1.00  0.00     0.211 HD
ENDBRANCH  51  57
ENDBRANCH  45  46
ENDBRANCH   4  45
TORSDOF 11
ENDMDL
MODEL 3
REMARK VINA RESULT:   -13.753      3.576      4.711
REMARK INTER + INTRA:         -21.224
REMARK INTER:                 -20.164
REMARK INTRA:                  -1.061
REMARK UNBOUND:                -1.039
REMARK SMILES C[C@H]1CC[C@]2(NC1)O[C@H]1C[C@H]3[C@@H]4CC=C5C[C@@H](O[C@@H]6O[C@H](CO)[C@@H](O[C@@H]7O[C@@H](C)[C@H](O)[C@@H](O)[C@H]7O)[C@H](O)[C@H]6O)CC[C@]5(C)[C@H]4CC[C@]3(C)[C@H]1[C@@H]2C
REMARK SMILES IDX 19 1 20 2 21 3 24 4 36 5 38 6 18 7 17 8 2 9 3 10 7 11 4 12
REMARK SMILES IDX 6 13 5 14 8 15 50 16 9 17 49 18 10 19 47 20 11 21 46 22
REMARK SMILES IDX 12 23 45 24 13 25 44 26 14 27 42 28 15 29 41 30 16 31 40 32
REMARK SMILES IDX 1 33 51 35 48 36 43 37 39 38 22 40 23 41 37 43 25 45 26 46
REMARK SMILES IDX 27 47 34 48 28 49 32 50 30 51 29 52 35 53 33 55 31 57
REMARK H PARENT 6 34 39 39 23 42 37 44 35 54 33 56 31 58
ROOT
ATOM      1  C   UNL     1      22.971  59.877  39.313  1.00  0.00     0.282 C 
ATOM      2  O   UNL     1      23.698  60.708  38.436  1.00  0.00    -0.341 OA
ATOM      3  C   UNL     1      23.179  60.637  37.123  1.00  0.00     0.178 C 
ATOM      4  C   UNL     1      21.726  61.187  37.078  1.00  0.00     0.184 C 
ATOM      5  C   UNL     1      20.855  60.446  38.113  1.00  0.00     0.180 C 
ATOM      6  C   UNL     1      21.551  60.452  39.495  1.00  0.00     0.202 C 
ENDROOT
BRANCH   1   7
ATOM      7  O   UNL     1      23.670  59.847  40.549  1.00  0.00    -0.346 OA
BRANCH   7   8
ATOM      8  C   UNL     1      25.073  60.008  40.381  1.00  0.00     0.125 C 
ATOM      9  C   UNL     1      37.048  58.219  46.904  1.00  0.00    -0.000 C 
ATOM     10  C   UNL     1      36.581  59.359  45.957  1.00  0.00     0.009 C 
ATOM     11  C   UNL     1      35.850  57.530  47.605  1.00  0.00     0.087 C 
ATOM     12  C   UNL     1      35.173  59.830  46.329  1.00  0.00     0.053 C 
ATOM     13  N   UNL     1      34.726  57.345  46.688  1.00  0.00    -0.289 NA
ATOM     14  C   UNL     1      34.195  58.617  46.115  1.00  0.00     0.122 C 
ATOM     15  O   UNL     1      34.027  58.432  44.715  1.00  0.00    -0.357 OA
ATOM     16  C   UNL     1      32.770  58.840  46.652  1.00  0.00     0.039 C 
ATOM     17  C   UNL     1      32.905  59.203  44.331  1.00  0.00     0.125 C 
ATOM     18  C   UNL     1      32.122  59.686  45.562  1.00  0.00     0.031 C 
ATOM     19  C   UNL     1      31.905  58.439  43.468  1.00  0.00     0.037 C 
ATOM     20  C   UNL     1      30.598  59.465  45.200  1.00  0.00    -0.024 C 
ATOM     21  C   UNL     1      30.677  59.323  43.668  1.00  0.00     0.002 C 
ATOM     22  C   UNL     1      29.668  60.678  45.469  1.00  0.00     0.008 C 
ATOM     23  C   UNL     1      29.331  58.909  43.055  1.00  0.00     0.000 C 
ATOM     24  C   UNL     1      28.249  60.420  44.884  1.00  0.00     0.005 C 
ATOM     25  C   UNL     1      29.484  58.737  41.538  1.00  0.00     0.031 C 
ATOM     26  C   UNL     1      28.250  59.993  43.364  1.00  0.00     0.003 C 
ATOM     27  C   UNL     1      28.170  58.530  40.863  1.00  0.00    -0.027 C 
ATOM     28  C   UNL     1      26.834  59.484  42.838  1.00  0.00    -0.008 C 
ATOM     29  C   UNL     1      26.990  58.831  41.437  1.00  0.00    -0.065 C 
ATOM     30  C   UNL     1      25.787  60.662  42.738  1.00  0.00     0.014 C 
ATOM     31  C   UNL     1      25.737  58.640  40.642  1.00  0.00     0.063 C 
ATOM     32  C   UNL     1      25.613  61.149  41.296  1.00  0.00     0.033 C 
ATOM     33  C   UNL     1      37.918  57.217  46.131  1.00  0.00     0.009 C 
ATOM     34  H   UNL     1      35.020  56.686  45.929  1.00  0.00     0.125 HD
ATOM     35  C   UNL     1      32.624  59.413  48.065  1.00  0.00     0.012 C 
ATOM     36  C   UNL     1      30.017  58.176  45.900  1.00  0.00     0.012 C 
ATOM     37  C   UNL     1      26.223  58.425  43.802  1.00  0.00     0.016 C 
ENDBRANCH   7   8
ENDBRANCH   1   7
BRANCH   6  38
ATOM     38  O   UNL     1      20.805  59.721  40.435  1.00  0.00    -0.385 OA
ATOM     39  H   UNL     1      21.234  58.831  40.537  1.00  0.00     0.211 HD
ENDBRANCH   6  38
BRANCH   3  40
ATOM     40  C   UNL     1      24.093  61.462  36.211  1.00  0.00     0.191 C 
BRANCH  40  41
ATOM     41  O   UNL     1      25.309  61.739  36.857  1.00  0.00    -0.394 OA
ATOM     42  H   UNL     1      25.979  61.906  36.142  1.00  0.00     0.210 HD
ENDBRANCH  40  41
ENDBRANCH   3  40
BRANCH   5  43
ATOM     43  O   UNL     1      19.565  60.999  38.192  1.00  0.00    -0.387 OA
ATOM     44  H   UNL     1      19.513  61.521  39.036  1.00  0.00     0.211 HD
ENDBRANCH   5  43
BRANCH   4  45
ATOM     45  O   UNL     1      21.212  60.976  35.767  1.00  0.00    -0.341 OA
BRANCH  45  46
ATOM     46  C   UNL     1      20.915  62.178  35.084  1.00  0.00     0.282 C 
ATOM     47  O   UNL     1      19.548  62.507  35.326  1.00  0.00    -0.344 OA
ATOM     48  C   UNL     1      21.154  61.942  33.571  1.00  0.00     0.202 C 
ATOM     49  C   UNL     1      19.147  63.714  34.687  1.00  0.00     0.150 C 
ATOM     50  C   UNL     1      20.788  63.202  32.753  1.00  0.00     0.179 C 
ATOM     51  C   UNL     1      19.366  63.657  33.141  1.00  0.00     0.174 C 
ATOM     52  C   UNL     1      19.680  64.954  35.428  1.00  0.00     0.041 C 
BRANCH  48  53
ATOM     53  O   UNL     1      22.470  61.524  33.297  1.00  0.00    -0.385 OA
ATOM     54  H   UNL     1      22.634  60.689  33.807  1.00  0.00     0.211 HD
ENDBRANCH  48  53
BRANCH  50  55
ATOM     55  O   UNL     1      21.722  64.252  32.882  1.00  0.00    -0.387 OA
ATOM     56  H   UNL     1      21.267  65.081  33.151  1.00  0.00     0.211 HD
ENDBRANCH  50  55
BRANCH  51  57
ATOM     57  O   UNL     1      18.430  62.780  32.555  1.00  0.00    -0.388 OA
ATOM     58  H   UNL     1      17.843  62.408  33.262  1.00  0.00     0.211 HD
ENDBRANCH  51  57
ENDBRANCH  45  46
ENDBRANCH   4  45
TORSDOF 11
ENDMDL
MODEL 4
REMARK VINA RESULT:   -13.489      3.264      4.106
REMARK INTER + INTRA:         -20.837
REMARK INTER:                 -19.319
REMARK INTRA:                  -1.518
REMARK UNBOUND:                -1.039
REMARK SMILES C[C@H]1CC[C@]2(NC1)O[C@H]1C[C@H]3[C@@H]4CC=C5C[C@@H](O[C@@H]6O[C@H](CO)[C@@H](O[C@@H]7O[C@@H](C)[C@H](O)[C@@H](O)[C@H]7O)[C@H](O)[C@H]6O)CC[C@]5(C)[C@H]4CC[C@]3(C)[C@H]1[C@@H]2C
REMARK SMILES IDX 19 1 20 2 21 3 24 4 36 5 38 6 18 7 17 8 2 9 3 10 7 11 4 12
REMARK SMILES IDX 6 13 5 14 8 15 50 16 9 17 49 18 10 19 47 20 11 21 46 22
REMARK SMILES IDX 12 23 45 24 13 25 44 26 14 27 42 28 15 29 41 30 16 31 40 32
REMARK SMILES IDX 1 33 51 35 48 36 43 37 39 38 22 40 23 41 37 43 25 45 26 46
REMARK SMILES IDX 27 47 34 48 28 49 32 50 30 51 29 52 35 53 33 55 31 57
REMARK H PARENT 6 34 39 39 23 42 37 44 35 54 33 56 31 58
ROOT
ATOM      1  C   UNL     1      24.449  61.019  38.750  1.00  0.00     0.282 C 
ATOM      2  O   UNL     1      23.279  60.239  38.648  1.00  0.00    -0.341 OA
ATOM      3  C   UNL     1      22.141  61.057  38.459  1.00  0.00     0.178 C 
ATOM      4  C   UNL     1      22.230  61.817  37.107  1.00  0.00     0.184 C 
ATOM      5  C   UNL     1      23.556  62.601  37.036  1.00  0.00     0.180 C 
ATOM      6  C   UNL     1      24.743  61.672  37.384  1.00  0.00     0.202 C 
ENDROOT
BRANCH   1   7
ATOM      7  O   UNL     1      25.506  60.152  39.137  1.00  0.00    -0.346 OA
BRANCH   7   8
ATOM      8  C   UNL     1      25.280  59.558  40.409  1.00  0.00     0.125 C 
ATOM      9  C   UNL     1      30.332  59.056  53.191  1.00  0.00    -0.000 C 
ATOM     10  C   UNL     1      29.710  57.935  52.312  1.00  0.00     0.009 C 
ATOM     11  C   UNL     1      30.939  60.191  52.328  1.00  0.00     0.087 C 
ATOM     12  C   UNL     1      30.282  57.980  50.893  1.00  0.00     0.053 C 
ATOM     13  N   UNL     1      30.087  60.507  51.181  1.00  0.00    -0.289 NA
ATOM     14  C   UNL     1      29.864  59.357  50.256  1.00  0.00     0.122 C 
ATOM     15  O   UNL     1      28.475  59.296  49.957  1.00  0.00    -0.357 OA
ATOM     16  C   UNL     1      30.539  59.671  48.910  1.00  0.00     0.039 C 
ATOM     17  C   UNL     1      28.362  58.824  48.628  1.00  0.00     0.125 C 
ATOM     18  C   UNL     1      29.724  58.850  47.918  1.00  0.00     0.031 C 
ATOM     19  C   UNL     1      27.420  59.656  47.762  1.00  0.00     0.037 C 
ATOM     20  C   UNL     1      29.431  59.427  46.474  1.00  0.00    -0.024 C 
ATOM     21  C   UNL     1      27.907  59.228  46.381  1.00  0.00     0.002 C 
ATOM     22  C   UNL     1      30.040  58.618  45.298  1.00  0.00     0.008 C 
ATOM     23  C   UNL     1      27.312  59.884  45.126  1.00  0.00     0.000 C 
ATOM     24  C   UNL     1      29.515  59.155  43.935  1.00  0.00     0.005 C 
ATOM     25  C   UNL     1      25.791  59.695  45.114  1.00  0.00     0.031 C 
ATOM     26  C   UNL     1      27.941  59.248  43.845  1.00  0.00     0.003 C 
ATOM     27  C   UNL     1      25.182  60.135  43.825  1.00  0.00    -0.027 C 
ATOM     28  C   UNL     1      27.415  60.030  42.561  1.00  0.00    -0.008 C 
ATOM     29  C   UNL     1      25.894  60.313  42.696  1.00  0.00    -0.065 C 
ATOM     30  C   UNL     1      27.667  59.214  41.232  1.00  0.00     0.014 C 
ATOM     31  C   UNL     1      25.168  60.697  41.445  1.00  0.00     0.063 C 
ATOM     32  C   UNL     1      26.393  58.518  40.741  1.00  0.00     0.033 C 
ATOM     33  C   UNL     1      29.287  59.584  54.185  1.00  0.00     0.009 C 
ATOM     34  H   UNL     1      29.177  60.884  51.536  1.00  0.00     0.125 HD
ATOM     35  C   UNL     1      32.053  59.463  48.807  1.00  0.00     0.012 C 
ATOM     36  C   UNL     1      29.854  60.943  46.360  1.00  0.00     0.012 C 
ATOM     37  C   UNL     1      28.149  61.393  42.392  1.00  0.00     0.016 C 
ENDBRANCH   7   8
ENDBRANCH   1   7
BRANCH   6  38
ATOM     38  O   UNL     1      25.953  62.386  37.392  1.00  0.00    -0.385 OA
ATOM     39  H   UNL     1      26.302  62.381  38.323  1.00  0.00     0.211 HD
ENDBRANCH   6  38
BRANCH   3  40
ATOM     40  C   UNL     1      20.904  60.153  38.485  1.00  0.00     0.191 C 
BRANCH  40  41
ATOM     41  O   UNL     1      20.660  59.620  37.209  1.00  0.00    -0.394 OA
ATOM     42  H   UNL     1      21.244  58.821  37.118  1.00  0.00     0.210 HD
ENDBRANCH  40  41
ENDBRANCH   3  40
BRANCH   5  43
ATOM     43  O   UNL     1      23.733  63.202  35.778  1.00  0.00    -0.387 OA
ATOM     44  H   UNL     1      23.854  64.177  35.925  1.00  0.00     0.211 HD
ENDBRANCH   5  43
BRANCH   4  45
ATOM     45  O   UNL     1      21.127  62.714  37.028  1.00  0.00    -0.341 OA
BRANCH  45  46
ATOM     46  C   UNL     1      20.458  62.667  35.783  1.00  0.00     0.282 C 
ATOM     47  O   UNL     1      21.075  61.664  34.978  1.00  0.00    -0.344 OA
ATOM     48  C   UNL     1      20.594  64.057  35.113  1.00  0.00     0.202 C 
ATOM     49  C   UNL     1      20.467  61.528  33.699  1.00  0.00     0.150 C 
ATOM     50  C   UNL     1      19.935  64.060  33.714  1.00  0.00     0.179 C 
ATOM     51  C   UNL     1      20.482  62.870  32.899  1.00  0.00     0.174 C 
ATOM     52  C   UNL     1      19.127  60.775  33.785  1.00  0.00     0.041 C 
BRANCH  48  53
ATOM     53  O   UNL     1      20.079  65.091  35.918  1.00  0.00    -0.385 OA
ATOM     54  H   UNL     1      20.756  65.300  36.611  1.00  0.00     0.211 HD
ENDBRANCH  48  53
BRANCH  50  55
ATOM     55  O   UNL     1      18.525  64.058  33.752  1.00  0.00    -0.387 OA
ATOM     56  H   UNL     1      18.163  64.567  32.993  1.00  0.00     0.211 HD
ENDBRANCH  50  55
BRANCH  51  57
ATOM     57  O   UNL     1      21.796  63.167  32.483  1.00  0.00    -0.388 OA
ATOM     58  H   UNL     1      22.294  62.320  32.344  1.00  0.00     0.211 HD
ENDBRANCH  51  57
ENDBRANCH  45  46
ENDBRANCH   4  45
TORSDOF 11
ENDMDL
MODEL 5
REMARK VINA RESULT:   -12.761      3.510      4.735
REMARK INTER + INTRA:         -19.769
REMARK INTER:                 -18.807
REMARK INTRA:                  -0.962
REMARK UNBOUND:                -1.039
REMARK SMILES C[C@H]1CC[C@]2(NC1)O[C@H]1C[C@H]3[C@@H]4CC=C5C[C@@H](O[C@@H]6O[C@H](CO)[C@@H](O[C@@H]7O[C@@H](C)[C@H](O)[C@@H](O)[C@H]7O)[C@H](O)[C@H]6O)CC[C@]5(C)[C@H]4CC[C@]3(C)[C@H]1[C@@H]2C
REMARK SMILES IDX 19 1 20 2 21 3 24 4 36 5 38 6 18 7 17 8 2 9 3 10 7 11 4 12
REMARK SMILES IDX 6 13 5 14 8 15 50 16 9 17 49 18 10 19 47 20 11 21 46 22
REMARK SMILES IDX 12 23 45 24 13 25 44 26 14 27 42 28 15 29 41 30 16 31 40 32
REMARK SMILES IDX 1 33 51 35 48 36 43 37 39 38 22 40 23 41 37 43 25 45 26 46
REMARK SMILES IDX 27 47 34 48 28 49 32 50 30 51 29 52 35 53 33 55 31 57
REMARK H PARENT 6 34 39 39 23 42 37 44 35 54 33 56 31 58
ROOT
ATOM      1  C   UNL     1      24.098  60.367  38.838  1.00  0.00     0.282 C 
ATOM      2  O   UNL     1      22.803  60.461  39.387  1.00  0.00    -0.341 OA
ATOM      3  C   UNL     1      22.096  61.552  38.832  1.00  0.00     0.178 C 
ATOM      4  C   UNL     1      21.868  61.341  37.310  1.00  0.00     0.184 C 
ATOM      5  C   UNL     1      23.217  61.078  36.611  1.00  0.00     0.180 C 
ATOM      6  C   UNL     1      23.991  59.963  37.353  1.00  0.00     0.202 C 
ENDROOT
BRANCH   1   7
ATOM      7  O   UNL     1      24.806  59.386  39.583  1.00  0.00    -0.346 OA
BRANCH   7   8
ATOM      8  C   UNL     1      26.149  59.773  39.847  1.00  0.00     0.125 C 
ATOM      9  C   UNL     1      35.659  59.833  49.782  1.00  0.00    -0.000 C 
ATOM     10  C   UNL     1      35.333  60.897  48.697  1.00  0.00     0.009 C 
ATOM     11  C   UNL     1      34.427  58.951  50.108  1.00  0.00     0.087 C 
ATOM     12  C   UNL     1      33.823  61.131  48.604  1.00  0.00     0.053 C 
ATOM     13  N   UNL     1      33.683  58.601  48.898  1.00  0.00    -0.289 NA
ATOM     14  C   UNL     1      33.162  59.779  48.144  1.00  0.00     0.122 C 
ATOM     15  O   UNL     1      33.464  59.590  46.767  1.00  0.00    -0.357 OA
ATOM     16  C   UNL     1      31.625  59.764  48.210  1.00  0.00     0.039 C 
ATOM     17  C   UNL     1      32.408  60.177  46.031  1.00  0.00     0.125 C 
ATOM     18  C   UNL     1      31.219  60.510  46.945  1.00  0.00     0.031 C 
ATOM     19  C   UNL     1      31.856  59.275  44.931  1.00  0.00     0.037 C 
ATOM     20  C   UNL     1      29.935  60.053  46.142  1.00  0.00    -0.024 C 
ATOM     21  C   UNL     1      30.503  59.948  44.714  1.00  0.00     0.002 C 
ATOM     22  C   UNL     1      28.789  61.097  46.069  1.00  0.00     0.008 C 
ATOM     23  C   UNL     1      29.495  59.332  43.733  1.00  0.00     0.000 C 
ATOM     24  C   UNL     1      27.678  60.623  45.088  1.00  0.00     0.005 C 
ATOM     25  C   UNL     1      30.132  59.209  42.344  1.00  0.00     0.031 C 
ATOM     26  C   UNL     1      28.214  60.224  43.657  1.00  0.00     0.003 C 
ATOM     27  C   UNL     1      29.139  58.804  41.306  1.00  0.00    -0.027 C 
ATOM     28  C   UNL     1      27.128  59.502  42.742  1.00  0.00    -0.008 C 
ATOM     29  C   UNL     1      27.807  58.904  41.481  1.00  0.00    -0.065 C 
ATOM     30  C   UNL     1      25.990  60.499  42.284  1.00  0.00     0.014 C 
ATOM     31  C   UNL     1      26.907  58.525  40.347  1.00  0.00     0.063 C 
ATOM     32  C   UNL     1      26.195  60.972  40.841  1.00  0.00     0.033 C 
ATOM     33  C   UNL     1      36.870  58.995  49.349  1.00  0.00     0.009 C 
ATOM     34  H   UNL     1      34.296  58.009  48.289  1.00  0.00     0.125 HD
ATOM     35  C   UNL     1      30.962  60.285  49.490  1.00  0.00     0.012 C 
ATOM     36  C   UNL     1      29.377  58.678  46.677  1.00  0.00     0.012 C 
ATOM     37  C   UNL     1      26.424  58.346  43.509  1.00  0.00     0.016 C 
ENDBRANCH   7   8
ENDBRANCH   1   7
BRANCH   6  38
ATOM     38  O   UNL     1      25.254  59.758  36.772  1.00  0.00    -0.385 OA
ATOM     39  H   UNL     1      25.314  58.801  36.509  1.00  0.00     0.211 HD
ENDBRANCH   6  38
BRANCH   3  40
ATOM     40  C   UNL     1      20.754  61.664  39.565  1.00  0.00     0.191 C 
BRANCH  40  41
ATOM     41  O   UNL     1      19.724  61.113  38.786  1.00  0.00    -0.394 OA
ATOM     42  H   UNL     1      20.157  60.694  37.996  1.00  0.00     0.210 HD
ENDBRANCH  40  41
ENDBRANCH   3  40
BRANCH   5  43
ATOM     43  O   UNL     1      23.041  60.758  35.254  1.00  0.00    -0.387 OA
ATOM     44  H   UNL     1      22.073  60.590  35.108  1.00  0.00     0.211 HD
ENDBRANCH   5  43
BRANCH   4  45
ATOM     45  O   UNL     1      21.267  62.520  36.783  1.00  0.00    -0.341 OA
BRANCH  45  46
ATOM     46  C   UNL     1      20.738  62.343  35.483  1.00  0.00     0.282 C 
ATOM     47  O   UNL     1      21.404  63.245  34.600  1.00  0.00    -0.344 OA
ATOM     48  C   UNL     1      19.221  62.659  35.536  1.00  0.00     0.202 C 
ATOM     49  C   UNL     1      20.949  63.141  33.256  1.00  0.00     0.150 C 
ATOM     50  C   UNL     1      18.588  62.546  34.130  1.00  0.00     0.179 C 
ATOM     51  C   UNL     1      19.411  63.392  33.138  1.00  0.00     0.174 C 
ATOM     52  C   UNL     1      21.512  61.888  32.562  1.00  0.00     0.041 C 
BRANCH  48  53
ATOM     53  O   UNL     1      18.540  61.853  36.466  1.00  0.00    -0.385 OA
ATOM     54  H   UNL     1      17.621  61.707  36.123  1.00  0.00     0.211 HD
ENDBRANCH  48  53
BRANCH  50  55
ATOM     55  O   UNL     1      18.440  61.217  33.680  1.00  0.00    -0.387 OA
ATOM     56  H   UNL     1      18.403  61.192  32.699  1.00  0.00     0.211 HD
ENDBRANCH  50  55
BRANCH  51  57
ATOM     57  O   UNL     1      19.129  64.757  33.357  1.00  0.00    -0.388 OA
ATOM     58  H   UNL     1      18.164  64.864  33.556  1.00  0.00     0.211 HD
ENDBRANCH  51  57
ENDBRANCH  45  46
ENDBRANCH   4  45
TORSDOF 11
ENDMDL
MODEL 6
REMARK VINA RESULT:   -12.609      1.531      3.158
REMARK INTER + INTRA:         -19.545
REMARK INTER:                 -19.274
REMARK INTRA:                  -0.271
REMARK UNBOUND:                -1.039
REMARK SMILES C[C@H]1CC[C@]2(NC1)O[C@H]1C[C@H]3[C@@H]4CC=C5C[C@@H](O[C@@H]6O[C@H](CO)[C@@H](O[C@@H]7O[C@@H](C)[C@H](O)[C@@H](O)[C@H]7O)[C@H](O)[C@H]6O)CC[C@]5(C)[C@H]4CC[C@]3(C)[C@H]1[C@@H]2C
REMARK SMILES IDX 19 1 20 2 21 3 24 4 36 5 38 6 18 7 17 8 2 9 3 10 7 11 4 12
REMARK SMILES IDX 6 13 5 14 8 15 50 16 9 17 49 18 10 19 47 20 11 21 46 22
REMARK SMILES IDX 12 23 45 24 13 25 44 26 14 27 42 28 15 29 41 30 16 31 40 32
REMARK SMILES IDX 1 33 51 35 48 36 43 37 39 38 22 40 23 41 37 43 25 45 26 46
REMARK SMILES IDX 27 47 34 48 28 49 32 50 30 51 29 52 35 53 33 55 31 57
REMARK H PARENT 6 34 39 39 23 42 37 44 35 54 33 56 31 58
ROOT
ATOM      1  C   UNL     1      23.985  61.661  37.820  1.00  0.00     0.282 C 
ATOM      2  O   UNL     1      22.733  61.757  38.463  1.00  0.00    -0.341 OA
ATOM      3  C   UNL     1      21.693  61.931  37.522  1.00  0.00     0.178 C 
ATOM      4  C   UNL     1      21.573  60.686  36.601  1.00  0.00     0.184 C 
ATOM      5  C   UNL     1      22.936  60.387  35.945  1.00  0.00     0.180 C 
ATOM      6  C   UNL     1      24.045  60.342  37.022  1.00  0.00     0.202 C 
ENDROOT
BRANCH   1   7
ATOM      7  O   UNL     1      24.985  61.692  38.829  1.00  0.00    -0.346 OA
BRANCH   7   8
ATOM      8  C   UNL     1      24.549  61.090  40.041  1.00  0.00     0.125 C 
ATOM      9  C   UNL     1      28.817  52.865  50.204  1.00  0.00    -0.000 C 
ATOM     10  C   UNL     1      27.438  52.950  49.494  1.00  0.00     0.009 C 
ATOM     11  C   UNL     1      29.964  53.372  49.293  1.00  0.00     0.087 C 
ATOM     12  C   UNL     1      27.615  53.022  47.975  1.00  0.00     0.053 C 
ATOM     13  N   UNL     1      29.566  54.563  48.543  1.00  0.00    -0.289 NA
ATOM     14  C   UNL     1      28.389  54.353  47.650  1.00  0.00     0.122 C 
ATOM     15  O   UNL     1      27.491  55.439  47.842  1.00  0.00    -0.357 OA
ATOM     16  C   UNL     1      28.851  54.484  46.189  1.00  0.00     0.039 C 
ATOM     17  C   UNL     1      26.867  55.681  46.596  1.00  0.00     0.125 C 
ATOM     18  C   UNL     1      27.584  54.926  45.466  1.00  0.00     0.031 C 
ATOM     19  C   UNL     1      26.869  57.152  46.187  1.00  0.00     0.037 C 
ATOM     20  C   UNL     1      27.681  55.958  44.271  1.00  0.00    -0.024 C 
ATOM     21  C   UNL     1      26.622  56.994  44.689  1.00  0.00     0.002 C 
ATOM     22  C   UNL     1      27.228  55.419  42.888  1.00  0.00     0.008 C 
ATOM     23  C   UNL     1      26.632  58.232  43.781  1.00  0.00     0.000 C 
ATOM     24  C   UNL     1      27.169  56.571  41.844  1.00  0.00     0.005 C 
ATOM     25  C   UNL     1      25.593  59.246  44.275  1.00  0.00     0.031 C 
ATOM     26  C   UNL     1      26.315  57.815  42.309  1.00  0.00     0.003 C 
ATOM     27  C   UNL     1      25.417  60.379  43.320  1.00  0.00    -0.027 C 
ATOM     28  C   UNL     1      26.462  59.087  41.362  1.00  0.00    -0.008 C 
ATOM     29  C   UNL     1      25.821  60.331  42.036  1.00  0.00    -0.065 C 
ATOM     30  C   UNL     1      25.774  58.857  39.958  1.00  0.00     0.014 C 
ATOM     31  C   UNL     1      25.538  61.504  41.152  1.00  0.00     0.063 C 
ATOM     32  C   UNL     1      24.408  59.546  39.874  1.00  0.00     0.033 C 
ATOM     33  C   UNL     1      28.767  53.619  51.541  1.00  0.00     0.009 C 
ATOM     34  H   UNL     1      29.387  55.340  49.222  1.00  0.00     0.125 HD
ATOM     35  C   UNL     1      29.552  53.279  45.553  1.00  0.00     0.012 C 
ATOM     36  C   UNL     1      29.128  56.578  44.158  1.00  0.00     0.012 C 
ATOM     37  C   UNL     1      27.958  59.407  41.077  1.00  0.00     0.016 C 
ENDBRANCH   7   8
ENDBRANCH   1   7
BRANCH   6  38
ATOM     38  O   UNL     1      25.306  60.141  36.436  1.00  0.00    -0.385 OA
ATOM     39  H   UNL     1      25.986  60.558  37.028  1.00  0.00     0.211 HD
ENDBRANCH   6  38
BRANCH   3  40
ATOM     40  C   UNL     1      20.390  62.152  38.297  1.00  0.00     0.191 C 
BRANCH  40  41
ATOM     41  O   UNL     1      19.560  61.024  38.192  1.00  0.00    -0.394 OA
ATOM     42  H   UNL     1      18.787  61.292  37.627  1.00  0.00     0.210 HD
ENDBRANCH  40  41
ENDBRANCH   3  40
BRANCH   5  43
ATOM     43  O   UNL     1      22.901  59.195  35.202  1.00  0.00    -0.387 OA
ATOM     44  H   UNL     1      22.858  59.441  34.241  1.00  0.00     0.211 HD
ENDBRANCH   5  43
BRANCH   4  45
ATOM     45  O   UNL     1      20.600  60.967  35.599  1.00  0.00    -0.341 OA
BRANCH  45  46
ATOM     46  C   UNL     1      20.702  62.277  35.074  1.00  0.00     0.282 C 
ATOM     47  O   UNL     1      19.459  62.944  35.285  1.00  0.00    -0.344 OA
ATOM     48  C   UNL     1      21.005  62.163  33.558  1.00  0.00     0.202 C 
ATOM     49  C   UNL     1      19.458  64.281  34.798  1.00  0.00     0.150 C 
ATOM     50  C   UNL     1      21.069  63.564  32.905  1.00  0.00     0.179 C 
ATOM     51  C   UNL     1      19.793  64.349  33.273  1.00  0.00     0.174 C 
ATOM     52  C   UNL     1      20.237  65.225  35.732  1.00  0.00     0.041 C 
BRANCH  48  53
ATOM     53  O   UNL     1      22.178  61.430  33.301  1.00  0.00    -0.385 OA
ATOM     54  H   UNL     1      22.249  61.307  32.320  1.00  0.00     0.211 HD
ENDBRANCH  48  53
BRANCH  50  55
ATOM     55  O   UNL     1      22.236  64.287  33.229  1.00  0.00    -0.387 OA
ATOM     56  H   UNL     1      22.226  64.543  34.177  1.00  0.00     0.211 HD
ENDBRANCH  50  55
BRANCH  51  57
ATOM     57  O   UNL     1      18.712  63.844  32.521  1.00  0.00    -0.388 OA
ATOM     58  H   UNL     1      18.862  62.881  32.338  1.00  0.00     0.211 HD
ENDBRANCH  51  57
ENDBRANCH  45  46
ENDBRANCH   4  45
TORSDOF 11
ENDMDL
MODEL 7
REMARK VINA RESULT:   -12.544      3.521      4.666
REMARK INTER + INTRA:         -19.450
REMARK INTER:                 -18.958
REMARK INTRA:                  -0.492
REMARK UNBOUND:                -1.039
REMARK SMILES C[C@H]1CC[C@]2(NC1)O[C@H]1C[C@H]3[C@@H]4CC=C5C[C@@H](O[C@@H]6O[C@H](CO)[C@@H](O[C@@H]7O[C@@H](C)[C@H](O)[C@@H](O)[C@H]7O)[C@H](O)[C@H]6O)CC[C@]5(C)[C@H]4CC[C@]3(C)[C@H]1[C@@H]2C
REMARK SMILES IDX 19 1 20 2 21 3 24 4 36 5 38 6 18 7 17 8 2 9 3 10 7 11 4 12
REMARK SMILES IDX 6 13 5 14 8 15 50 16 9 17 49 18 10 19 47 20 11 21 46 22
REMARK SMILES IDX 12 23 45 24 13 25 44 26 14 27 42 28 15 29 41 30 16 31 40 32
REMARK SMILES IDX 1 33 51 35 48 36 43 37 39 38 22 40 23 41 37 43 25 45 26 46
REMARK SMILES IDX 27 47 34 48 28 49 32 50 30 51 29 52 35 53 33 55 31 57
REMARK H PARENT 6 34 39 39 23 42 37 44 35 54 33 56 31 58
ROOT
ATOM      1  C   UNL     1      23.413  60.094  39.125  1.00  0.00     0.282 C 
ATOM      2  O   UNL     1      24.319  60.939  38.452  1.00  0.00    -0.341 OA
ATOM      3  C   UNL     1      23.666  61.675  37.437  1.00  0.00     0.178 C 
ATOM      4  C   UNL     1      22.608  62.635  38.050  1.00  0.00     0.184 C 
ATOM      5  C   UNL     1      21.633  61.838  38.940  1.00  0.00     0.180 C 
ATOM      6  C   UNL     1      22.423  60.956  39.936  1.00  0.00     0.202 C 
ENDROOT
BRANCH   1   7
ATOM      7  O   UNL     1      24.172  59.251  39.980  1.00  0.00    -0.346 OA
BRANCH   7   8
ATOM      8  C   UNL     1      25.511  59.704  40.136  1.00  0.00     0.125 C 
ATOM      9  C   UNL     1      35.905  59.908  49.141  1.00  0.00    -0.000 C 
ATOM     10  C   UNL     1      35.422  60.995  48.140  1.00  0.00     0.009 C 
ATOM     11  C   UNL     1      34.759  58.944  49.538  1.00  0.00     0.087 C 
ATOM     12  C   UNL     1      33.899  61.144  48.198  1.00  0.00     0.053 C 
ATOM     13  N   UNL     1      33.923  58.601  48.387  1.00  0.00    -0.289 NA
ATOM     14  C   UNL     1      33.270  59.777  47.740  1.00  0.00     0.122 C 
ATOM     15  O   UNL     1      33.450  59.662  46.334  1.00  0.00    -0.357 OA
ATOM     16  C   UNL     1      31.749  59.670  47.947  1.00  0.00     0.039 C 
ATOM     17  C   UNL     1      32.299  60.217  45.726  1.00  0.00     0.125 C 
ATOM     18  C   UNL     1      31.186  60.442  46.761  1.00  0.00     0.031 C 
ATOM     19  C   UNL     1      31.693  59.330  44.642  1.00  0.00     0.037 C 
ATOM     20  C   UNL     1      29.858  59.945  46.060  1.00  0.00    -0.024 C 
ATOM     21  C   UNL     1      30.292  59.931  44.582  1.00  0.00     0.002 C 
ATOM     22  C   UNL     1      28.656  60.923  46.142  1.00  0.00     0.008 C 
ATOM     23  C   UNL     1      29.230  59.299  43.672  1.00  0.00     0.000 C 
ATOM     24  C   UNL     1      27.484  60.427  45.247  1.00  0.00     0.005 C 
ATOM     25  C   UNL     1      29.738  59.269  42.225  1.00  0.00     0.031 C 
ATOM     26  C   UNL     1      27.902  60.118  43.756  1.00  0.00     0.003 C 
ATOM     27  C   UNL     1      28.674  58.850  41.266  1.00  0.00    -0.027 C 
ATOM     28  C   UNL     1      26.774  59.372  42.913  1.00  0.00    -0.008 C 
ATOM     29  C   UNL     1      27.362  58.866  41.568  1.00  0.00    -0.065 C 
ATOM     30  C   UNL     1      25.546  60.319  42.609  1.00  0.00     0.014 C 
ATOM     31  C   UNL     1      26.379  58.482  40.507  1.00  0.00     0.063 C 
ATOM     32  C   UNL     1      25.587  60.862  41.177  1.00  0.00     0.033 C 
ATOM     33  C   UNL     1      37.113  59.159  48.559  1.00  0.00     0.009 C 
ATOM     34  H   UNL     1      34.507  58.071  47.698  1.00  0.00     0.125 HD
ATOM     35  C   UNL     1      31.185  60.100  49.305  1.00  0.00     0.012 C 
ATOM     36  C   UNL     1      29.427  58.520  46.580  1.00  0.00     0.012 C 
ATOM     37  C   UNL     1      26.209  58.146  43.688  1.00  0.00     0.016 C 
ENDBRANCH   7   8
ENDBRANCH   1   7
BRANCH   6  38
ATOM     38  O   UNL     1      21.553  60.170  40.709  1.00  0.00    -0.385 OA
ATOM     39  H   UNL     1      20.748  60.717  40.910  1.00  0.00     0.211 HD
ENDBRANCH   6  38
BRANCH   3  40
ATOM     40  C   UNL     1      24.731  62.469  36.673  1.00  0.00     0.191 C 
BRANCH  40  41
ATOM     41  O   UNL     1      25.953  62.439  37.363  1.00  0.00    -0.394 OA
ATOM     42  H   UNL     1      26.604  62.949  36.812  1.00  0.00     0.210 HD
ENDBRANCH  40  41
ENDBRANCH   3  40
BRANCH   5  43
ATOM     43  O   UNL     1      20.737  62.686  39.612  1.00  0.00    -0.387 OA
ATOM     44  H   UNL     1      19.984  62.877  38.994  1.00  0.00     0.211 HD
ENDBRANCH   5  43
BRANCH   4  45
ATOM     45  O   UNL     1      21.899  63.254  36.981  1.00  0.00    -0.341 OA
BRANCH  45  46
ATOM     46  C   UNL     1      20.952  62.399  36.371  1.00  0.00     0.282 C 
ATOM     47  O   UNL     1      21.608  61.665  35.338  1.00  0.00    -0.344 OA
ATOM     48  C   UNL     1      19.824  63.279  35.775  1.00  0.00     0.202 C 
ATOM     49  C   UNL     1      20.741  60.762  34.662  1.00  0.00     0.150 C 
ATOM     50  C   UNL     1      18.781  62.410  35.035  1.00  0.00     0.179 C 
ATOM     51  C   UNL     1      19.512  61.493  34.032  1.00  0.00     0.174 C 
ATOM     52  C   UNL     1      20.455  59.508  35.509  1.00  0.00     0.041 C 
BRANCH  48  53
ATOM     53  O   UNL     1      19.210  64.091  36.747  1.00  0.00    -0.385 OA
ATOM     54  H   UNL     1      19.598  63.853  37.628  1.00  0.00     0.211 HD
ENDBRANCH  48  53
BRANCH  50  55
ATOM     55  O   UNL     1      17.944  61.672  35.897  1.00  0.00    -0.387 OA
ATOM     56  H   UNL     1      18.415  60.878  36.232  1.00  0.00     0.211 HD
ENDBRANCH  50  55
BRANCH  51  57
ATOM     57  O   UNL     1      19.927  62.263  32.926  1.00  0.00    -0.388 OA
ATOM     58  H   UNL     1      19.593  63.192  33.030  1.00  0.00     0.211 HD
ENDBRANCH  51  57
ENDBRANCH  45  46
ENDBRANCH   4  45
TORSDOF 11
ENDMDL
MODEL 8
REMARK VINA RESULT:   -12.441      2.222      3.633
REMARK INTER + INTRA:         -19.299
REMARK INTER:                 -17.821
REMARK INTRA:                  -1.479
REMARK UNBOUND:                -1.039
REMARK SMILES C[C@H]1CC[C@]2(NC1)O[C@H]1C[C@H]3[C@@H]4CC=C5C[C@@H](O[C@@H]6O[C@H](CO)[C@@H](O[C@@H]7O[C@@H](C)[C@H](O)[C@@H](O)[C@H]7O)[C@H](O)[C@H]6O)CC[C@]5(C)[C@H]4CC[C@]3(C)[C@H]1[C@@H]2C
REMARK SMILES IDX 19 1 20 2 21 3 24 4 36 5 38 6 18 7 17 8 2 9 3 10 7 11 4 12
REMARK SMILES IDX 6 13 5 14 8 15 50 16 9 17 49 18 10 19 47 20 11 21 46 22
REMARK SMILES IDX 12 23 45 24 13 25 44 26 14 27 42 28 15 29 41 30 16 31 40 32
REMARK SMILES IDX 1 33 51 35 48 36 43 37 39 38 22 40 23 41 37 43 25 45 26 46
REMARK SMILES IDX 27 47 34 48 28 49 32 50 30 51 29 52 35 53 33 55 31 57
REMARK H PARENT 6 34 39 39 23 42 37 44 35 54 33 56 31 58
ROOT
ATOM      1  C   UNL     1      24.343  61.250  39.036  1.00  0.00     0.282 C 
ATOM      2  O   UNL     1      23.126  60.539  39.065  1.00  0.00    -0.341 OA
ATOM      3  C   UNL     1      22.039  61.383  38.741  1.00  0.00     0.178 C 
ATOM      4  C   UNL     1      22.163  61.901  37.282  1.00  0.00     0.184 C 
ATOM      5  C   UNL     1      23.534  62.579  37.082  1.00  0.00     0.180 C 
ATOM      6  C   UNL     1      24.664  61.648  37.581  1.00  0.00     0.202 C 
ENDROOT
BRANCH   1   7
ATOM      7  O   UNL     1      25.348  60.395  39.564  1.00  0.00    -0.346 OA
BRANCH   7   8
ATOM      8  C   UNL     1      25.947  60.925  40.739  1.00  0.00     0.125 C 
ATOM      9  C   UNL     1      32.145  57.118  52.411  1.00  0.00    -0.000 C 
ATOM     10  C   UNL     1      31.140  58.271  52.138  1.00  0.00     0.009 C 
ATOM     11  C   UNL     1      31.987  55.965  51.388  1.00  0.00     0.087 C 
ATOM     12  C   UNL     1      29.965  57.775  51.292  1.00  0.00     0.053 C 
ATOM     13  N   UNL     1      31.764  56.476  50.035  1.00  0.00    -0.289 NA
ATOM     14  C   UNL     1      30.540  57.320  49.900  1.00  0.00     0.122 C 
ATOM     15  O   UNL     1      30.891  58.488  49.169  1.00  0.00    -0.357 OA
ATOM     16  C   UNL     1      29.533  56.585  49.000  1.00  0.00     0.039 C 
ATOM     17  C   UNL     1      29.756  58.851  48.406  1.00  0.00     0.125 C 
ATOM     18  C   UNL     1      28.713  57.722  48.402  1.00  0.00     0.031 C 
ATOM     19  C   UNL     1      30.071  59.137  46.940  1.00  0.00     0.037 C 
ATOM     20  C   UNL     1      28.209  57.625  46.906  1.00  0.00    -0.024 C 
ATOM     21  C   UNL     1      28.672  58.984  46.350  1.00  0.00     0.002 C 
ATOM     22  C   UNL     1      26.668  57.592  46.724  1.00  0.00     0.008 C 
ATOM     23  C   UNL     1      28.471  59.088  44.831  1.00  0.00     0.000 C 
ATOM     24  C   UNL     1      26.292  57.708  45.218  1.00  0.00     0.005 C 
ATOM     25  C   UNL     1      28.994  60.439  44.330  1.00  0.00     0.031 C 
ATOM     26  C   UNL     1      26.955  58.939  44.484  1.00  0.00     0.003 C 
ATOM     27  C   UNL     1      28.646  60.680  42.899  1.00  0.00    -0.027 C 
ATOM     28  C   UNL     1      26.781  58.914  42.901  1.00  0.00    -0.008 C 
ATOM     29  C   UNL     1      27.687  59.993  42.248  1.00  0.00    -0.065 C 
ATOM     30  C   UNL     1      25.284  59.177  42.471  1.00  0.00     0.014 C 
ATOM     31  C   UNL     1      27.381  60.361  40.831  1.00  0.00     0.063 C 
ATOM     32  C   UNL     1      25.073  60.618  41.993  1.00  0.00     0.033 C 
ATOM     33  C   UNL     1      33.579  57.668  52.444  1.00  0.00     0.009 C 
ATOM     34  H   UNL     1      32.617  57.002  49.732  1.00  0.00     0.125 HD
ATOM     35  C   UNL     1      28.696  55.468  49.632  1.00  0.00     0.012 C 
ATOM     36  C   UNL     1      28.865  56.404  46.152  1.00  0.00     0.012 C 
ATOM     37  C   UNL     1      27.176  57.528  42.313  1.00  0.00     0.016 C 
ENDBRANCH   7   8
ENDBRANCH   1   7
BRANCH   6  38
ATOM     38  O   UNL     1      25.916  62.276  37.472  1.00  0.00    -0.385 OA
ATOM     39  H   UNL     1      25.818  63.207  37.806  1.00  0.00     0.211 HD
ENDBRANCH   6  38
BRANCH   3  40
ATOM     40  C   UNL     1      20.749  60.575  38.916  1.00  0.00     0.191 C 
BRANCH  40  41
ATOM     41  O   UNL     1      20.395  59.951  37.708  1.00  0.00    -0.394 OA
ATOM     42  H   UNL     1      20.529  58.976  37.842  1.00  0.00     0.210 HD
ENDBRANCH  40  41
ENDBRANCH   3  40
BRANCH   5  43
ATOM     43  O   UNL     1      23.735  62.950  35.742  1.00  0.00    -0.387 OA
ATOM     44  H   UNL     1      23.213  63.779  35.578  1.00  0.00     0.211 HD
ENDBRANCH   5  43
BRANCH   4  45
ATOM     45  O   UNL     1      21.116  62.840  37.053  1.00  0.00    -0.341 OA
BRANCH  45  46
ATOM     46  C   UNL     1      20.468  62.661  35.809  1.00  0.00     0.282 C 
ATOM     47  O   UNL     1      21.145  61.628  35.093  1.00  0.00    -0.344 OA
ATOM     48  C   UNL     1      20.548  63.999  35.031  1.00  0.00     0.202 C 
ATOM     49  C   UNL     1      20.563  61.362  33.822  1.00  0.00     0.150 C 
ATOM     50  C   UNL     1      19.911  63.858  33.629  1.00  0.00     0.179 C 
ATOM     51  C   UNL     1      20.526  62.636  32.918  1.00  0.00     0.174 C 
ATOM     52  C   UNL     1      19.259  60.554  33.953  1.00  0.00     0.041 C 
BRANCH  48  53
ATOM     53  O   UNL     1      19.973  65.067  35.744  1.00  0.00    -0.385 OA
ATOM     54  H   UNL     1      19.141  64.733  36.168  1.00  0.00     0.211 HD
ENDBRANCH  48  53
BRANCH  50  55
ATOM     55  O   UNL     1      18.502  63.791  33.651  1.00  0.00    -0.387 OA
ATOM     56  H   UNL     1      18.149  63.741  32.735  1.00  0.00     0.211 HD
ENDBRANCH  50  55
BRANCH  51  57
ATOM     57  O   UNL     1      21.831  62.962  32.494  1.00  0.00    -0.388 OA
ATOM     58  H   UNL     1      21.790  63.735  31.874  1.00  0.00     0.211 HD
ENDBRANCH  51  57
ENDBRANCH  45  46
ENDBRANCH   4  45
TORSDOF 11
ENDMDL
MODEL 9
REMARK VINA RESULT:   -12.390      2.265      2.839
REMARK INTER + INTRA:         -19.223
REMARK INTER:                 -18.814
REMARK INTRA:                  -0.409
REMARK UNBOUND:                -1.039
REMARK SMILES C[C@H]1CC[C@]2(NC1)O[C@H]1C[C@H]3[C@@H]4CC=C5C[C@@H](O[C@@H]6O[C@H](CO)[C@@H](O[C@@H]7O[C@@H](C)[C@H](O)[C@@H](O)[C@H]7O)[C@H](O)[C@H]6O)CC[C@]5(C)[C@H]4CC[C@]3(C)[C@H]1[C@@H]2C
REMARK SMILES IDX 19 1 20 2 21 3 24 4 36 5 38 6 18 7 17 8 2 9 3 10 7 11 4 12
REMARK SMILES IDX 6 13 5 14 8 15 50 16 9 17 49 18 10 19 47 20 11 21 46 22
REMARK SMILES IDX 12 23 45 24 13 25 44 26 14 27 42 28 15 29 41 30 16 31 40 32
REMARK SMILES IDX 1 33 51 35 48 36 43 37 39 38 22 40 23 41 37 43 25 45 26 46
REMARK SMILES IDX 27 47 34 48 28 49 32 50 30 51 29 52 35 53 33 55 31 57
REMARK H PARENT 6 34 39 39 23 42 37 44 35 54 33 56 31 58
ROOT
ATOM      1  C   UNL     1      24.646  61.019  39.849  1.00  0.00     0.282 C 
ATOM      2  O   UNL     1      24.553  61.968  38.810  1.00  0.00    -0.341 OA
ATOM      3  C   UNL     1      24.009  61.387  37.642  1.00  0.00     0.178 C 
ATOM      4  C   UNL     1      22.546  60.924  37.889  1.00  0.00     0.184 C 
ATOM      5  C   UNL     1      22.496  59.984  39.111  1.00  0.00     0.180 C 
ATOM      6  C   UNL     1      23.226  60.632  40.310  1.00  0.00     0.202 C 
ENDROOT
BRANCH   1   7
ATOM      7  O   UNL     1      25.380  61.618  40.908  1.00  0.00    -0.346 OA
BRANCH   7   8
ATOM      8  C   UNL     1      26.678  61.056  41.051  1.00  0.00     0.125 C 
ATOM      9  C   UNL     1      33.296  50.300  46.497  1.00  0.00    -0.000 C 
ATOM     10  C   UNL     1      33.713  51.794  46.407  1.00  0.00     0.009 C 
ATOM     11  C   UNL     1      31.756  50.131  46.469  1.00  0.00     0.087 C 
ATOM     12  C   UNL     1      32.551  52.705  46.813  1.00  0.00     0.053 C 
ATOM     13  N   UNL     1      31.135  51.038  45.503  1.00  0.00    -0.289 NA
ATOM     14  C   UNL     1      31.389  52.483  45.776  1.00  0.00     0.122 C 
ATOM     15  O   UNL     1      31.768  53.102  44.554  1.00  0.00    -0.357 OA
ATOM     16  C   UNL     1      30.056  53.152  46.155  1.00  0.00     0.039 C 
ATOM     17  C   UNL     1      31.270  54.426  44.592  1.00  0.00     0.125 C 
ATOM     18  C   UNL     1      30.275  54.605  45.750  1.00  0.00     0.031 C 
ATOM     19  C   UNL     1      30.522  54.834  43.327  1.00  0.00     0.037 C 
ATOM     20  C   UNL     1      29.076  55.440  45.144  1.00  0.00    -0.024 C 
ATOM     21  C   UNL     1      29.731  56.019  43.876  1.00  0.00     0.002 C 
ATOM     22  C   UNL     1      28.624  56.662  45.986  1.00  0.00     0.008 C 
ATOM     23  C   UNL     1      28.717  56.740  42.977  1.00  0.00     0.000 C 
ATOM     24  C   UNL     1      27.592  57.519  45.197  1.00  0.00     0.005 C 
ATOM     25  C   UNL     1      29.417  57.251  41.711  1.00  0.00     0.031 C 
ATOM     26  C   UNL     1      28.075  57.935  43.752  1.00  0.00     0.003 C 
ATOM     27  C   UNL     1      28.529  58.130  40.896  1.00  0.00    -0.027 C 
ATOM     28  C   UNL     1      26.931  58.587  42.854  1.00  0.00    -0.008 C 
ATOM     29  C   UNL     1      27.413  58.705  41.382  1.00  0.00    -0.065 C 
ATOM     30  C   UNL     1      26.522  60.022  43.374  1.00  0.00     0.014 C 
ATOM     31  C   UNL     1      26.631  59.618  40.491  1.00  0.00     0.063 C 
ATOM     32  C   UNL     1      27.156  61.134  42.533  1.00  0.00     0.033 C 
ATOM     33  C   UNL     1      33.985  49.494  45.386  1.00  0.00     0.009 C 
ATOM     34  H   UNL     1      31.461  50.775  44.543  1.00  0.00     0.125 HD
ATOM     35  C   UNL     1      29.549  52.967  47.589  1.00  0.00     0.012 C 
ATOM     36  C   UNL     1      27.835  54.521  44.821  1.00  0.00     0.012 C 
ATOM     37  C   UNL     1      25.638  57.721  42.874  1.00  0.00     0.016 C 
ENDBRANCH   7   8
ENDBRANCH   1   7
BRANCH   6  38
ATOM     38  O   UNL     1      23.251  59.761  41.412  1.00  0.00    -0.385 OA
ATOM     39  H   UNL     1      22.524  60.035  42.032  1.00  0.00     0.211 HD
ENDBRANCH   6  38
BRANCH   3  40
ATOM     40  C   UNL     1      24.057  62.439  36.528  1.00  0.00     0.191 C 
BRANCH  40  41
ATOM     41  O   UNL     1      23.362  63.596  36.917  1.00  0.00    -0.394 OA
ATOM     42  H   UNL     1      23.913  64.035  37.618  1.00  0.00     0.210 HD
ENDBRANCH  40  41
ENDBRANCH   3  40
BRANCH   5  43
ATOM     43  O   UNL     1      21.174  59.643  39.444  1.00  0.00    -0.387 OA
ATOM     44  H   UNL     1      21.088  58.657  39.359  1.00  0.00     0.211 HD
ENDBRANCH   5  43
BRANCH   4  45
ATOM     45  O   UNL     1      22.094  60.238  36.726  1.00  0.00    -0.341 OA
BRANCH  45  46
ATOM     46  C   UNL     1      21.196  61.000  35.942  1.00  0.00     0.282 C 
ATOM     47  O   UNL     1      21.954  61.913  35.150  1.00  0.00    -0.344 OA
ATOM     48  C   UNL     1      20.256  61.770  36.904  1.00  0.00     0.202 C 
ATOM     49  C   UNL     1      21.140  62.727  34.312  1.00  0.00     0.150 C 
ATOM     50  C   UNL     1      19.283  62.675  36.113  1.00  0.00     0.179 C 
ATOM     51  C   UNL     1      20.093  63.548  35.132  1.00  0.00     0.174 C 
ATOM     52  C   UNL     1      20.620  61.944  33.092  1.00  0.00     0.041 C 
BRANCH  48  53
ATOM     53  O   UNL     1      19.556  60.909  37.770  1.00  0.00    -0.385 OA
ATOM     54  H   UNL     1      19.058  61.471  38.417  1.00  0.00     0.211 HD
ENDBRANCH  48  53
BRANCH  50  55
ATOM     55  O   UNL     1      18.259  61.966  35.451  1.00  0.00    -0.387 OA
ATOM     56  H   UNL     1      17.636  61.579  36.105  1.00  0.00     0.211 HD
ENDBRANCH  50  55
BRANCH  51  57
ATOM     57  O   UNL     1      20.745  64.567  35.858  1.00  0.00    -0.388 OA
ATOM     58  H   UNL     1      20.067  65.196  36.218  1.00  0.00     0.211 HD
ENDBRANCH  51  57
ENDBRANCH  45  46
ENDBRANCH   4  45
TORSDOF 11
ENDMDL
