REMARK  Name = 
REMARK  16 active torsions:
REMARK  status: ('A' for Active; 'I' for Inactive)
REMARK    1  A    between atoms: C_1  and  C_2
REMARK    2  A    between atoms: C_17  and  O_18
REMARK    3  A    between atoms: O_18  and  C_19
REMARK    4  A    between atoms: C_21  and  C_22
REMARK    5  A    between atoms: C_22  and  O_23
REMARK    6  A    between atoms: C_24  and  O_25
REMARK    7  A    between atoms: O_25  and  C_26
REMARK    8  A    between atoms: C_28  and  C_29
REMARK    9  A    between atoms: C_30  and  O_31
REMARK   10  A    between atoms: C_32  and  O_33
REMARK   11  A    between atoms: C_34  and  O_35
REMARK   12  A    between atoms: C_36  and  O_37
REMARK   13  A    between atoms: C_38  and  O_39
REMARK   14  A    between atoms: C_42  and  C_43
REMARK   15  A    between atoms: C_47  and  C_48
REMARK   16  A    between atoms: C_50  and  C_51
REMARK                            x       y       z     vdW  Elec       q    Type
REMARK                         _______ _______ _______ _____ _____    ______ ____
ROOT
ATOM      1  C   UNL     1      37.959  59.941  46.914  0.00  0.00    +0.000 C 
ATOM      2  C   UNL     1      36.989  59.366  45.875  0.00  0.00    +0.000 C 
ATOM      3  C   UNL     1      36.759  57.871  46.125  0.00  0.00    +0.000 C 
ATOM      4  C   UNL     1      35.812  57.342  45.053  0.00  0.00    +0.000 C 
ATOM      5  C   UNL     1      34.436  58.063  45.088  0.00  0.00    +0.000 C 
ATOM      6  N   UNL     1      34.659  59.526  44.970  0.00  0.00    +0.000 NA
ATOM      7  C   UNL     1      35.647  60.119  45.898  0.00  0.00    +0.000 C 
ATOM      8  O   UNL     1      33.725  57.623  43.929  0.00  0.00    +0.000 OA
ATOM      9  C   UNL     1      32.716  56.719  44.342  0.00  0.00    +0.000 C 
ATOM     10  C   UNL     1      31.451  56.815  43.458  0.00  0.00    +0.000 C 
ATOM     11  C   UNL     1      30.308  57.084  44.460  0.00  0.00    +0.000 C 
ATOM     12  C   UNL     1      28.975  57.653  43.905  0.00  0.00    +0.000 C 
ATOM     13  C   UNL     1      28.421  56.749  42.787  0.00  0.00    +0.000 C 
ATOM     14  C   UNL     1      27.165  57.300  42.173  0.00  0.00    +0.000 C 
ATOM     15  C   UNL     1      26.770  58.580  42.315  0.00  0.00    +0.000 C 
ATOM     16  C   UNL     1      25.429  59.014  41.748  0.00  0.00    +0.000 C 
ATOM     17  C   UNL     1      25.575  60.242  40.834  0.00  0.00    +0.000 C 
ATOM     18  C   UNL     1      26.382  61.350  41.543  0.00  0.00    +0.000 C 
ATOM     19  C   UNL     1      27.746  60.845  42.058  0.00  0.00    +0.000 C 
ATOM     20  C   UNL     1      27.613  59.644  43.041  0.00  0.00    +0.000 C 
ATOM     21  C   UNL     1      26.833  60.075  44.324  0.00  0.00    +0.000 C 
ATOM     22  C   UNL     1      29.072  59.108  43.399  0.00  0.00    +0.000 C 
ATOM     23  C   UNL     1      29.829  60.019  44.421  0.00  0.00    +0.000 C 
ATOM     24  C   UNL     1      31.173  59.422  44.880  0.00  0.00    +0.000 C 
ATOM     25  C   UNL     1      30.985  57.997  45.503  0.00  0.00    +0.000 C 
ATOM     26  C   UNL     1      30.171  58.084  46.822  0.00  0.00    +0.000 C 
ATOM     27  C   UNL     1      32.277  57.150  45.723  0.00  0.00    +0.000 C 
ATOM     28  C   UNL     1      33.581  57.615  46.331  0.00  0.00    +0.000 C 
ATOM     29  C   UNL     1      33.451  58.458  47.601  0.00  0.00    +0.000 C 
ATOM     30  H   UNL     1      33.770  60.063  45.028  0.00  0.00    +0.000 HD
ENDROOT
BRANCH  17  31
ATOM     31  O   UNL     1      24.286  60.778  40.592  0.00  0.00    +0.000 OA
BRANCH  31  32
ATOM     32  C   UNL     1      23.411  60.002  39.792  0.00  0.00    +0.000 C 
ATOM     33  O   UNL     1      23.750  60.181  38.416  0.00  0.00    +0.000 OA
ATOM     34  C   UNL     1      23.566  61.521  37.937  0.00  0.00    +0.000 C 
ATOM     35  C   UNL     1      22.130  62.062  38.182  0.00  0.00    +0.000 C 
ATOM     36  C   UNL     1      21.691  61.854  39.642  0.00  0.00    +0.000 C 
ATOM     37  C   UNL     1      21.928  60.387  40.050  0.00  0.00    +0.000 C 
BRANCH  36  38
ATOM     38  O   UNL     1      22.420  62.716  40.478  0.00  0.00    +0.000 OA
ATOM     39  H   UNL     1      23.380  62.583  40.262  0.00  0.00    +0.000 HD
ENDBRANCH  36  38
BRANCH  37  40
ATOM     40  O   UNL     1      21.032  59.532  39.372  0.00  0.00    +0.000 OA
ATOM     41  H   UNL     1      20.676  58.852  40.000  0.00  0.00    +0.000 HD
ENDBRANCH  37  40
BRANCH  34  42
ATOM     42  C   UNL     1      24.689  62.491  38.376  0.00  0.00    +0.000 C 
BRANCH  42  43
ATOM     43  O   UNL     1      25.899  62.154  37.753  0.00  0.00    +0.000 OA
ATOM     44  H   UNL     1      25.835  62.479  36.818  0.00  0.00    +0.000 HD
ENDBRANCH  42  43
ENDBRANCH  34  42
BRANCH  35  45
ATOM     45  O   UNL     1      21.236  61.366  37.317  0.00  0.00    +0.000 OA
BRANCH  45  46
ATOM     46  C   UNL     1      20.893  62.096  36.144  0.00  0.00    +0.000 C 
ATOM     47  O   UNL     1      19.486  62.175  36.035  0.00  0.00    +0.000 OA
ATOM     48  C   UNL     1      19.054  62.994  34.938  0.00  0.00    +0.000 C 
ATOM     49  C   UNL     1      18.524  64.330  35.456  0.00  0.00    +0.000 C 
ATOM     50  C   UNL     1      20.120  63.201  33.806  0.00  0.00    +0.000 C 
ATOM     51  C   UNL     1      20.816  61.845  33.589  0.00  0.00    +0.000 C 
ATOM     52  C   UNL     1      21.510  61.387  34.906  0.00  0.00    +0.000 C 
BRANCH  50  53
ATOM     53  O   UNL     1      19.525  63.688  32.629  0.00  0.00    +0.000 OA
ATOM     54  H   UNL     1      18.946  64.456  32.876  0.00  0.00    +0.000 HD
ENDBRANCH  50  53
BRANCH  51  55
ATOM     55  O   UNL     1      21.699  61.836  32.493  0.00  0.00    +0.000 OA
ATOM     56  H   UNL     1      21.336  61.205  31.817  0.00  0.00    +0.000 HD
ENDBRANCH  51  55
BRANCH  52  57
ATOM     57  O   UNL     1      22.899  61.612  34.885  0.00  0.00    +0.000 OA
ATOM     58  H   UNL     1      23.057  62.571  35.086  0.00  0.00    +0.000 HD
ENDBRANCH  52  57
ENDBRANCH  45  46
ENDBRANCH  35  45
ENDBRANCH  31  32
ENDBRANCH  17  31
TORSDOF 11
