MODEL 1
REMARK VINA RESULT:   -13.631      0.000      0.000
REMARK INTER + INTRA:         -23.477
REMARK INTER:                 -22.795
REMARK INTRA:                  -0.682
REMARK UNBOUND:                -0.682
REMARK SMILES C[C@H]1O[C@@H](O[C@H]2[C@@H](O)C[C@H](O[C@H]3[C@@H](O)C[C@H](O[C@@H]4CC[C@@]5(C)[C@H](CC[C@@H]6[C@@H]5CC[C@]5(C)[C@H](C7=CC(=O)OC7)[C@@H](OC=O)C[C@@]65O)C4)O[C@@H]3C)O[C@@H]2C)C[C@H](O)[C@@H]1O
REMARK SMILES IDX 11 1 10 2 6 3 7 4 51 5 9 6 50 7 52 8 5 9 4 10 2 11 3 12
REMARK SMILES IDX 56 13 54 14 53 15 1 16 57 17 55 19 8 21 12 23 13 24 48 25
REMARK SMILES IDX 15 26 47 27 16 28 49 29 14 30 17 32 18 33 19 34 46 35 20 36
REMARK SMILES IDX 23 37 21 38 24 39 27 40 25 41 26 42 28 43 44 44 29 45 43 46
REMARK SMILES IDX 30 47 39 48 32 49 22 50 31 51 45 52 40 54 41 55 42 56 33 57
REMARK SMILES IDX 34 58 38 59 35 60 37 61 36 62
REMARK H PARENT 57 18 55 20 8 22 14 31 45 53
ROOT
ATOM      1  O   UNL     1      20.963  62.580  36.252  1.00  0.00    -0.344 OA
ENDROOT
BRANCH   1   2
ATOM      2  C   UNL     1      21.655  63.185  37.330  1.00  0.00     0.253 C 
ATOM      3  C   UNL     1      22.713  60.774  38.525  1.00  0.00     0.179 C 
ATOM      4  C   UNL     1      21.223  61.127  38.655  1.00  0.00     0.151 C 
ATOM      5  C   UNL     1      23.367  61.506  37.319  1.00  0.00     0.150 C 
ATOM      6  C   UNL     1      21.066  62.657  38.644  1.00  0.00     0.096 C 
ATOM      7  O   UNL     1      23.048  62.900  37.250  1.00  0.00    -0.347 OA
ATOM      8  C   UNL     1      23.148  60.777  35.981  1.00  0.00     0.041 C 
BRANCH   3   9
ATOM      9  O   UNL     1      23.385  61.138  39.729  1.00  0.00    -0.344 OA
BRANCH   9  10
ATOM     10  C   UNL     1      24.525  60.316  39.957  1.00  0.00     0.253 C 
ATOM     11  C   UNL     1      25.175  58.364  41.221  1.00  0.00     0.149 C 
ATOM     12  O   UNL     1      24.110  59.146  40.656  1.00  0.00    -0.347 OA
ATOM     13  C   UNL     1      26.607  58.784  40.774  1.00  0.00     0.172 C 
ATOM     14  C   UNL     1      26.825  60.286  41.064  1.00  0.00     0.150 C 
ATOM     15  C   UNL     1      25.550  61.117  40.781  1.00  0.00     0.096 C 
ATOM     16  C   UNL     1      25.039  58.370  42.746  1.00  0.00     0.041 C 
BRANCH  13  17
ATOM     17  O   UNL     1      26.752  58.544  39.394  1.00  0.00    -0.388 OA
ATOM     18  H   UNL     1      27.696  58.739  39.159  1.00  0.00     0.211 HD
ENDBRANCH  13  17
BRANCH  14  19
ATOM     19  O   UNL     1      27.941  60.770  40.355  1.00  0.00    -0.390 OA
ATOM     20  H   UNL     1      28.681  60.116  40.464  1.00  0.00     0.211 HD
ENDBRANCH  14  19
ENDBRANCH   9  10
ENDBRANCH   3   9
BRANCH   4  21
ATOM     21  O   UNL     1      20.657  60.550  39.807  1.00  0.00    -0.390 OA
ATOM     22  H   UNL     1      21.376  60.076  40.300  1.00  0.00     0.211 HD
ENDBRANCH   4  21
ENDBRANCH   1   2
BRANCH   1  23
ATOM     23  C   UNL     1      20.214  63.442  35.421  1.00  0.00     0.179 C 
ATOM     24  C   UNL     1      21.157  64.048  34.349  1.00  0.00     0.151 C 
ATOM     25  C   UNL     1      19.094  62.607  34.741  1.00  0.00     0.150 C 
ATOM     26  C   UNL     1      20.327  64.733  33.255  1.00  0.00     0.096 C 
ATOM     27  O   UNL     1      18.397  63.395  33.792  1.00  0.00    -0.347 OA
ATOM     28  C   UNL     1      19.259  63.757  32.727  1.00  0.00     0.253 C 
ATOM     29  C   UNL     1      18.087  62.089  35.766  1.00  0.00     0.041 C 
BRANCH  24  30
ATOM     30  O   UNL     1      22.024  63.096  33.777  1.00  0.00    -0.390 OA
ATOM     31  H   UNL     1      22.162  63.301  32.820  1.00  0.00     0.211 HD
ENDBRANCH  24  30
BRANCH  28  32
ATOM     32  O   UNL     1      18.478  64.411  31.744  1.00  0.00    -0.349 OA
BRANCH  32  33
ATOM     33  C   UNL     1      17.120  63.990  31.734  1.00  0.00     0.121 C 
ATOM     34  C   UNL     1      16.691  63.722  30.275  1.00  0.00     0.033 C 
ATOM     35  C   UNL     1      16.297  65.106  32.421  1.00  0.00     0.036 C 
ATOM     36  C   UNL     1      15.942  64.919  29.693  1.00  0.00     0.010 C 
ATOM     37  C   UNL     1      14.805  65.070  32.043  1.00  0.00    -0.002 C 
ATOM     38  C   UNL     1      14.593  65.173  30.462  1.00  0.00    -0.026 C 
ATOM     39  C   UNL     1      14.071  66.190  32.846  1.00  0.00     0.005 C 
ATOM     40  C   UNL     1      14.045  66.602  30.114  1.00  0.00     0.001 C 
ATOM     41  C   UNL     1      12.654  66.403  32.316  1.00  0.00     0.007 C 
ATOM     42  C   UNL     1      12.648  66.848  30.818  1.00  0.00     0.025 C 
ATOM     43  C   UNL     1      14.000  66.951  28.596  1.00  0.00     0.005 C 
ATOM     44  C   UNL     1      12.230  68.328  30.571  1.00  0.00     0.077 C 
ATOM     45  C   UNL     1      13.492  68.395  28.364  1.00  0.00     0.011 C 
ATOM     46  C   UNL     1      10.837  68.773  31.042  1.00  0.00     0.082 C 
ATOM     47  C   UNL     1      12.109  68.603  29.035  1.00  0.00     0.007 C 
ATOM     48  C   UNL     1      10.645  70.119  30.306  1.00  0.00     0.187 C 
ATOM     49  C   UNL     1      11.479  70.031  28.987  1.00  0.00     0.069 C 
ATOM     50  C   UNL     1      13.563  64.085  30.016  1.00  0.00     0.012 C 
ATOM     51  C   UNL     1      11.083  67.668  28.278  1.00  0.00     0.015 C 
BRANCH  44  52
ATOM     52  O   UNL     1      13.199  69.178  31.143  1.00  0.00    -0.389 OA
ATOM     53  H   UNL     1      13.332  69.952  30.536  1.00  0.00     0.211 HD
ENDBRANCH  44  52
BRANCH  48  54
ATOM     54  O   UNL     1       9.304  70.345  30.045  1.00  0.00    -0.464 OA
BRANCH  54  55
ATOM     55  C   UNL     1       8.644  71.516  30.222  1.00  0.00     0.447 C 
ATOM     56  O   UNL     1       7.691  71.603  30.984  1.00  0.00    -0.256 OA
ENDBRANCH  54  55
ENDBRANCH  48  54
BRANCH  49  57
ATOM     57  C   UNL     1      12.427  71.227  28.832  1.00  0.00    -0.018 C 
ATOM     58  C   UNL     1      13.736  71.132  29.036  1.00  0.00     0.096 C 
ATOM     59  C   UNL     1      12.105  72.654  28.411  1.00  0.00     0.265 C 
ATOM     60  C   UNL     1      14.285  72.436  28.772  1.00  0.00     0.331 C 
ATOM     61  O   UNL     1      13.327  73.298  28.407  1.00  0.00    -0.458 OA
ATOM     62  O   UNL     1      15.466  72.732  28.855  1.00  0.00    -0.247 OA
ENDBRANCH  49  57
ENDBRANCH  32  33
ENDBRANCH  28  32
ENDBRANCH   1  23
TORSDOF 14
ENDMDL
MODEL 2
REMARK VINA RESULT:   -13.562      1.139      2.056
REMARK INTER + INTRA:         -23.362
REMARK INTER:                 -23.180
REMARK INTRA:                  -0.182
REMARK UNBOUND:                -0.682
REMARK SMILES C[C@H]1O[C@@H](O[C@H]2[C@@H](O)C[C@H](O[C@H]3[C@@H](O)C[C@H](O[C@@H]4CC[C@@]5(C)[C@H](CC[C@@H]6[C@@H]5CC[C@]5(C)[C@H](C7=CC(=O)OC7)[C@@H](OC=O)C[C@@]65O)C4)O[C@@H]3C)O[C@@H]2C)C[C@H](O)[C@@H]1O
REMARK SMILES IDX 11 1 10 2 6 3 7 4 51 5 9 6 50 7 52 8 5 9 4 10 2 11 3 12
REMARK SMILES IDX 56 13 54 14 53 15 1 16 57 17 55 19 8 21 12 23 13 24 48 25
REMARK SMILES IDX 15 26 47 27 16 28 49 29 14 30 17 32 18 33 19 34 46 35 20 36
REMARK SMILES IDX 23 37 21 38 24 39 27 40 25 41 26 42 28 43 44 44 29 45 43 46
REMARK SMILES IDX 30 47 39 48 32 49 22 50 31 51 45 52 40 54 41 55 42 56 33 57
REMARK SMILES IDX 34 58 38 59 35 60 37 61 36 62
REMARK H PARENT 57 18 55 20 8 22 14 31 45 53
ROOT
ATOM      1  O   UNL     1      21.317  62.144  35.839  1.00  0.00    -0.344 OA
ENDROOT
BRANCH   1   2
ATOM      2  C   UNL     1      21.559  60.781  36.143  1.00  0.00     0.253 C 
ATOM      3  C   UNL     1      23.291  61.187  38.424  1.00  0.00     0.179 C 
ATOM      4  C   UNL     1      23.795  61.453  36.997  1.00  0.00     0.151 C 
ATOM      5  C   UNL     1      21.738  61.224  38.494  1.00  0.00     0.150 C 
ATOM      6  C   UNL     1      23.064  60.514  36.021  1.00  0.00     0.096 C 
ATOM      7  O   UNL     1      21.097  60.476  37.456  1.00  0.00    -0.347 OA
ATOM      8  C   UNL     1      21.176  62.650  38.635  1.00  0.00     0.041 C 
BRANCH   3   9
ATOM      9  O   UNL     1      23.759  59.909  38.852  1.00  0.00    -0.344 OA
BRANCH   9  10
ATOM     10  C   UNL     1      24.355  59.981  40.143  1.00  0.00     0.253 C 
ATOM     11  C   UNL     1      26.402  60.706  41.199  1.00  0.00     0.149 C 
ATOM     12  O   UNL     1      25.531  60.782  40.059  1.00  0.00    -0.347 OA
ATOM     13  C   UNL     1      25.809  59.962  42.431  1.00  0.00     0.172 C 
ATOM     14  C   UNL     1      25.341  58.549  42.012  1.00  0.00     0.150 C 
ATOM     15  C   UNL     1      24.693  58.551  40.607  1.00  0.00     0.096 C 
ATOM     16  C   UNL     1      27.737  60.095  40.762  1.00  0.00     0.041 C 
BRANCH  13  17
ATOM     17  O   UNL     1      24.715  60.691  42.933  1.00  0.00    -0.388 OA
ATOM     18  H   UNL     1      25.065  61.561  43.257  1.00  0.00     0.211 HD
ENDBRANCH  13  17
BRANCH  14  19
ATOM     19  O   UNL     1      24.488  58.001  42.989  1.00  0.00    -0.390 OA
ATOM     20  H   UNL     1      23.871  58.717  43.294  1.00  0.00     0.211 HD
ENDBRANCH  14  19
ENDBRANCH   9  10
ENDBRANCH   3   9
BRANCH   4  21
ATOM     21  O   UNL     1      25.193  61.313  36.911  1.00  0.00    -0.390 OA
ATOM     22  H   UNL     1      25.490  60.723  37.651  1.00  0.00     0.211 HD
ENDBRANCH   4  21
ENDBRANCH   1   2
BRANCH   1  23
ATOM     23  C   UNL     1      20.334  62.405  34.860  1.00  0.00     0.179 C 
ATOM     24  C   UNL     1      19.471  63.607  35.326  1.00  0.00     0.151 C 
ATOM     25  C   UNL     1      21.056  62.747  33.527  1.00  0.00     0.150 C 
ATOM     26  C   UNL     1      18.608  64.109  34.161  1.00  0.00     0.096 C 
ATOM     27  O   UNL     1      20.117  63.151  32.546  1.00  0.00    -0.347 OA
ATOM     28  C   UNL     1      19.498  64.367  32.930  1.00  0.00     0.253 C 
ATOM     29  C   UNL     1      21.825  61.543  32.988  1.00  0.00     0.041 C 
BRANCH  24  30
ATOM     30  O   UNL     1      20.240  64.664  35.853  1.00  0.00    -0.390 OA
ATOM     31  H   UNL     1      21.134  64.332  36.111  1.00  0.00     0.211 HD
ENDBRANCH  24  30
BRANCH  28  32
ATOM     32  O   UNL     1      18.686  64.796  31.853  1.00  0.00    -0.349 OA
BRANCH  32  33
ATOM     33  C   UNL     1      17.339  64.352  31.953  1.00  0.00     0.121 C 
ATOM     34  C   UNL     1      16.840  63.948  30.549  1.00  0.00     0.033 C 
ATOM     35  C   UNL     1      16.528  65.510  32.582  1.00  0.00     0.036 C 
ATOM     36  C   UNL     1      16.035  65.075  29.905  1.00  0.00     0.010 C 
ATOM     37  C   UNL     1      15.020  65.414  32.290  1.00  0.00    -0.002 C 
ATOM     38  C   UNL     1      14.724  65.373  30.719  1.00  0.00    -0.026 C 
ATOM     39  C   UNL     1      14.304  66.589  33.029  1.00  0.00     0.005 C 
ATOM     40  C   UNL     1      14.126  66.755  30.277  1.00  0.00     0.001 C 
ATOM     41  C   UNL     1      12.857  66.729  32.559  1.00  0.00     0.007 C 
ATOM     42  C   UNL     1      12.763  67.038  31.030  1.00  0.00     0.025 C 
ATOM     43  C   UNL     1      13.995  66.966  28.738  1.00  0.00     0.005 C 
ATOM     44  C   UNL     1      12.300  68.483  30.677  1.00  0.00     0.077 C 
ATOM     45  C   UNL     1      13.443  68.375  28.408  1.00  0.00     0.011 C 
ATOM     46  C   UNL     1      10.924  68.944  31.180  1.00  0.00     0.082 C 
ATOM     47  C   UNL     1      12.093  68.617  29.131  1.00  0.00     0.007 C 
ATOM     48  C   UNL     1      10.664  70.215  30.340  1.00  0.00     0.187 C 
ATOM     49  C   UNL     1      11.430  70.025  28.991  1.00  0.00     0.069 C 
ATOM     50  C   UNL     1      13.696  64.231  30.427  1.00  0.00     0.012 C 
ATOM     51  C   UNL     1      11.050  67.601  28.517  1.00  0.00     0.015 C 
BRANCH  44  52
ATOM     52  O   UNL     1      13.278  69.397  31.119  1.00  0.00    -0.389 OA
ATOM     53  H   UNL     1      12.815  70.186  31.505  1.00  0.00     0.211 HD
ENDBRANCH  44  52
BRANCH  48  54
ATOM     54  O   UNL     1       9.306  70.393  30.134  1.00  0.00    -0.464 OA
BRANCH  54  55
ATOM     55  C   UNL     1       8.615  71.543  30.326  1.00  0.00     0.447 C 
ATOM     56  O   UNL     1       7.701  71.610  31.137  1.00  0.00    -0.256 OA
ENDBRANCH  54  55
ENDBRANCH  48  54
BRANCH  49  57
ATOM     57  C   UNL     1      12.342  71.218  28.680  1.00  0.00    -0.018 C 
ATOM     58  C   UNL     1      13.596  71.289  29.109  1.00  0.00     0.096 C 
ATOM     59  C   UNL     1      12.042  72.460  27.852  1.00  0.00     0.265 C 
ATOM     60  C   UNL     1      14.132  72.525  28.603  1.00  0.00     0.331 C 
ATOM     61  O   UNL     1      13.219  73.183  27.875  1.00  0.00    -0.458 OA
ATOM     62  O   UNL     1      15.266  72.931  28.793  1.00  0.00    -0.247 OA
ENDBRANCH  49  57
ENDBRANCH  32  33
ENDBRANCH  28  32
ENDBRANCH   1  23
TORSDOF 14
ENDMDL
MODEL 3
REMARK VINA RESULT:   -13.297      7.052     21.273
REMARK INTER + INTRA:         -22.919
REMARK INTER:                 -21.372
REMARK INTRA:                  -1.547
REMARK UNBOUND:                -0.682
REMARK SMILES C[C@H]1O[C@@H](O[C@H]2[C@@H](O)C[C@H](O[C@H]3[C@@H](O)C[C@H](O[C@@H]4CC[C@@]5(C)[C@H](CC[C@@H]6[C@@H]5CC[C@]5(C)[C@H](C7=CC(=O)OC7)[C@@H](OC=O)C[C@@]65O)C4)O[C@@H]3C)O[C@@H]2C)C[C@H](O)[C@@H]1O
REMARK SMILES IDX 11 1 10 2 6 3 7 4 51 5 9 6 50 7 52 8 5 9 4 10 2 11 3 12
REMARK SMILES IDX 56 13 54 14 53 15 1 16 57 17 55 19 8 21 12 23 13 24 48 25
REMARK SMILES IDX 15 26 47 27 16 28 49 29 14 30 17 32 18 33 19 34 46 35 20 36
REMARK SMILES IDX 23 37 21 38 24 39 27 40 25 41 26 42 28 43 44 44 29 45 43 46
REMARK SMILES IDX 30 47 39 48 32 49 22 50 31 51 45 52 40 54 41 55 42 56 33 57
REMARK SMILES IDX 34 58 38 59 35 60 37 61 36 62
REMARK H PARENT 57 18 55 20 8 22 14 31 45 53
ROOT
ATOM      1  O   UNL     1      24.711  59.969  39.413  1.00  0.00    -0.344 OA
ENDROOT
BRANCH   1   2
ATOM      2  C   UNL     1      24.734  61.130  38.601  1.00  0.00     0.253 C 
ATOM      3  C   UNL     1      22.052  60.924  37.539  1.00  0.00     0.179 C 
ATOM      4  C   UNL     1      23.164  59.981  37.054  1.00  0.00     0.151 C 
ATOM      5  C   UNL     1      22.393  61.538  38.926  1.00  0.00     0.150 C 
ATOM      6  C   UNL     1      24.516  60.709  37.143  1.00  0.00     0.096 C 
ATOM      7  O   UNL     1      23.727  62.048  39.018  1.00  0.00    -0.347 OA
ATOM      8  C   UNL     1      22.026  60.613  40.101  1.00  0.00     0.041 C 
BRANCH   3   9
ATOM      9  O   UNL     1      21.877  61.968  36.583  1.00  0.00    -0.344 OA
BRANCH   9  10
ATOM     10  C   UNL     1      20.506  62.126  36.233  1.00  0.00     0.253 C 
ATOM     11  C   UNL     1      18.988  61.619  34.424  1.00  0.00     0.149 C 
ATOM     12  O   UNL     1      20.237  61.339  35.076  1.00  0.00    -0.347 OA
ATOM     13  C   UNL     1      18.029  62.556  35.217  1.00  0.00     0.172 C 
ATOM     14  C   UNL     1      18.761  63.870  35.575  1.00  0.00     0.150 C 
ATOM     15  C   UNL     1      20.239  63.618  35.958  1.00  0.00     0.096 C 
ATOM     16  C   UNL     1      19.273  62.164  33.022  1.00  0.00     0.041 C 
BRANCH  13  17
ATOM     17  O   UNL     1      17.617  61.909  36.397  1.00  0.00    -0.388 OA
ATOM     18  H   UNL     1      18.352  61.303  36.672  1.00  0.00     0.211 HD
ENDBRANCH  13  17
BRANCH  14  19
ATOM     19  O   UNL     1      18.064  64.565  36.581  1.00  0.00    -0.390 OA
ATOM     20  H   UNL     1      18.587  65.377  36.812  1.00  0.00     0.211 HD
ENDBRANCH  14  19
ENDBRANCH   9  10
ENDBRANCH   3   9
BRANCH   4  21
ATOM     21  O   UNL     1      22.906  59.510  35.753  1.00  0.00    -0.390 OA
ATOM     22  H   UNL     1      23.639  58.891  35.498  1.00  0.00     0.211 HD
ENDBRANCH   4  21
ENDBRANCH   1   2
BRANCH   1  23
ATOM     23  C   UNL     1      25.941  59.574  39.982  1.00  0.00     0.179 C 
ATOM     24  C   UNL     1      26.672  60.834  40.517  1.00  0.00     0.151 C 
ATOM     25  C   UNL     1      25.642  58.592  41.149  1.00  0.00     0.150 C 
ATOM     26  C   UNL     1      27.847  60.413  41.408  1.00  0.00     0.096 C 
ATOM     27  O   UNL     1      26.834  58.271  41.844  1.00  0.00    -0.347 OA
ATOM     28  C   UNL     1      27.355  59.424  42.482  1.00  0.00     0.253 C 
ATOM     29  C   UNL     1      25.021  57.294  40.637  1.00  0.00     0.041 C 
BRANCH  24  30
ATOM     30  O   UNL     1      25.818  61.709  41.218  1.00  0.00    -0.390 OA
ATOM     31  H   UNL     1      24.886  61.579  40.917  1.00  0.00     0.211 HD
ENDBRANCH  24  30
BRANCH  28  32
ATOM     32  O   UNL     1      28.454  59.018  43.276  1.00  0.00    -0.349 OA
BRANCH  32  33
ATOM     33  C   UNL     1      28.229  59.176  44.671  1.00  0.00     0.121 C 
ATOM     34  C   UNL     1      29.587  59.132  45.405  1.00  0.00     0.033 C 
ATOM     35  C   UNL     1      27.261  58.049  45.103  1.00  0.00     0.036 C 
ATOM     36  C   UNL     1      29.857  57.743  45.979  1.00  0.00     0.010 C 
ATOM     37  C   UNL     1      27.321  57.753  46.613  1.00  0.00    -0.002 C 
ATOM     38  C   UNL     1      28.800  57.368  47.081  1.00  0.00    -0.026 C 
ATOM     39  C   UNL     1      26.258  56.655  46.937  1.00  0.00     0.005 C 
ATOM     40  C   UNL     1      28.858  55.827  47.371  1.00  0.00     0.001 C 
ATOM     41  C   UNL     1      26.453  56.108  48.349  1.00  0.00     0.007 C 
ATOM     42  C   UNL     1      27.854  55.442  48.534  1.00  0.00     0.025 C 
ATOM     43  C   UNL     1      30.283  55.245  47.616  1.00  0.00     0.005 C 
ATOM     44  C   UNL     1      27.836  53.891  48.670  1.00  0.00     0.077 C 
ATOM     45  C   UNL     1      30.235  53.714  47.844  1.00  0.00     0.011 C 
ATOM     46  C   UNL     1      27.036  53.277  49.829  1.00  0.00     0.082 C 
ATOM     47  C   UNL     1      29.270  53.364  49.007  1.00  0.00     0.007 C 
ATOM     48  C   UNL     1      27.555  51.821  49.865  1.00  0.00     0.187 C 
ATOM     49  C   UNL     1      29.020  51.854  49.321  1.00  0.00     0.069 C 
ATOM     50  C   UNL     1      29.144  58.168  48.380  1.00  0.00     0.012 C 
ATOM     51  C   UNL     1      29.899  53.966  50.327  1.00  0.00     0.015 C 
BRANCH  44  52
ATOM     52  O   UNL     1      27.384  53.331  47.457  1.00  0.00    -0.389 OA
ATOM     53  H   UNL     1      27.843  53.795  46.709  1.00  0.00     0.211 HD
ENDBRANCH  44  52
BRANCH  48  54
ATOM     54  O   UNL     1      27.502  51.316  51.153  1.00  0.00    -0.464 OA
BRANCH  54  55
ATOM     55  C   UNL     1      26.675  51.739  52.141  1.00  0.00     0.447 C 
ATOM     56  O   UNL     1      26.226  50.962  52.973  1.00  0.00    -0.256 OA
ENDBRANCH  54  55
ENDBRANCH  48  54
BRANCH  49  57
ATOM     57  C   UNL     1      29.230  50.843  48.188  1.00  0.00    -0.018 C 
ATOM     58  C   UNL     1      30.426  50.354  47.879  1.00  0.00     0.096 C 
ATOM     59  C   UNL     1      28.195  50.206  47.271  1.00  0.00     0.265 C 
ATOM     60  C   UNL     1      30.221  49.428  46.797  1.00  0.00     0.331 C 
ATOM     61  O   UNL     1      28.925  49.354  46.465  1.00  0.00    -0.458 OA
ATOM     62  O   UNL     1      31.098  48.781  46.249  1.00  0.00    -0.247 OA
ENDBRANCH  49  57
ENDBRANCH  32  33
ENDBRANCH  28  32
ENDBRANCH   1  23
TORSDOF 14
ENDMDL
MODEL 4
REMARK VINA RESULT:   -13.282      7.490     21.279
REMARK INTER + INTRA:         -22.893
REMARK INTER:                 -21.798
REMARK INTRA:                  -1.095
REMARK UNBOUND:                -0.682
REMARK SMILES C[C@H]1O[C@@H](O[C@H]2[C@@H](O)C[C@H](O[C@H]3[C@@H](O)C[C@H](O[C@@H]4CC[C@@]5(C)[C@H](CC[C@@H]6[C@@H]5CC[C@]5(C)[C@H](C7=CC(=O)OC7)[C@@H](OC=O)C[C@@]65O)C4)O[C@@H]3C)O[C@@H]2C)C[C@H](O)[C@@H]1O
REMARK SMILES IDX 11 1 10 2 6 3 7 4 51 5 9 6 50 7 52 8 5 9 4 10 2 11 3 12
REMARK SMILES IDX 56 13 54 14 53 15 1 16 57 17 55 19 8 21 12 23 13 24 48 25
REMARK SMILES IDX 15 26 47 27 16 28 49 29 14 30 17 32 18 33 19 34 46 35 20 36
REMARK SMILES IDX 23 37 21 38 24 39 27 40 25 41 26 42 28 43 44 44 29 45 43 46
REMARK SMILES IDX 30 47 39 48 32 49 22 50 31 51 45 52 40 54 41 55 42 56 33 57
REMARK SMILES IDX 34 58 38 59 35 60 37 61 36 62
REMARK H PARENT 57 18 55 20 8 22 14 31 45 53
ROOT
ATOM      1  O   UNL     1      25.379  60.362  39.832  1.00  0.00    -0.344 OA
ENDROOT
BRANCH   1   2
ATOM      2  C   UNL     1      24.183  59.761  39.366  1.00  0.00     0.253 C 
ATOM      3  C   UNL     1      22.810  62.179  38.572  1.00  0.00     0.179 C 
ATOM      4  C   UNL     1      22.975  61.821  40.058  1.00  0.00     0.151 C 
ATOM      5  C   UNL     1      23.860  61.447  37.691  1.00  0.00     0.150 C 
ATOM      6  C   UNL     1      23.013  60.290  40.205  1.00  0.00     0.096 C 
ATOM      7  O   UNL     1      23.987  60.052  37.985  1.00  0.00    -0.347 OA
ATOM      8  C   UNL     1      25.218  62.172  37.643  1.00  0.00     0.041 C 
BRANCH   3   9
ATOM      9  O   UNL     1      21.496  61.820  38.151  1.00  0.00    -0.344 OA
BRANCH   9  10
ATOM     10  C   UNL     1      21.215  62.315  36.846  1.00  0.00     0.253 C 
ATOM     11  C   UNL     1      19.394  63.273  35.582  1.00  0.00     0.149 C 
ATOM     12  O   UNL     1      19.956  62.981  36.872  1.00  0.00    -0.347 OA
ATOM     13  C   UNL     1      20.354  63.039  34.379  1.00  0.00     0.172 C 
ATOM     14  C   UNL     1      20.898  61.592  34.418  1.00  0.00     0.150 C 
ATOM     15  C   UNL     1      21.192  61.128  35.865  1.00  0.00     0.096 C 
ATOM     16  C   UNL     1      18.090  62.488  35.421  1.00  0.00     0.041 C 
BRANCH  13  17
ATOM     17  O   UNL     1      21.427  63.948  34.456  1.00  0.00    -0.388 OA
ATOM     18  H   UNL     1      21.852  63.827  35.345  1.00  0.00     0.211 HD
ENDBRANCH  13  17
BRANCH  14  19
ATOM     19  O   UNL     1      22.022  61.463  33.581  1.00  0.00    -0.390 OA
ATOM     20  H   UNL     1      21.699  61.269  32.662  1.00  0.00     0.211 HD
ENDBRANCH  14  19
ENDBRANCH   9  10
ENDBRANCH   3   9
BRANCH   4  21
ATOM     21  O   UNL     1      21.960  62.399  40.842  1.00  0.00    -0.390 OA
ATOM     22  H   UNL     1      22.153  63.368  40.931  1.00  0.00     0.211 HD
ENDBRANCH   4  21
ENDBRANCH   1   2
BRANCH   1  23
ATOM     23  C   UNL     1      25.992  59.756  40.951  1.00  0.00     0.179 C 
ATOM     24  C   UNL     1      26.554  58.374  40.527  1.00  0.00     0.151 C 
ATOM     25  C   UNL     1      27.146  60.680  41.430  1.00  0.00     0.150 C 
ATOM     26  C   UNL     1      27.487  57.835  41.620  1.00  0.00     0.096 C 
ATOM     27  O   UNL     1      27.883  60.056  42.466  1.00  0.00    -0.347 OA
ATOM     28  C   UNL     1      28.541  58.901  41.973  1.00  0.00     0.253 C 
ATOM     29  C   UNL     1      26.611  62.010  41.956  1.00  0.00     0.041 C 
BRANCH  24  30
ATOM     30  O   UNL     1      27.224  58.409  39.288  1.00  0.00    -0.390 OA
ATOM     31  H   UNL     1      28.011  59.004  39.350  1.00  0.00     0.211 HD
ENDBRANCH  24  30
BRANCH  28  32
ATOM     32  O   UNL     1      29.373  58.406  43.005  1.00  0.00    -0.349 OA
BRANCH  32  33
ATOM     33  C   UNL     1      28.948  58.794  44.305  1.00  0.00     0.121 C 
ATOM     34  C   UNL     1      30.163  58.769  45.257  1.00  0.00     0.033 C 
ATOM     35  C   UNL     1      27.822  57.817  44.721  1.00  0.00     0.036 C 
ATOM     36  C   UNL     1      30.207  57.470  46.059  1.00  0.00     0.010 C 
ATOM     37  C   UNL     1      27.615  57.756  46.246  1.00  0.00    -0.002 C 
ATOM     38  C   UNL     1      28.959  57.346  47.008  1.00  0.00    -0.026 C 
ATOM     39  C   UNL     1      26.416  56.798  46.537  1.00  0.00     0.005 C 
ATOM     40  C   UNL     1      28.825  55.868  47.519  1.00  0.00     0.001 C 
ATOM     41  C   UNL     1      26.333  56.464  48.025  1.00  0.00     0.007 C 
ATOM     42  C   UNL     1      27.619  55.739  48.537  1.00  0.00     0.025 C 
ATOM     43  C   UNL     1      30.132  55.233  48.082  1.00  0.00     0.005 C 
ATOM     44  C   UNL     1      27.433  54.232  48.886  1.00  0.00     0.077 C 
ATOM     45  C   UNL     1      29.905  53.763  48.512  1.00  0.00     0.011 C 
ATOM     46  C   UNL     1      26.407  53.863  49.967  1.00  0.00     0.082 C 
ATOM     47  C   UNL     1      28.741  53.665  49.532  1.00  0.00     0.007 C 
ATOM     48  C   UNL     1      26.774  52.397  50.296  1.00  0.00     0.187 C 
ATOM     49  C   UNL     1      28.303  52.244  50.010  1.00  0.00     0.069 C 
ATOM     50  C   UNL     1      29.168  58.311  48.221  1.00  0.00     0.012 C 
ATOM     51  C   UNL     1      29.208  54.420  50.841  1.00  0.00     0.015 C 
BRANCH  44  52
ATOM     52  O   UNL     1      27.127  53.524  47.705  1.00  0.00    -0.389 OA
ATOM     53  H   UNL     1      27.493  54.031  46.934  1.00  0.00     0.211 HD
ENDBRANCH  44  52
BRANCH  48  54
ATOM     54  O   UNL     1      26.472  52.103  51.615  1.00  0.00    -0.464 OA
BRANCH  54  55
ATOM     55  C   UNL     1      26.383  50.863  52.155  1.00  0.00     0.447 C 
ATOM     56  O   UNL     1      25.947  50.689  53.285  1.00  0.00    -0.256 OA
ENDBRANCH  54  55
ENDBRANCH  48  54
BRANCH  49  57
ATOM     57  C   UNL     1      28.593  51.057  49.083  1.00  0.00    -0.018 C 
ATOM     58  C   UNL     1      29.625  50.242  49.267  1.00  0.00     0.096 C 
ATOM     59  C   UNL     1      27.805  50.574  47.873  1.00  0.00     0.265 C 
ATOM     60  C   UNL     1      29.551  49.249  48.228  1.00  0.00     0.331 C 
ATOM     61  O   UNL     1      28.490  49.456  47.437  1.00  0.00    -0.458 OA
ATOM     62  O   UNL     1      30.337  48.328  48.077  1.00  0.00    -0.247 OA
ENDBRANCH  49  57
ENDBRANCH  32  33
ENDBRANCH  28  32
ENDBRANCH   1  23
TORSDOF 14
ENDMDL
MODEL 5
REMARK VINA RESULT:   -12.414      6.852     21.283
REMARK INTER + INTRA:         -21.443
REMARK INTER:                 -20.193
REMARK INTRA:                  -1.250
REMARK UNBOUND:                -0.682
REMARK SMILES C[C@H]1O[C@@H](O[C@H]2[C@@H](O)C[C@H](O[C@H]3[C@@H](O)C[C@H](O[C@@H]4CC[C@@]5(C)[C@H](CC[C@@H]6[C@@H]5CC[C@]5(C)[C@H](C7=CC(=O)OC7)[C@@H](OC=O)C[C@@]65O)C4)O[C@@H]3C)O[C@@H]2C)C[C@H](O)[C@@H]1O
REMARK SMILES IDX 11 1 10 2 6 3 7 4 51 5 9 6 50 7 52 8 5 9 4 10 2 11 3 12
REMARK SMILES IDX 56 13 54 14 53 15 1 16 57 17 55 19 8 21 12 23 13 24 48 25
REMARK SMILES IDX 15 26 47 27 16 28 49 29 14 30 17 32 18 33 19 34 46 35 20 36
REMARK SMILES IDX 23 37 21 38 24 39 27 40 25 41 26 42 28 43 44 44 29 45 43 46
REMARK SMILES IDX 30 47 39 48 32 49 22 50 31 51 45 52 40 54 41 55 42 56 33 57
REMARK SMILES IDX 34 58 38 59 35 60 37 61 36 62
REMARK H PARENT 57 18 55 20 8 22 14 31 45 53
ROOT
ATOM      1  O   UNL     1      24.400  59.909  39.171  1.00  0.00    -0.344 OA
ENDROOT
BRANCH   1   2
ATOM      2  C   UNL     1      24.410  61.117  38.431  1.00  0.00     0.253 C 
ATOM      3  C   UNL     1      21.917  60.737  37.016  1.00  0.00     0.179 C 
ATOM      4  C   UNL     1      23.169  59.932  36.632  1.00  0.00     0.151 C 
ATOM      5  C   UNL     1      22.018  61.288  38.466  1.00  0.00     0.150 C 
ATOM      6  C   UNL     1      24.421  60.774  36.937  1.00  0.00     0.096 C 
ATOM      7  O   UNL     1      23.273  61.911  38.759  1.00  0.00    -0.347 OA
ATOM      8  C   UNL     1      21.599  60.260  39.532  1.00  0.00     0.041 C 
BRANCH   3   9
ATOM      9  O   UNL     1      21.762  61.820  36.101  1.00  0.00    -0.344 OA
BRANCH   9  10
ATOM     10  C   UNL     1      20.388  62.081  35.833  1.00  0.00     0.253 C 
ATOM     11  C   UNL     1      18.805  61.975  34.013  1.00  0.00     0.149 C 
ATOM     12  O   UNL     1      20.061  61.539  34.557  1.00  0.00    -0.347 OA
ATOM     13  C   UNL     1      17.900  62.767  35.003  1.00  0.00     0.172 C 
ATOM     14  C   UNL     1      18.686  63.967  35.582  1.00  0.00     0.150 C 
ATOM     15  C   UNL     1      20.165  63.605  35.859  1.00  0.00     0.096 C 
ATOM     16  C   UNL     1      19.069  62.772  32.733  1.00  0.00     0.041 C 
BRANCH  13  17
ATOM     17  O   UNL     1      17.499  61.916  36.050  1.00  0.00    -0.388 OA
ATOM     18  H   UNL     1      17.646  62.406  36.900  1.00  0.00     0.211 HD
ENDBRANCH  13  17
BRANCH  14  19
ATOM     19  O   UNL     1      18.041  64.474  36.725  1.00  0.00    -0.390 OA
ATOM     20  H   UNL     1      17.062  64.468  36.554  1.00  0.00     0.211 HD
ENDBRANCH  14  19
ENDBRANCH   9  10
ENDBRANCH   3   9
BRANCH   4  21
ATOM     21  O   UNL     1      23.126  59.524  35.287  1.00  0.00    -0.390 OA
ATOM     22  H   UNL     1      22.186  59.294  35.064  1.00  0.00     0.211 HD
ENDBRANCH   4  21
ENDBRANCH   1   2
BRANCH   1  23
ATOM     23  C   UNL     1      25.481  59.702  40.054  1.00  0.00     0.179 C 
ATOM     24  C   UNL     1      25.811  61.042  40.764  1.00  0.00     0.151 C 
ATOM     25  C   UNL     1      25.056  58.633  41.099  1.00  0.00     0.150 C 
ATOM     26  C   UNL     1      26.759  60.786  41.942  1.00  0.00     0.096 C 
ATOM     27  O   UNL     1      26.055  58.487  42.093  1.00  0.00    -0.347 OA
ATOM     28  C   UNL     1      26.177  59.682  42.845  1.00  0.00     0.253 C 
ATOM     29  C   UNL     1      24.831  57.273  40.441  1.00  0.00     0.041 C 
BRANCH  24  30
ATOM     30  O   UNL     1      24.662  61.729  41.203  1.00  0.00    -0.390 OA
ATOM     31  H   UNL     1      23.929  61.605  40.553  1.00  0.00     0.211 HD
ENDBRANCH  24  30
BRANCH  28  32
ATOM     32  O   UNL     1      27.077  59.431  43.908  1.00  0.00    -0.349 OA
BRANCH  32  33
ATOM     33  C   UNL     1      27.389  58.052  44.067  1.00  0.00     0.121 C 
ATOM     34  C   UNL     1      27.596  57.756  45.568  1.00  0.00     0.033 C 
ATOM     35  C   UNL     1      28.644  57.772  43.207  1.00  0.00     0.036 C 
ATOM     36  C   UNL     1      29.080  57.757  45.929  1.00  0.00     0.010 C 
ATOM     37  C   UNL     1      29.408  56.512  43.654  1.00  0.00    -0.002 C 
ATOM     38  C   UNL     1      29.845  56.599  45.189  1.00  0.00    -0.026 C 
ATOM     39  C   UNL     1      30.605  56.295  42.675  1.00  0.00     0.005 C 
ATOM     40  C   UNL     1      31.392  56.851  45.264  1.00  0.00     0.001 C 
ATOM     41  C   UNL     1      31.569  55.241  43.216  1.00  0.00     0.007 C 
ATOM     42  C   UNL     1      32.184  55.657  44.591  1.00  0.00     0.025 C 
ATOM     43  C   UNL     1      31.947  57.191  46.680  1.00  0.00     0.005 C 
ATOM     44  C   UNL     1      33.695  56.032  44.551  1.00  0.00     0.077 C 
ATOM     45  C   UNL     1      33.470  57.469  46.638  1.00  0.00     0.011 C 
ATOM     46  C   UNL     1      34.691  54.968  44.065  1.00  0.00     0.082 C 
ATOM     47  C   UNL     1      34.227  56.273  46.003  1.00  0.00     0.007 C 
ATOM     48  C   UNL     1      36.051  55.545  44.521  1.00  0.00     0.187 C 
ATOM     49  C   UNL     1      35.768  56.412  45.790  1.00  0.00     0.069 C 
ATOM     50  C   UNL     1      29.491  55.249  45.894  1.00  0.00     0.012 C 
ATOM     51  C   UNL     1      34.050  55.043  46.981  1.00  0.00     0.015 C 
BRANCH  44  52
ATOM     52  O   UNL     1      33.856  57.198  43.774  1.00  0.00    -0.389 OA
ATOM     53  H   UNL     1      34.127  57.939  44.376  1.00  0.00     0.211 HD
ENDBRANCH  44  52
BRANCH  48  54
ATOM     54  O   UNL     1      36.947  54.524  44.792  1.00  0.00    -0.464 OA
BRANCH  54  55
ATOM     55  C   UNL     1      37.558  54.295  45.979  1.00  0.00     0.447 C 
ATOM     56  O   UNL     1      38.751  54.520  46.137  1.00  0.00    -0.256 OA
ENDBRANCH  54  55
ENDBRANCH  48  54
BRANCH  49  57
ATOM     57  C   UNL     1      36.347  57.826  45.655  1.00  0.00    -0.018 C 
ATOM     58  C   UNL     1      36.800  58.515  46.696  1.00  0.00     0.096 C 
ATOM     59  C   UNL     1      36.545  58.662  44.398  1.00  0.00     0.265 C 
ATOM     60  C   UNL     1      37.281  59.768  46.177  1.00  0.00     0.331 C 
ATOM     61  O   UNL     1      37.130  59.830  44.847  1.00  0.00    -0.458 OA
ATOM     62  O   UNL     1      37.774  60.662  46.844  1.00  0.00    -0.247 OA
ENDBRANCH  49  57
ENDBRANCH  32  33
ENDBRANCH  28  32
ENDBRANCH   1  23
TORSDOF 14
ENDMDL
MODEL 6
REMARK VINA RESULT:   -12.371      6.972     21.406
REMARK INTER + INTRA:         -21.370
REMARK INTER:                 -19.853
REMARK INTRA:                  -1.516
REMARK UNBOUND:                -0.682
REMARK SMILES C[C@H]1O[C@@H](O[C@H]2[C@@H](O)C[C@H](O[C@H]3[C@@H](O)C[C@H](O[C@@H]4CC[C@@]5(C)[C@H](CC[C@@H]6[C@@H]5CC[C@]5(C)[C@H](C7=CC(=O)OC7)[C@@H](OC=O)C[C@@]65O)C4)O[C@@H]3C)O[C@@H]2C)C[C@H](O)[C@@H]1O
REMARK SMILES IDX 11 1 10 2 6 3 7 4 51 5 9 6 50 7 52 8 5 9 4 10 2 11 3 12
REMARK SMILES IDX 56 13 54 14 53 15 1 16 57 17 55 19 8 21 12 23 13 24 48 25
REMARK SMILES IDX 15 26 47 27 16 28 49 29 14 30 17 32 18 33 19 34 46 35 20 36
REMARK SMILES IDX 23 37 21 38 24 39 27 40 25 41 26 42 28 43 44 44 29 45 43 46
REMARK SMILES IDX 30 47 39 48 32 49 22 50 31 51 45 52 40 54 41 55 42 56 33 57
REMARK SMILES IDX 34 58 38 59 35 60 37 61 36 62
REMARK H PARENT 57 18 55 20 8 22 14 31 45 53
ROOT
ATOM      1  O   UNL     1      24.491  59.931  39.208  1.00  0.00    -0.344 OA
ENDROOT
BRANCH   1   2
ATOM      2  C   UNL     1      24.488  61.132  38.456  1.00  0.00     0.253 C 
ATOM      3  C   UNL     1      21.956  60.750  37.112  1.00  0.00     0.179 C 
ATOM      4  C   UNL     1      23.193  59.935  36.703  1.00  0.00     0.151 C 
ATOM      5  C   UNL     1      22.098  61.316  38.552  1.00  0.00     0.150 C 
ATOM      6  C   UNL     1      24.457  60.772  36.965  1.00  0.00     0.096 C 
ATOM      7  O   UNL     1      23.364  61.935  38.806  1.00  0.00    -0.347 OA
ATOM      8  C   UNL     1      21.703  60.301  39.640  1.00  0.00     0.041 C 
BRANCH   3   9
ATOM      9  O   UNL     1      21.782  61.824  36.190  1.00  0.00    -0.344 OA
BRANCH   9  10
ATOM     10  C   UNL     1      20.404  62.065  35.927  1.00  0.00     0.253 C 
ATOM     11  C   UNL     1      18.789  61.820  34.148  1.00  0.00     0.149 C 
ATOM     12  O   UNL     1      20.055  61.427  34.702  1.00  0.00    -0.347 OA
ATOM     13  C   UNL     1      17.901  62.687  35.089  1.00  0.00     0.172 C 
ATOM     14  C   UNL     1      18.695  63.926  35.561  1.00  0.00     0.150 C 
ATOM     15  C   UNL     1      20.179  63.586  35.840  1.00  0.00     0.096 C 
ATOM     16  C   UNL     1      19.030  62.516  32.806  1.00  0.00     0.041 C 
BRANCH  13  17
ATOM     17  O   UNL     1      17.519  61.919  36.206  1.00  0.00    -0.388 OA
ATOM     18  H   UNL     1      16.750  61.358  35.927  1.00  0.00     0.211 HD
ENDBRANCH  13  17
BRANCH  14  19
ATOM     19  O   UNL     1      18.069  64.521  36.673  1.00  0.00    -0.390 OA
ATOM     20  H   UNL     1      18.775  64.767  37.327  1.00  0.00     0.211 HD
ENDBRANCH  14  19
ENDBRANCH   9  10
ENDBRANCH   3   9
BRANCH   4  21
ATOM     21  O   UNL     1      23.112  59.513  35.364  1.00  0.00    -0.390 OA
ATOM     22  H   UNL     1      23.666  58.696  35.263  1.00  0.00     0.211 HD
ENDBRANCH   4  21
ENDBRANCH   1   2
BRANCH   1  23
ATOM     23  C   UNL     1      25.563  59.756  40.110  1.00  0.00     0.179 C 
ATOM     24  C   UNL     1      25.835  61.102  40.832  1.00  0.00     0.151 C 
ATOM     25  C   UNL     1      25.155  58.667  41.141  1.00  0.00     0.150 C 
ATOM     26  C   UNL     1      26.771  60.871  42.025  1.00  0.00     0.096 C 
ATOM     27  O   UNL     1      26.142  58.549  42.152  1.00  0.00    -0.347 OA
ATOM     28  C   UNL     1      26.211  59.743  42.912  1.00  0.00     0.253 C 
ATOM     29  C   UNL     1      24.988  57.304  40.473  1.00  0.00     0.041 C 
BRANCH  24  30
ATOM     30  O   UNL     1      24.656  61.747  41.254  1.00  0.00    -0.390 OA
ATOM     31  H   UNL     1      24.744  62.723  41.124  1.00  0.00     0.211 HD
ENDBRANCH  24  30
BRANCH  28  32
ATOM     32  O   UNL     1      27.099  59.516  43.990  1.00  0.00    -0.349 OA
BRANCH  32  33
ATOM     33  C   UNL     1      28.005  58.445  43.756  1.00  0.00     0.121 C 
ATOM     34  C   UNL     1      27.976  57.491  44.970  1.00  0.00     0.033 C 
ATOM     35  C   UNL     1      29.395  59.076  43.505  1.00  0.00     0.036 C 
ATOM     36  C   UNL     1      29.134  57.777  45.923  1.00  0.00     0.010 C 
ATOM     37  C   UNL     1      30.553  58.092  43.750  1.00  0.00    -0.002 C 
ATOM     38  C   UNL     1      30.519  57.497  45.233  1.00  0.00    -0.026 C 
ATOM     39  C   UNL     1      31.892  58.818  43.399  1.00  0.00     0.005 C 
ATOM     40  C   UNL     1      31.672  58.151  46.072  1.00  0.00     0.001 C 
ATOM     41  C   UNL     1      33.094  58.010  43.885  1.00  0.00     0.007 C 
ATOM     42  C   UNL     1      33.083  57.815  45.435  1.00  0.00     0.025 C 
ATOM     43  C   UNL     1      31.640  57.855  47.602  1.00  0.00     0.005 C 
ATOM     44  C   UNL     1      34.172  58.615  46.209  1.00  0.00     0.077 C 
ATOM     45  C   UNL     1      32.788  58.584  48.342  1.00  0.00     0.011 C 
ATOM     46  C   UNL     1      35.646  58.349  45.864  1.00  0.00     0.082 C 
ATOM     47  C   UNL     1      34.160  58.215  47.722  1.00  0.00     0.007 C 
ATOM     48  C   UNL     1      36.394  59.001  47.050  1.00  0.00     0.187 C 
ATOM     49  C   UNL     1      35.432  58.930  48.280  1.00  0.00     0.069 C 
ATOM     50  C   UNL     1      30.726  55.948  45.162  1.00  0.00     0.012 C 
ATOM     51  C   UNL     1      34.393  56.675  47.996  1.00  0.00     0.015 C 
BRANCH  44  52
ATOM     52  O   UNL     1      33.912  59.994  46.068  1.00  0.00    -0.389 OA
ATOM     53  H   UNL     1      34.697  60.496  46.410  1.00  0.00     0.211 HD
ENDBRANCH  44  52
BRANCH  48  54
ATOM     54  O   UNL     1      37.585  58.340  47.296  1.00  0.00    -0.464 OA
BRANCH  54  55
ATOM     55  C   UNL     1      37.863  57.576  48.381  1.00  0.00     0.447 C 
ATOM     56  O   UNL     1      38.615  56.613  48.308  1.00  0.00    -0.256 OA
ENDBRANCH  54  55
ENDBRANCH  48  54
BRANCH  49  57
ATOM     57  C   UNL     1      35.250  60.302  48.940  1.00  0.00    -0.018 C 
ATOM     58  C   UNL     1      35.214  60.461  50.258  1.00  0.00     0.096 C 
ATOM     59  C   UNL     1      35.118  61.669  48.284  1.00  0.00     0.265 C 
ATOM     60  C   UNL     1      35.060  61.872  50.495  1.00  0.00     0.331 C 
ATOM     61  O   UNL     1      35.011  62.552  49.341  1.00  0.00    -0.458 OA
ATOM     62  O   UNL     1      34.989  62.398  51.593  1.00  0.00    -0.247 OA
ENDBRANCH  49  57
ENDBRANCH  32  33
ENDBRANCH  28  32
ENDBRANCH   1  23
TORSDOF 14
ENDMDL
MODEL 7
REMARK VINA RESULT:   -12.278      7.291     21.739
REMARK INTER + INTRA:         -21.215
REMARK INTER:                 -19.646
REMARK INTRA:                  -1.570
REMARK UNBOUND:                -0.682
REMARK SMILES C[C@H]1O[C@@H](O[C@H]2[C@@H](O)C[C@H](O[C@H]3[C@@H](O)C[C@H](O[C@@H]4CC[C@@]5(C)[C@H](CC[C@@H]6[C@@H]5CC[C@]5(C)[C@H](C7=CC(=O)OC7)[C@@H](OC=O)C[C@@]65O)C4)O[C@@H]3C)O[C@@H]2C)C[C@H](O)[C@@H]1O
REMARK SMILES IDX 11 1 10 2 6 3 7 4 51 5 9 6 50 7 52 8 5 9 4 10 2 11 3 12
REMARK SMILES IDX 56 13 54 14 53 15 1 16 57 17 55 19 8 21 12 23 13 24 48 25
REMARK SMILES IDX 15 26 47 27 16 28 49 29 14 30 17 32 18 33 19 34 46 35 20 36
REMARK SMILES IDX 23 37 21 38 24 39 27 40 25 41 26 42 28 43 44 44 29 45 43 46
REMARK SMILES IDX 30 47 39 48 32 49 22 50 31 51 45 52 40 54 41 55 42 56 33 57
REMARK SMILES IDX 34 58 38 59 35 60 37 61 36 62
REMARK H PARENT 57 18 55 20 8 22 14 31 45 53
ROOT
ATOM      1  O   UNL     1      24.548  60.380  39.762  1.00  0.00    -0.344 OA
ENDROOT
BRANCH   1   2
ATOM      2  C   UNL     1      24.547  61.491  38.883  1.00  0.00     0.253 C 
ATOM      3  C   UNL     1      22.074  60.903  37.504  1.00  0.00     0.179 C 
ATOM      4  C   UNL     1      23.342  60.080  37.229  1.00  0.00     0.151 C 
ATOM      5  C   UNL     1      22.153  61.626  38.878  1.00  0.00     0.150 C 
ATOM      6  C   UNL     1      24.578  60.972  37.440  1.00  0.00     0.096 C 
ATOM      7  O   UNL     1      23.395  62.300  39.104  1.00  0.00    -0.347 OA
ATOM      8  C   UNL     1      21.739  60.725  40.056  1.00  0.00     0.041 C 
BRANCH   3   9
ATOM      9  O   UNL     1      21.912  61.867  36.464  1.00  0.00    -0.344 OA
BRANCH   9  10
ATOM     10  C   UNL     1      20.538  62.056  36.143  1.00  0.00     0.253 C 
ATOM     11  C   UNL     1      18.991  61.667  34.330  1.00  0.00     0.149 C 
ATOM     12  O   UNL     1      20.246  61.339  34.947  1.00  0.00    -0.347 OA
ATOM     13  C   UNL     1      18.051  62.565  35.189  1.00  0.00     0.172 C 
ATOM     14  C   UNL     1      18.800  63.849  35.613  1.00  0.00     0.150 C 
ATOM     15  C   UNL     1      20.281  63.564  35.959  1.00  0.00     0.096 C 
ATOM     16  C   UNL     1      19.261  62.290  32.958  1.00  0.00     0.041 C 
BRANCH  13  17
ATOM     17  O   UNL     1      17.649  61.853  36.336  1.00  0.00    -0.388 OA
ATOM     18  H   UNL     1      18.386  61.921  36.997  1.00  0.00     0.211 HD
ENDBRANCH  13  17
BRANCH  14  19
ATOM     19  O   UNL     1      18.123  64.491  36.667  1.00  0.00    -0.390 OA
ATOM     20  H   UNL     1      18.565  64.234  37.518  1.00  0.00     0.211 HD
ENDBRANCH  14  19
ENDBRANCH   9  10
ENDBRANCH   3   9
BRANCH   4  21
ATOM     21  O   UNL     1      23.318  59.513  35.942  1.00  0.00    -0.390 OA
ATOM     22  H   UNL     1      23.529  58.546  36.026  1.00  0.00     0.211 HD
ENDBRANCH   4  21
ENDBRANCH   1   2
BRANCH   1  23
ATOM     23  C   UNL     1      25.812  59.907  40.177  1.00  0.00     0.179 C 
ATOM     24  C   UNL     1      26.572  61.062  40.881  1.00  0.00     0.151 C 
ATOM     25  C   UNL     1      25.587  58.731  41.168  1.00  0.00     0.150 C 
ATOM     26  C   UNL     1      27.801  60.506  41.611  1.00  0.00     0.096 C 
ATOM     27  O   UNL     1      26.821  58.308  41.721  1.00  0.00    -0.347 OA
ATOM     28  C   UNL     1      27.379  59.337  42.521  1.00  0.00     0.253 C 
ATOM     29  C   UNL     1      24.938  57.536  40.473  1.00  0.00     0.041 C 
BRANCH  24  30
ATOM     30  O   UNL     1      25.762  61.789  41.776  1.00  0.00    -0.390 OA
ATOM     31  H   UNL     1      26.266  61.979  42.604  1.00  0.00     0.211 HD
ENDBRANCH  24  30
BRANCH  28  32
ATOM     32  O   UNL     1      28.525  58.810  43.162  1.00  0.00    -0.349 OA
BRANCH  32  33
ATOM     33  C   UNL     1      29.088  59.695  44.122  1.00  0.00     0.121 C 
ATOM     34  C   UNL     1      30.599  59.400  44.248  1.00  0.00     0.033 C 
ATOM     35  C   UNL     1      28.309  59.482  45.442  1.00  0.00     0.036 C 
ATOM     36  C   UNL     1      30.886  58.501  45.449  1.00  0.00     0.010 C 
ATOM     37  C   UNL     1      29.093  59.950  46.682  1.00  0.00    -0.002 C 
ATOM     38  C   UNL     1      30.509  59.218  46.798  1.00  0.00    -0.026 C 
ATOM     39  C   UNL     1      28.183  59.752  47.937  1.00  0.00     0.005 C 
ATOM     40  C   UNL     1      30.445  58.164  47.959  1.00  0.00     0.001 C 
ATOM     41  C   UNL     1      28.985  59.922  49.225  1.00  0.00     0.007 C 
ATOM     42  C   UNL     1      30.142  58.877  49.340  1.00  0.00     0.025 C 
ATOM     43  C   UNL     1      31.665  57.200  48.058  1.00  0.00     0.005 C 
ATOM     44  C   UNL     1      29.932  57.777  50.422  1.00  0.00     0.077 C 
ATOM     45  C   UNL     1      31.482  56.173  49.201  1.00  0.00     0.011 C 
ATOM     46  C   UNL     1      29.759  58.223  51.882  1.00  0.00     0.082 C 
ATOM     47  C   UNL     1      31.217  56.894  50.548  1.00  0.00     0.007 C 
ATOM     48  C   UNL     1      29.963  56.906  52.666  1.00  0.00     0.187 C 
ATOM     49  C   UNL     1      30.914  56.015  51.802  1.00  0.00     0.069 C 
ATOM     50  C   UNL     1      31.608  60.286  47.108  1.00  0.00     0.012 C 
ATOM     51  C   UNL     1      32.532  57.696  50.909  1.00  0.00     0.015 C 
BRANCH  44  52
ATOM     52  O   UNL     1      28.828  56.980  50.055  1.00  0.00    -0.389 OA
ATOM     53  H   UNL     1      28.772  56.216  50.686  1.00  0.00     0.211 HD
ENDBRANCH  44  52
BRANCH  48  54
ATOM     54  O   UNL     1      30.501  57.162  53.916  1.00  0.00    -0.464 OA
BRANCH  54  55
ATOM     55  C   UNL     1      30.325  56.407  55.028  1.00  0.00     0.447 C 
ATOM     56  O   UNL     1      30.992  56.593  56.037  1.00  0.00    -0.256 OA
ENDBRANCH  54  55
ENDBRANCH  48  54
BRANCH  49  57
ATOM     57  C   UNL     1      30.328  54.616  51.571  1.00  0.00    -0.018 C 
ATOM     58  C   UNL     1      31.088  53.532  51.469  1.00  0.00     0.096 C 
ATOM     59  C   UNL     1      28.869  54.198  51.454  1.00  0.00     0.265 C 
ATOM     60  C   UNL     1      30.191  52.421  51.285  1.00  0.00     0.331 C 
ATOM     61  O   UNL     1      28.914  52.828  51.285  1.00  0.00    -0.458 OA
ATOM     62  O   UNL     1      30.531  51.257  51.154  1.00  0.00    -0.247 OA
ENDBRANCH  49  57
ENDBRANCH  32  33
ENDBRANCH  28  32
ENDBRANCH   1  23
TORSDOF 14
ENDMDL
MODEL 8
REMARK VINA RESULT:   -12.226      7.111     21.172
REMARK INTER + INTRA:         -21.129
REMARK INTER:                 -20.273
REMARK INTRA:                  -0.855
REMARK UNBOUND:                -0.682
REMARK SMILES C[C@H]1O[C@@H](O[C@H]2[C@@H](O)C[C@H](O[C@H]3[C@@H](O)C[C@H](O[C@@H]4CC[C@@]5(C)[C@H](CC[C@@H]6[C@@H]5CC[C@]5(C)[C@H](C7=CC(=O)OC7)[C@@H](OC=O)C[C@@]65O)C4)O[C@@H]3C)O[C@@H]2C)C[C@H](O)[C@@H]1O
REMARK SMILES IDX 11 1 10 2 6 3 7 4 51 5 9 6 50 7 52 8 5 9 4 10 2 11 3 12
REMARK SMILES IDX 56 13 54 14 53 15 1 16 57 17 55 19 8 21 12 23 13 24 48 25
REMARK SMILES IDX 15 26 47 27 16 28 49 29 14 30 17 32 18 33 19 34 46 35 20 36
REMARK SMILES IDX 23 37 21 38 24 39 27 40 25 41 26 42 28 43 44 44 29 45 43 46
REMARK SMILES IDX 30 47 39 48 32 49 22 50 31 51 45 52 40 54 41 55 42 56 33 57
REMARK SMILES IDX 34 58 38 59 35 60 37 61 36 62
REMARK H PARENT 57 18 55 20 8 22 14 31 45 53
ROOT
ATOM      1  O   UNL     1      24.282  59.893  39.288  1.00  0.00    -0.344 OA
ENDROOT
BRANCH   1   2
ATOM      2  C   UNL     1      24.309  61.113  38.569  1.00  0.00     0.253 C 
ATOM      3  C   UNL     1      21.960  60.666  36.943  1.00  0.00     0.179 C 
ATOM      4  C   UNL     1      23.269  59.915  36.655  1.00  0.00     0.151 C 
ATOM      5  C   UNL     1      21.918  61.195  38.404  1.00  0.00     0.150 C 
ATOM      6  C   UNL     1      24.458  60.796  37.076  1.00  0.00     0.096 C 
ATOM      7  O   UNL     1      23.118  61.859  38.811  1.00  0.00    -0.347 OA
ATOM      8  C   UNL     1      21.450  60.134  39.416  1.00  0.00     0.041 C 
BRANCH   3   9
ATOM      9  O   UNL     1      21.841  61.758  36.034  1.00  0.00    -0.344 OA
BRANCH   9  10
ATOM     10  C   UNL     1      20.477  62.048  35.746  1.00  0.00     0.253 C 
ATOM     11  C   UNL     1      18.918  61.976  33.904  1.00  0.00     0.149 C 
ATOM     12  O   UNL     1      20.156  61.513  34.465  1.00  0.00    -0.347 OA
ATOM     13  C   UNL     1      18.016  62.787  34.881  1.00  0.00     0.172 C 
ATOM     14  C   UNL     1      18.818  63.970  35.472  1.00  0.00     0.150 C 
ATOM     15  C   UNL     1      20.286  63.577  35.770  1.00  0.00     0.096 C 
ATOM     16  C   UNL     1      19.217  62.767  32.628  1.00  0.00     0.041 C 
BRANCH  13  17
ATOM     17  O   UNL     1      17.582  61.945  35.922  1.00  0.00    -0.388 OA
ATOM     18  H   UNL     1      16.602  61.834  35.821  1.00  0.00     0.211 HD
ENDBRANCH  13  17
BRANCH  14  19
ATOM     19  O   UNL     1      18.168  64.491  36.606  1.00  0.00    -0.390 OA
ATOM     20  H   UNL     1      17.288  64.850  36.317  1.00  0.00     0.211 HD
ENDBRANCH  14  19
ENDBRANCH   9  10
ENDBRANCH   3   9
BRANCH   4  21
ATOM     21  O   UNL     1      23.355  59.529  35.305  1.00  0.00    -0.390 OA
ATOM     22  H   UNL     1      23.412  58.538  35.270  1.00  0.00     0.211 HD
ENDBRANCH   4  21
ENDBRANCH   1   2
BRANCH   1  23
ATOM     23  C   UNL     1      25.133  59.806  40.412  1.00  0.00     0.179 C 
ATOM     24  C   UNL     1      24.903  61.048  41.312  1.00  0.00     0.151 C 
ATOM     25  C   UNL     1      24.777  58.507  41.189  1.00  0.00     0.150 C 
ATOM     26  C   UNL     1      25.571  60.833  42.676  1.00  0.00     0.096 C 
ATOM     27  O   UNL     1      25.508  58.440  42.401  1.00  0.00    -0.347 OA
ATOM     28  C   UNL     1      25.114  59.487  43.270  1.00  0.00     0.253 C 
ATOM     29  C   UNL     1      25.098  57.262  40.366  1.00  0.00     0.041 C 
BRANCH  24  30
ATOM     30  O   UNL     1      23.539  61.359  41.482  1.00  0.00    -0.390 OA
ATOM     31  H   UNL     1      23.418  62.340  41.494  1.00  0.00     0.211 HD
ENDBRANCH  24  30
BRANCH  28  32
ATOM     32  O   UNL     1      25.763  59.284  44.511  1.00  0.00    -0.349 OA
BRANCH  32  33
ATOM     33  C   UNL     1      27.133  58.927  44.377  1.00  0.00     0.121 C 
ATOM     34  C   UNL     1      27.336  57.503  44.938  1.00  0.00     0.033 C 
ATOM     35  C   UNL     1      27.956  60.004  45.124  1.00  0.00     0.036 C 
ATOM     36  C   UNL     1      27.867  57.546  46.369  1.00  0.00     0.010 C 
ATOM     37  C   UNL     1      29.361  59.517  45.521  1.00  0.00    -0.002 C 
ATOM     38  C   UNL     1      29.296  58.200  46.425  1.00  0.00    -0.026 C 
ATOM     39  C   UNL     1      30.115  60.704  46.199  1.00  0.00     0.005 C 
ATOM     40  C   UNL     1      29.649  58.581  47.906  1.00  0.00     0.001 C 
ATOM     41  C   UNL     1      31.399  60.222  46.873  1.00  0.00     0.007 C 
ATOM     42  C   UNL     1      31.116  59.171  47.994  1.00  0.00     0.025 C 
ATOM     43  C   UNL     1      29.408  57.461  48.962  1.00  0.00     0.005 C 
ATOM     44  C   UNL     1      31.352  59.678  49.448  1.00  0.00     0.077 C 
ATOM     45  C   UNL     1      29.740  57.953  50.392  1.00  0.00     0.011 C 
ATOM     46  C   UNL     1      32.759  60.171  49.821  1.00  0.00     0.082 C 
ATOM     47  C   UNL     1      31.190  58.496  50.461  1.00  0.00     0.007 C 
ATOM     48  C   UNL     1      32.704  60.214  51.365  1.00  0.00     0.187 C 
ATOM     49  C   UNL     1      31.673  59.125  51.807  1.00  0.00     0.069 C 
ATOM     50  C   UNL     1      30.331  57.161  45.882  1.00  0.00     0.012 C 
ATOM     51  C   UNL     1      32.156  57.271  50.203  1.00  0.00     0.015 C 
BRANCH  44  52
ATOM     52  O   UNL     1      30.420  60.697  49.734  1.00  0.00    -0.389 OA
ATOM     53  H   UNL     1      30.919  61.539  49.895  1.00  0.00     0.211 HD
ENDBRANCH  44  52
BRANCH  48  54
ATOM     54  O   UNL     1      33.957  59.976  51.904  1.00  0.00    -0.464 OA
BRANCH  54  55
ATOM     55  C   UNL     1      34.261  59.036  52.832  1.00  0.00     0.447 C 
ATOM     56  O   UNL     1      34.213  59.282  54.029  1.00  0.00    -0.256 OA
ENDBRANCH  54  55
ENDBRANCH  48  54
BRANCH  49  57
ATOM     57  C   UNL     1      30.609  59.698  52.752  1.00  0.00    -0.018 C 
ATOM     58  C   UNL     1      29.364  59.238  52.788  1.00  0.00     0.096 C 
ATOM     59  C   UNL     1      30.748  60.802  53.790  1.00  0.00     0.265 C 
ATOM     60  C   UNL     1      28.679  59.995  53.802  1.00  0.00     0.331 C 
ATOM     61  O   UNL     1      29.498  60.890  54.372  1.00  0.00    -0.458 OA
ATOM     62  O   UNL     1      27.511  59.849  54.120  1.00  0.00    -0.247 OA
ENDBRANCH  49  57
ENDBRANCH  32  33
ENDBRANCH  28  32
ENDBRANCH   1  23
TORSDOF 14
ENDMDL
MODEL 9
REMARK VINA RESULT:   -12.152      7.128     21.271
REMARK INTER + INTRA:         -21.003
REMARK INTER:                 -19.240
REMARK INTRA:                  -1.763
REMARK UNBOUND:                -0.682
REMARK SMILES C[C@H]1O[C@@H](O[C@H]2[C@@H](O)C[C@H](O[C@H]3[C@@H](O)C[C@H](O[C@@H]4CC[C@@]5(C)[C@H](CC[C@@H]6[C@@H]5CC[C@]5(C)[C@H](C7=CC(=O)OC7)[C@@H](OC=O)C[C@@]65O)C4)O[C@@H]3C)O[C@@H]2C)C[C@H](O)[C@@H]1O
REMARK SMILES IDX 11 1 10 2 6 3 7 4 51 5 9 6 50 7 52 8 5 9 4 10 2 11 3 12
REMARK SMILES IDX 56 13 54 14 53 15 1 16 57 17 55 19 8 21 12 23 13 24 48 25
REMARK SMILES IDX 15 26 47 27 16 28 49 29 14 30 17 32 18 33 19 34 46 35 20 36
REMARK SMILES IDX 23 37 21 38 24 39 27 40 25 41 26 42 28 43 44 44 29 45 43 46
REMARK SMILES IDX 30 47 39 48 32 49 22 50 31 51 45 52 40 54 41 55 42 56 33 57
REMARK SMILES IDX 34 58 38 59 35 60 37 61 36 62
REMARK H PARENT 57 18 55 20 8 22 14 31 45 53
ROOT
ATOM      1  O   UNL     1      24.534  59.946  39.540  1.00  0.00    -0.344 OA
ENDROOT
BRANCH   1   2
ATOM      2  C   UNL     1      24.560  61.130  38.763  1.00  0.00     0.253 C 
ATOM      3  C   UNL     1      21.935  60.883  37.575  1.00  0.00     0.179 C 
ATOM      4  C   UNL     1      23.093  59.985  37.115  1.00  0.00     0.151 C 
ATOM      5  C   UNL     1      22.197  61.466  38.993  1.00  0.00     0.150 C 
ATOM      6  C   UNL     1      24.419  60.746  37.285  1.00  0.00     0.096 C 
ATOM      7  O   UNL     1      23.510  62.008  39.159  1.00  0.00    -0.347 OA
ATOM      8  C   UNL     1      21.804  60.497  40.123  1.00  0.00     0.041 C 
BRANCH   3   9
ATOM      9  O   UNL     1      21.774  61.949  36.641  1.00  0.00    -0.344 OA
BRANCH   9  10
ATOM     10  C   UNL     1      20.409  62.110  36.268  1.00  0.00     0.253 C 
ATOM     11  C   UNL     1      18.931  61.644  34.416  1.00  0.00     0.149 C 
ATOM     12  O   UNL     1      20.168  61.352  35.085  1.00  0.00    -0.347 OA
ATOM     13  C   UNL     1      17.951  62.554  35.214  1.00  0.00     0.172 C 
ATOM     14  C   UNL     1      18.667  63.861  35.623  1.00  0.00     0.150 C 
ATOM     15  C   UNL     1      20.140  63.608  36.028  1.00  0.00     0.096 C 
ATOM     16  C   UNL     1      19.240  62.228  33.035  1.00  0.00     0.041 C 
BRANCH  13  17
ATOM     17  O   UNL     1      17.519  61.873  36.368  1.00  0.00    -0.388 OA
ATOM     18  H   UNL     1      17.333  62.557  37.062  1.00  0.00     0.211 HD
ENDBRANCH  13  17
BRANCH  14  19
ATOM     19  O   UNL     1      17.946  64.526  36.632  1.00  0.00    -0.390 OA
ATOM     20  H   UNL     1      18.325  64.255  37.510  1.00  0.00     0.211 HD
ENDBRANCH  14  19
ENDBRANCH   9  10
ENDBRANCH   3   9
BRANCH   4  21
ATOM     21  O   UNL     1      22.907  59.544  35.791  1.00  0.00    -0.390 OA
ATOM     22  H   UNL     1      22.807  60.343  35.211  1.00  0.00     0.211 HD
ENDBRANCH   4  21
ENDBRANCH   1   2
BRANCH   1  23
ATOM     23  C   UNL     1      25.778  59.477  40.016  1.00  0.00     0.179 C 
ATOM     24  C   UNL     1      26.547  60.661  40.658  1.00  0.00     0.151 C 
ATOM     25  C   UNL     1      25.506  58.375  41.078  1.00  0.00     0.150 C 
ATOM     26  C   UNL     1      27.747  60.132  41.452  1.00  0.00     0.096 C 
ATOM     27  O   UNL     1      26.718  57.966  41.687  1.00  0.00    -0.347 OA
ATOM     28  C   UNL     1      27.280  59.036  42.428  1.00  0.00     0.253 C 
ATOM     29  C   UNL     1      24.847  57.149  40.450  1.00  0.00     0.041 C 
BRANCH  24  30
ATOM     30  O   UNL     1      25.733  61.463  41.482  1.00  0.00    -0.390 OA
ATOM     31  H   UNL     1      25.143  60.890  42.030  1.00  0.00     0.211 HD
ENDBRANCH  24  30
BRANCH  28  32
ATOM     32  O   UNL     1      28.400  58.531  43.130  1.00  0.00    -0.349 OA
BRANCH  32  33
ATOM     33  C   UNL     1      28.048  57.744  44.261  1.00  0.00     0.121 C 
ATOM     34  C   UNL     1      27.108  58.566  45.169  1.00  0.00     0.033 C 
ATOM     35  C   UNL     1      29.369  57.335  44.955  1.00  0.00     0.036 C 
ATOM     36  C   UNL     1      27.878  59.211  46.318  1.00  0.00     0.010 C 
ATOM     37  C   UNL     1      29.174  56.944  46.431  1.00  0.00    -0.002 C 
ATOM     38  C   UNL     1      28.495  58.122  47.271  1.00  0.00    -0.026 C 
ATOM     39  C   UNL     1      30.554  56.486  47.001  1.00  0.00     0.005 C 
ATOM     40  C   UNL     1      29.579  58.779  48.196  1.00  0.00     0.001 C 
ATOM     41  C   UNL     1      30.502  56.357  48.522  1.00  0.00     0.007 C 
ATOM     42  C   UNL     1      30.158  57.714  49.216  1.00  0.00     0.025 C 
ATOM     43  C   UNL     1      29.143  60.092  48.912  1.00  0.00     0.005 C 
ATOM     44  C   UNL     1      31.335  58.373  49.995  1.00  0.00     0.077 C 
ATOM     45  C   UNL     1      30.297  60.683  49.759  1.00  0.00     0.011 C 
ATOM     46  C   UNL     1      31.973  57.580  51.145  1.00  0.00     0.082 C 
ATOM     47  C   UNL     1      30.826  59.633  50.771  1.00  0.00     0.007 C 
ATOM     48  C   UNL     1      32.791  58.661  51.889  1.00  0.00     0.187 C 
ATOM     49  C   UNL     1      32.058  60.020  51.650  1.00  0.00     0.069 C 
ATOM     50  C   UNL     1      27.342  57.525  48.143  1.00  0.00     0.012 C 
ATOM     51  C   UNL     1      29.656  59.347  51.795  1.00  0.00     0.015 C 
BRANCH  44  52
ATOM     52  O   UNL     1      32.342  58.739  49.078  1.00  0.00    -0.389 OA
ATOM     53  H   UNL     1      32.722  57.910  48.685  1.00  0.00     0.211 HD
ENDBRANCH  44  52
BRANCH  48  54
ATOM     54  O   UNL     1      32.880  58.361  53.238  1.00  0.00    -0.464 OA
BRANCH  54  55
ATOM     55  C   UNL     1      32.114  57.465  53.908  1.00  0.00     0.447 C 
ATOM     56  O   UNL     1      31.198  57.826  54.634  1.00  0.00    -0.256 OA
ENDBRANCH  54  55
ENDBRANCH  48  54
BRANCH  49  57
ATOM     57  C   UNL     1      33.012  61.094  51.113  1.00  0.00    -0.018 C 
ATOM     58  C   UNL     1      34.197  60.801  50.592  1.00  0.00     0.096 C 
ATOM     59  C   UNL     1      32.808  62.601  51.035  1.00  0.00     0.265 C 
ATOM     60  C   UNL     1      34.782  62.050  50.180  1.00  0.00     0.331 C 
ATOM     61  O   UNL     1      33.961  63.076  50.440  1.00  0.00    -0.458 OA
ATOM     62  O   UNL     1      35.875  62.175  49.654  1.00  0.00    -0.247 OA
ENDBRANCH  49  57
ENDBRANCH  32  33
ENDBRANCH  28  32
ENDBRANCH   1  23
TORSDOF 14
ENDMDL
