MODEL 1
REMARK VINA RESULT:   -12.812      0.000      0.000
REMARK INTER + INTRA:         -22.819
REMARK INTER:                 -21.052
REMARK INTRA:                  -1.767
REMARK UNBOUND:                -1.767
REMARK SMILES C[C@H]1[C@H]2[C@H](C[C@H]3[C@@H]4CC=C5C[C@@H](O[C@@H]6O[C@H](CO)[C@H](O[C@@H]7O[C@H](CO)[C@@H](O)[C@H](O)[C@H]7O)[C@@H](O)[C@H]6O)CC[C@]5(C)[C@H]4CC(=O)[C@]23C)O[C@]12CC[C@@H](CO)CO2
REMARK SMILES IDX 14 1 15 2 16 3 19 4 32 5 34 6 13 7 12 8 2 9 3 10 47 11 4 12
REMARK SMILES IDX 44 13 46 14 48 15 54 16 5 17 42 18 6 19 49 20 53 21 41 22
REMARK SMILES IDX 43 23 7 24 50 25 40 26 8 27 38 28 9 29 37 30 10 31 36 32
REMARK SMILES IDX 11 33 1 34 45 35 39 36 51 37 52 38 35 40 17 42 18 43 33 45
REMARK SMILES IDX 20 47 21 48 22 49 30 50 23 51 28 52 26 53 31 54 24 56 25 57
REMARK SMILES IDX 29 59 27 61
REMARK H PARENT 52 39 35 41 18 44 33 46 31 55 25 58 29 60 27 62
ROOT
ATOM      1  C   UNL     1      24.144  60.579  39.083  1.00  0.00     0.282 C 
ATOM      2  O   UNL     1      22.721  60.607  38.932  1.00  0.00    -0.341 OA
ATOM      3  C   UNL     1      22.296  61.929  38.655  1.00  0.00     0.178 C 
ATOM      4  C   UNL     1      22.622  62.305  37.174  1.00  0.00     0.184 C 
ATOM      5  C   UNL     1      23.890  61.513  36.731  1.00  0.00     0.180 C 
ATOM      6  C   UNL     1      24.883  61.294  37.897  1.00  0.00     0.202 C 
ENDROOT
BRANCH   1   7
ATOM      7  O   UNL     1      24.545  59.216  39.111  1.00  0.00    -0.346 OA
BRANCH   7   8
ATOM      8  C   UNL     1      25.252  58.878  40.299  1.00  0.00     0.125 C 
ATOM      9  C   UNL     1      30.178  59.692  49.045  1.00  0.00     0.052 C 
ATOM     10  C   UNL     1      29.641  58.773  47.953  1.00  0.00     0.040 C 
ATOM     11  C   UNL     1      29.686  58.975  50.312  1.00  0.00     0.171 C 
ATOM     12  C   UNL     1      28.341  58.297  48.621  1.00  0.00     0.126 C 
ATOM     13  C   UNL     1      29.196  59.378  46.561  1.00  0.00     0.035 C 
ATOM     14  O   UNL     1      28.358  58.583  50.007  1.00  0.00    -0.346 OA
ATOM     15  C   UNL     1      29.619  59.963  51.530  1.00  0.00     0.066 C 
ATOM     16  O   UNL     1      30.436  57.772  50.570  1.00  0.00    -0.349 OA
ATOM     17  C   UNL     1      27.208  58.978  47.843  1.00  0.00     0.037 C 
ATOM     18  C   UNL     1      29.910  58.871  45.324  1.00  0.00     0.139 C 
ATOM     19  C   UNL     1      27.765  58.820  46.429  1.00  0.00     0.009 C 
ATOM     20  C   UNL     1      29.358  59.121  52.773  1.00  0.00     0.014 C 
ATOM     21  C   UNL     1      31.317  57.904  51.669  1.00  0.00     0.169 C 
ATOM     22  C   UNL     1      29.335  59.290  43.983  1.00  0.00     0.081 C 
ATOM     23  O   UNL     1      30.858  58.104  45.393  1.00  0.00    -0.299 OA
ATOM     24  C   UNL     1      27.014  59.376  45.192  1.00  0.00     0.001 C 
ATOM     25  C   UNL     1      30.554  58.161  52.996  1.00  0.00     0.041 C 
ATOM     26  C   UNL     1      27.794  58.980  43.899  1.00  0.00     0.010 C 
ATOM     27  C   UNL     1      25.599  58.772  45.127  1.00  0.00     0.031 C 
ATOM     28  C   UNL     1      27.082  59.589  42.618  1.00  0.00    -0.008 C 
ATOM     29  C   UNL     1      24.908  59.050  43.824  1.00  0.00    -0.027 C 
ATOM     30  C   UNL     1      27.552  58.781  41.368  1.00  0.00     0.014 C 
ATOM     31  C   UNL     1      25.549  59.448  42.705  1.00  0.00    -0.065 C 
ATOM     32  C   UNL     1      26.761  59.114  40.086  1.00  0.00     0.033 C 
ATOM     33  C   UNL     1      24.741  59.746  41.452  1.00  0.00     0.063 C 
ATOM     34  C   UNL     1      31.688  59.950  48.956  1.00  0.00     0.014 C 
ATOM     35  C   UNL     1      29.238  60.947  46.563  1.00  0.00     0.020 C 
ATOM     36  C   UNL     1      27.406  61.100  42.441  1.00  0.00     0.016 C 
BRANCH  25  37
ATOM     37  C   UNL     1      30.101  56.863  53.685  1.00  0.00     0.162 C 
BRANCH  37  38
ATOM     38  O   UNL     1      29.360  56.057  52.806  1.00  0.00    -0.396 OA
ATOM     39  H   UNL     1      28.401  56.180  53.028  1.00  0.00     0.210 HD
ENDBRANCH  37  38
ENDBRANCH  25  37
ENDBRANCH   7   8
ENDBRANCH   1   7
BRANCH   6  40
ATOM     40  O   UNL     1      25.499  62.492  38.312  1.00  0.00    -0.385 OA
ATOM     41  H   UNL     1      25.276  62.664  39.259  1.00  0.00     0.211 HD
ENDBRANCH   6  40
BRANCH   3  42
ATOM     42  C   UNL     1      20.833  62.127  39.045  1.00  0.00     0.191 C 
BRANCH  42  43
ATOM     43  O   UNL     1      20.357  63.354  38.559  1.00  0.00    -0.394 OA
ATOM     44  H   UNL     1      19.469  63.503  38.976  1.00  0.00     0.210 HD
ENDBRANCH  42  43
ENDBRANCH   3  42
BRANCH   5  45
ATOM     45  O   UNL     1      24.511  62.082  35.607  1.00  0.00    -0.387 OA
ATOM     46  H   UNL     1      24.711  63.028  35.828  1.00  0.00     0.211 HD
ENDBRANCH   5  45
BRANCH   4  47
ATOM     47  O   UNL     1      21.538  62.003  36.292  1.00  0.00    -0.341 OA
BRANCH  47  48
ATOM     48  C   UNL     1      21.359  63.002  35.285  1.00  0.00     0.282 C 
ATOM     49  O   UNL     1      20.113  63.687  35.454  1.00  0.00    -0.341 OA
ATOM     50  C   UNL     1      21.531  62.415  33.856  1.00  0.00     0.202 C 
ATOM     51  C   UNL     1      18.952  62.931  35.086  1.00  0.00     0.178 C 
ATOM     52  C   UNL     1      20.340  61.516  33.490  1.00  0.00     0.179 C 
ATOM     53  C   UNL     1      19.045  62.321  33.661  1.00  0.00     0.177 C 
BRANCH  50  54
ATOM     54  O   UNL     1      21.687  63.429  32.883  1.00  0.00    -0.385 OA
ATOM     55  H   UNL     1      20.802  63.804  32.642  1.00  0.00     0.211 HD
ENDBRANCH  50  54
BRANCH  51  56
ATOM     56  C   UNL     1      18.526  61.919  36.173  1.00  0.00     0.191 C 
BRANCH  56  57
ATOM     57  O   UNL     1      17.130  61.809  36.240  1.00  0.00    -0.394 OA
ATOM     58  H   UNL     1      16.874  61.890  37.192  1.00  0.00     0.210 HD
ENDBRANCH  56  57
ENDBRANCH  51  56
BRANCH  52  59
ATOM     59  O   UNL     1      20.311  60.377  34.311  1.00  0.00    -0.387 OA
ATOM     60  H   UNL     1      20.910  60.563  35.080  1.00  0.00     0.211 HD
ENDBRANCH  52  59
BRANCH  53  61
ATOM     61  O   UNL     1      19.015  63.355  32.708  1.00  0.00    -0.387 OA
ATOM     62  H   UNL     1      19.804  63.934  32.879  1.00  0.00     0.211 HD
ENDBRANCH  53  61
ENDBRANCH  47  48
ENDBRANCH   4  47
TORSDOF 15
ENDMDL
MODEL 2
REMARK VINA RESULT:   -11.448      3.303      4.723
REMARK INTER + INTRA:         -20.577
REMARK INTER:                 -18.901
REMARK INTRA:                  -1.676
REMARK UNBOUND:                -1.767
REMARK SMILES C[C@H]1[C@H]2[C@H](C[C@H]3[C@@H]4CC=C5C[C@@H](O[C@@H]6O[C@H](CO)[C@H](O[C@@H]7O[C@H](CO)[C@@H](O)[C@H](O)[C@H]7O)[C@@H](O)[C@H]6O)CC[C@]5(C)[C@H]4CC(=O)[C@]23C)O[C@]12CC[C@@H](CO)CO2
REMARK SMILES IDX 14 1 15 2 16 3 19 4 32 5 34 6 13 7 12 8 2 9 3 10 47 11 4 12
REMARK SMILES IDX 44 13 46 14 48 15 54 16 5 17 42 18 6 19 49 20 53 21 41 22
REMARK SMILES IDX 43 23 7 24 50 25 40 26 8 27 38 28 9 29 37 30 10 31 36 32
REMARK SMILES IDX 11 33 1 34 45 35 39 36 51 37 52 38 35 40 17 42 18 43 33 45
REMARK SMILES IDX 20 47 21 48 22 49 30 50 23 51 28 52 26 53 31 54 24 56 25 57
REMARK SMILES IDX 29 59 27 61
REMARK H PARENT 52 39 35 41 18 44 33 46 31 55 25 58 29 60 27 62
ROOT
ATOM      1  C   UNL     1      23.450  60.451  40.278  1.00  0.00     0.282 C 
ATOM      2  O   UNL     1      22.238  60.181  39.567  1.00  0.00    -0.341 OA
ATOM      3  C   UNL     1      21.419  61.337  39.565  1.00  0.00     0.178 C 
ATOM      4  C   UNL     1      21.968  62.390  38.551  1.00  0.00     0.184 C 
ATOM      5  C   UNL     1      23.516  62.220  38.452  1.00  0.00     0.180 C 
ATOM      6  C   UNL     1      24.144  61.773  39.793  1.00  0.00     0.202 C 
ENDROOT
BRANCH   1   7
ATOM      7  O   UNL     1      24.334  59.364  40.044  1.00  0.00    -0.346 OA
BRANCH   7   8
ATOM      8  C   UNL     1      25.410  59.322  40.977  1.00  0.00     0.125 C 
ATOM      9  C   UNL     1      33.905  56.595  45.648  1.00  0.00     0.052 C 
ATOM     10  C   UNL     1      32.700  57.529  45.613  1.00  0.00     0.040 C 
ATOM     11  C   UNL     1      35.053  57.592  45.870  1.00  0.00     0.171 C 
ATOM     12  C   UNL     1      33.340  58.768  44.967  1.00  0.00     0.126 C 
ATOM     13  C   UNL     1      31.457  57.180  44.700  1.00  0.00     0.035 C 
ATOM     14  O   UNL     1      34.752  58.680  45.011  1.00  0.00    -0.346 OA
ATOM     15  C   UNL     1      36.425  56.987  45.404  1.00  0.00     0.066 C 
ATOM     16  O   UNL     1      35.061  58.105  47.217  1.00  0.00    -0.349 OA
ATOM     17  C   UNL     1      32.750  58.844  43.554  1.00  0.00     0.037 C 
ATOM     18  C   UNL     1      30.117  57.010  45.386  1.00  0.00     0.139 C 
ATOM     19  C   UNL     1      31.303  58.479  43.884  1.00  0.00     0.009 C 
ATOM     20  C   UNL     1      37.516  57.938  45.880  1.00  0.00     0.014 C 
ATOM     21  C   UNL     1      36.121  57.578  47.993  1.00  0.00     0.169 C 
ATOM     22  C   UNL     1      28.898  56.892  44.488  1.00  0.00     0.081 C 
ATOM     23  O   UNL     1      30.005  57.039  46.602  1.00  0.00    -0.299 OA
ATOM     24  C   UNL     1      30.220  58.371  42.779  1.00  0.00     0.001 C 
ATOM     25  C   UNL     1      37.509  57.983  47.430  1.00  0.00     0.041 C 
ATOM     26  C   UNL     1      28.840  58.068  43.444  1.00  0.00     0.010 C 
ATOM     27  C   UNL     1      30.124  59.703  42.013  1.00  0.00     0.031 C 
ATOM     28  C   UNL     1      27.721  57.891  42.333  1.00  0.00    -0.008 C 
ATOM     29  C   UNL     1      28.924  59.771  41.113  1.00  0.00    -0.027 C 
ATOM     30  C   UNL     1      26.328  58.104  43.005  1.00  0.00     0.014 C 
ATOM     31  C   UNL     1      27.859  58.948  41.220  1.00  0.00    -0.065 C 
ATOM     32  C   UNL     1      25.164  58.192  41.996  1.00  0.00     0.033 C 
ATOM     33  C   UNL     1      26.719  59.075  40.222  1.00  0.00     0.063 C 
ATOM     34  C   UNL     1      33.785  55.461  46.673  1.00  0.00     0.014 C 
ATOM     35  C   UNL     1      31.726  55.924  43.798  1.00  0.00     0.020 C 
ATOM     36  C   UNL     1      27.790  56.489  41.663  1.00  0.00     0.016 C 
BRANCH  25  37
ATOM     37  C   UNL     1      37.987  59.351  47.946  1.00  0.00     0.162 C 
BRANCH  37  38
ATOM     38  O   UNL     1      37.190  60.389  47.436  1.00  0.00    -0.396 OA
ATOM     39  H   UNL     1      37.695  61.235  47.555  1.00  0.00     0.210 HD
ENDBRANCH  37  38
ENDBRANCH  25  37
ENDBRANCH   7   8
ENDBRANCH   1   7
BRANCH   6  40
ATOM     40  O   UNL     1      24.090  62.781  40.776  1.00  0.00    -0.385 OA
ATOM     41  H   UNL     1      24.474  62.439  41.620  1.00  0.00     0.211 HD
ENDBRANCH   6  40
BRANCH   3  42
ATOM     42  C   UNL     1      19.952  60.967  39.353  1.00  0.00     0.191 C 
BRANCH  42  43
ATOM     43  O   UNL     1      19.805  60.185  38.198  1.00  0.00    -0.394 OA
ATOM     44  H   UNL     1      19.462  60.785  37.486  1.00  0.00     0.210 HD
ENDBRANCH  42  43
ENDBRANCH   3  42
BRANCH   5  45
ATOM     45  O   UNL     1      24.147  63.360  37.926  1.00  0.00    -0.387 OA
ATOM     46  H   UNL     1      24.712  63.060  37.169  1.00  0.00     0.211 HD
ENDBRANCH   5  45
BRANCH   4  47
ATOM     47  O   UNL     1      21.388  62.241  37.253  1.00  0.00    -0.341 OA
BRANCH  47  48
ATOM     48  C   UNL     1      22.349  61.857  36.266  1.00  0.00     0.282 C 
ATOM     49  O   UNL     1      22.568  62.910  35.321  1.00  0.00    -0.341 OA
ATOM     50  C   UNL     1      21.968  60.511  35.586  1.00  0.00     0.202 C 
ATOM     51  C   UNL     1      21.501  63.114  34.384  1.00  0.00     0.178 C 
ATOM     52  C   UNL     1      20.757  60.696  34.657  1.00  0.00     0.179 C 
ATOM     53  C   UNL     1      21.072  61.813  33.654  1.00  0.00     0.177 C 
BRANCH  50  54
ATOM     54  O   UNL     1      23.050  59.959  34.864  1.00  0.00    -0.385 OA
ATOM     55  H   UNL     1      23.521  60.673  34.364  1.00  0.00     0.211 HD
ENDBRANCH  50  54
BRANCH  51  56
ATOM     56  C   UNL     1      20.322  63.914  34.982  1.00  0.00     0.191 C 
BRANCH  56  57
ATOM     57  O   UNL     1      20.276  65.213  34.454  1.00  0.00    -0.394 OA
ATOM     58  H   UNL     1      20.836  65.786  35.034  1.00  0.00     0.210 HD
ENDBRANCH  56  57
ENDBRANCH  51  56
BRANCH  52  59
ATOM     59  O   UNL     1      19.611  61.024  35.399  1.00  0.00    -0.387 OA
ATOM     60  H   UNL     1      18.900  61.249  34.744  1.00  0.00     0.211 HD
ENDBRANCH  52  59
BRANCH  53  61
ATOM     61  O   UNL     1      22.110  61.390  32.804  1.00  0.00    -0.387 OA
ATOM     62  H   UNL     1      21.686  60.952  32.019  1.00  0.00     0.211 HD
ENDBRANCH  53  61
ENDBRANCH  47  48
ENDBRANCH   4  47
TORSDOF 15
ENDMDL
MODEL 3
REMARK VINA RESULT:   -11.162      1.867      2.516
REMARK INTER + INTRA:         -20.106
REMARK INTER:                 -18.861
REMARK INTRA:                  -1.245
REMARK UNBOUND:                -1.767
REMARK SMILES C[C@H]1[C@H]2[C@H](C[C@H]3[C@@H]4CC=C5C[C@@H](O[C@@H]6O[C@H](CO)[C@H](O[C@@H]7O[C@H](CO)[C@@H](O)[C@H](O)[C@H]7O)[C@@H](O)[C@H]6O)CC[C@]5(C)[C@H]4CC(=O)[C@]23C)O[C@]12CC[C@@H](CO)CO2
REMARK SMILES IDX 14 1 15 2 16 3 19 4 32 5 34 6 13 7 12 8 2 9 3 10 47 11 4 12
REMARK SMILES IDX 44 13 46 14 48 15 54 16 5 17 42 18 6 19 49 20 53 21 41 22
REMARK SMILES IDX 43 23 7 24 50 25 40 26 8 27 38 28 9 29 37 30 10 31 36 32
REMARK SMILES IDX 11 33 1 34 45 35 39 36 51 37 52 38 35 40 17 42 18 43 33 45
REMARK SMILES IDX 20 47 21 48 22 49 30 50 23 51 28 52 26 53 31 54 24 56 25 57
REMARK SMILES IDX 29 59 27 61
REMARK H PARENT 52 39 35 41 18 44 33 46 31 55 25 58 29 60 27 62
ROOT
ATOM      1  C   UNL     1      24.519  60.159  40.275  1.00  0.00     0.282 C 
ATOM      2  O   UNL     1      23.253  59.810  39.706  1.00  0.00    -0.341 OA
ATOM      3  C   UNL     1      22.335  60.871  39.897  1.00  0.00     0.178 C 
ATOM      4  C   UNL     1      22.640  62.037  38.904  1.00  0.00     0.184 C 
ATOM      5  C   UNL     1      24.169  62.037  38.595  1.00  0.00     0.180 C 
ATOM      6  C   UNL     1      25.012  61.575  39.807  1.00  0.00     0.202 C 
ENDROOT
BRANCH   1   7
ATOM      7  O   UNL     1      25.464  59.187  39.848  1.00  0.00    -0.346 OA
BRANCH   7   8
ATOM      8  C   UNL     1      26.107  58.534  40.937  1.00  0.00     0.125 C 
ATOM      9  C   UNL     1      30.777  56.950  49.718  1.00  0.00     0.052 C 
ATOM     10  C   UNL     1      30.218  56.349  48.433  1.00  0.00     0.040 C 
ATOM     11  C   UNL     1      30.197  55.996  50.774  1.00  0.00     0.171 C 
ATOM     12  C   UNL     1      28.869  55.825  48.948  1.00  0.00     0.126 C 
ATOM     13  C   UNL     1      29.861  57.290  47.213  1.00  0.00     0.035 C 
ATOM     14  O   UNL     1      28.857  55.780  50.362  1.00  0.00    -0.346 OA
ATOM     15  C   UNL     1      30.153  56.677  52.188  1.00  0.00     0.066 C 
ATOM     16  O   UNL     1      30.858  54.716  50.757  1.00  0.00    -0.349 OA
ATOM     17  C   UNL     1      27.809  56.746  48.330  1.00  0.00     0.037 C 
ATOM     18  C   UNL     1      30.582  57.034  45.904  1.00  0.00     0.139 C 
ATOM     19  C   UNL     1      28.402  56.880  46.928  1.00  0.00     0.009 C 
ATOM     20  C   UNL     1      29.796  55.591  53.195  1.00  0.00     0.014 C 
ATOM     21  C   UNL     1      31.708  54.527  51.873  1.00  0.00     0.169 C 
ATOM     22  C   UNL     1      30.081  57.791  44.688  1.00  0.00     0.081 C 
ATOM     23  O   UNL     1      31.475  56.207  45.810  1.00  0.00    -0.299 OA
ATOM     24  C   UNL     1      27.731  57.760  45.842  1.00  0.00     0.001 C 
ATOM     25  C   UNL     1      30.919  54.523  53.209  1.00  0.00     0.041 C 
ATOM     26  C   UNL     1      28.527  57.620  44.506  1.00  0.00     0.010 C 
ATOM     27  C   UNL     1      26.283  57.289  45.613  1.00  0.00     0.031 C 
ATOM     28  C   UNL     1      27.899  58.557  43.390  1.00  0.00    -0.008 C 
ATOM     29  C   UNL     1      25.655  57.909  44.398  1.00  0.00    -0.027 C 
ATOM     30  C   UNL     1      28.359  58.030  41.995  1.00  0.00     0.014 C 
ATOM     31  C   UNL     1      26.359  58.509  43.414  1.00  0.00    -0.065 C 
ATOM     32  C   UNL     1      27.634  58.705  40.812  1.00  0.00     0.033 C 
ATOM     33  C   UNL     1      25.615  59.146  42.251  1.00  0.00     0.063 C 
ATOM     34  C   UNL     1      32.302  57.114  49.718  1.00  0.00     0.014 C 
ATOM     35  C   UNL     1      30.005  58.809  47.581  1.00  0.00     0.020 C 
ATOM     36  C   UNL     1      28.327  60.041  43.576  1.00  0.00     0.016 C 
BRANCH  25  37
ATOM     37  C   UNL     1      30.360  53.136  53.569  1.00  0.00     0.162 C 
BRANCH  37  38
ATOM     38  O   UNL     1      29.216  53.247  54.376  1.00  0.00    -0.396 OA
ATOM     39  H   UNL     1      29.494  53.680  55.225  1.00  0.00     0.210 HD
ENDBRANCH  37  38
ENDBRANCH  25  37
ENDBRANCH   7   8
ENDBRANCH   1   7
BRANCH   6  40
ATOM     40  O   UNL     1      24.995  62.508  40.862  1.00  0.00    -0.385 OA
ATOM     41  H   UNL     1      25.801  63.078  40.810  1.00  0.00     0.211 HD
ENDBRANCH   6  40
BRANCH   3  42
ATOM     42  C   UNL     1      20.895  60.364  39.847  1.00  0.00     0.191 C 
BRANCH  42  43
ATOM     43  O   UNL     1      20.005  61.433  39.663  1.00  0.00    -0.394 OA
ATOM     44  H   UNL     1      20.551  62.218  39.395  1.00  0.00     0.210 HD
ENDBRANCH  42  43
ENDBRANCH   3  42
BRANCH   5  45
ATOM     45  O   UNL     1      24.612  63.266  38.081  1.00  0.00    -0.387 OA
ATOM     46  H   UNL     1      24.830  63.848  38.854  1.00  0.00     0.211 HD
ENDBRANCH   5  45
BRANCH   4  47
ATOM     47  O   UNL     1      21.907  61.910  37.683  1.00  0.00    -0.341 OA
BRANCH  47  48
ATOM     48  C   UNL     1      22.741  61.544  36.581  1.00  0.00     0.282 C 
ATOM     49  O   UNL     1      22.938  62.649  35.692  1.00  0.00    -0.341 OA
ATOM     50  C   UNL     1      22.207  60.277  35.853  1.00  0.00     0.202 C 
ATOM     51  C   UNL     1      21.802  62.985  34.884  1.00  0.00     0.178 C 
ATOM     52  C   UNL     1      20.928  60.602  35.065  1.00  0.00     0.179 C 
ATOM     53  C   UNL     1      21.219  61.769  34.113  1.00  0.00     0.177 C 
BRANCH  50  54
ATOM     54  O   UNL     1      23.176  59.716  34.990  1.00  0.00    -0.385 OA
ATOM     55  H   UNL     1      23.104  58.728  34.999  1.00  0.00     0.211 HD
ENDBRANCH  50  54
BRANCH  51  56
ATOM     56  C   UNL     1      20.742  63.808  35.649  1.00  0.00     0.191 C 
BRANCH  56  57
ATOM     57  O   UNL     1      20.390  64.963  34.938  1.00  0.00    -0.394 OA
ATOM     58  H   UNL     1      20.088  64.676  34.041  1.00  0.00     0.210 HD
ENDBRANCH  56  57
ENDBRANCH  51  56
BRANCH  52  59
ATOM     59  O   UNL     1      19.883  60.942  35.939  1.00  0.00    -0.387 OA
ATOM     60  H   UNL     1      19.037  60.834  35.431  1.00  0.00     0.211 HD
ENDBRANCH  52  59
BRANCH  53  61
ATOM     61  O   UNL     1      22.140  61.350  33.136  1.00  0.00    -0.387 OA
ATOM     62  H   UNL     1      21.847  61.741  32.271  1.00  0.00     0.211 HD
ENDBRANCH  53  61
ENDBRANCH  47  48
ENDBRANCH   4  47
TORSDOF 15
ENDMDL
MODEL 4
REMARK VINA RESULT:   -11.100      6.171     18.700
REMARK INTER + INTRA:         -20.005
REMARK INTER:                 -18.719
REMARK INTRA:                  -1.286
REMARK UNBOUND:                -1.767
REMARK SMILES C[C@H]1[C@H]2[C@H](C[C@H]3[C@@H]4CC=C5C[C@@H](O[C@@H]6O[C@H](CO)[C@H](O[C@@H]7O[C@H](CO)[C@@H](O)[C@H](O)[C@H]7O)[C@@H](O)[C@H]6O)CC[C@]5(C)[C@H]4CC(=O)[C@]23C)O[C@]12CC[C@@H](CO)CO2
REMARK SMILES IDX 14 1 15 2 16 3 19 4 32 5 34 6 13 7 12 8 2 9 3 10 47 11 4 12
REMARK SMILES IDX 44 13 46 14 48 15 54 16 5 17 42 18 6 19 49 20 53 21 41 22
REMARK SMILES IDX 43 23 7 24 50 25 40 26 8 27 38 28 9 29 37 30 10 31 36 32
REMARK SMILES IDX 11 33 1 34 45 35 39 36 51 37 52 38 35 40 17 42 18 43 33 45
REMARK SMILES IDX 20 47 21 48 22 49 30 50 23 51 28 52 26 53 31 54 24 56 25 57
REMARK SMILES IDX 29 59 27 61
REMARK H PARENT 52 39 35 41 18 44 33 46 31 55 25 58 29 60 27 62
ROOT
ATOM      1  C   UNL     1      20.622  62.336  36.399  1.00  0.00     0.282 C 
ATOM      2  O   UNL     1      20.807  62.250  37.816  1.00  0.00    -0.341 OA
ATOM      3  C   UNL     1      20.607  60.915  38.243  1.00  0.00     0.178 C 
ATOM      4  C   UNL     1      21.841  60.035  37.866  1.00  0.00     0.184 C 
ATOM      5  C   UNL     1      22.490  60.620  36.575  1.00  0.00     0.180 C 
ATOM      6  C   UNL     1      21.443  61.246  35.624  1.00  0.00     0.202 C 
ENDROOT
BRANCH   1   7
ATOM      7  O   UNL     1      21.069  63.620  35.986  1.00  0.00    -0.346 OA
BRANCH   7   8
ATOM      8  C   UNL     1      20.343  64.119  34.868  1.00  0.00     0.125 C 
ATOM      9  C   UNL     1      14.044  64.642  27.027  1.00  0.00     0.052 C 
ATOM     10  C   UNL     1      15.069  65.355  27.903  1.00  0.00     0.040 C 
ATOM     11  C   UNL     1      12.916  65.683  26.974  1.00  0.00     0.171 C 
ATOM     12  C   UNL     1      14.128  66.137  28.832  1.00  0.00     0.126 C 
ATOM     13  C   UNL     1      16.003  64.518  28.866  1.00  0.00     0.035 C 
ATOM     14  O   UNL     1      12.816  66.170  28.301  1.00  0.00    -0.346 OA
ATOM     15  C   UNL     1      11.544  65.012  26.612  1.00  0.00     0.066 C 
ATOM     16  O   UNL     1      13.263  66.804  26.136  1.00  0.00    -0.349 OA
ATOM     17  C   UNL     1      14.245  65.455  30.201  1.00  0.00     0.037 C 
ATOM     18  C   UNL     1      17.500  64.634  28.655  1.00  0.00     0.139 C 
ATOM     19  C   UNL     1      15.755  65.217  30.217  1.00  0.00     0.009 C 
ATOM     20  C   UNL     1      10.552  66.139  26.348  1.00  0.00     0.014 C 
ATOM     21  C   UNL     1      12.557  66.805  24.909  1.00  0.00     0.169 C 
ATOM     22  C   UNL     1      18.390  64.006  29.712  1.00  0.00     0.081 C 
ATOM     23  O   UNL     1      17.974  65.265  27.723  1.00  0.00    -0.299 OA
ATOM     24  C   UNL     1      16.453  64.502  31.402  1.00  0.00     0.001 C 
ATOM     25  C   UNL     1      11.027  66.957  25.121  1.00  0.00     0.041 C 
ATOM     26  C   UNL     1      17.995  64.491  31.156  1.00  0.00     0.010 C 
ATOM     27  C   UNL     1      16.160  65.259  32.711  1.00  0.00     0.031 C 
ATOM     28  C   UNL     1      18.732  63.710  32.324  1.00  0.00    -0.008 C 
ATOM     29  C   UNL     1      17.012  64.790  33.856  1.00  0.00    -0.027 C 
ATOM     30  C   UNL     1      20.231  64.147  32.332  1.00  0.00     0.014 C 
ATOM     31  C   UNL     1      18.143  64.069  33.703  1.00  0.00    -0.065 C 
ATOM     32  C   UNL     1      21.013  63.643  33.563  1.00  0.00     0.033 C 
ATOM     33  C   UNL     1      18.902  63.607  34.937  1.00  0.00     0.063 C 
ATOM     34  C   UNL     1      14.598  64.172  25.676  1.00  0.00     0.014 C 
ATOM     35  C   UNL     1      15.613  62.998  28.887  1.00  0.00     0.020 C 
ATOM     36  C   UNL     1      18.618  62.169  32.151  1.00  0.00     0.016 C 
BRANCH  25  37
ATOM     37  C   UNL     1      10.581  68.424  25.227  1.00  0.00     0.162 C 
BRANCH  37  38
ATOM     38  O   UNL     1      11.299  69.098  26.229  1.00  0.00    -0.396 OA
ATOM     39  H   UNL     1      11.253  68.543  27.051  1.00  0.00     0.210 HD
ENDBRANCH  37  38
ENDBRANCH  25  37
ENDBRANCH   7   8
ENDBRANCH   1   7
BRANCH   6  40
ATOM     40  O   UNL     1      20.603  60.280  35.036  1.00  0.00    -0.385 OA
ATOM     41  H   UNL     1      19.711  60.319  35.459  1.00  0.00     0.211 HD
ENDBRANCH   6  40
BRANCH   3  42
ATOM     42  C   UNL     1      20.227  60.864  39.722  1.00  0.00     0.191 C 
BRANCH  42  43
ATOM     43  O   UNL     1      20.593  59.630  40.280  1.00  0.00    -0.394 OA
ATOM     44  H   UNL     1      21.585  59.607  40.301  1.00  0.00     0.210 HD
ENDBRANCH  42  43
ENDBRANCH   3  42
BRANCH   5  45
ATOM     45  O   UNL     1      23.311  59.688  35.919  1.00  0.00    -0.387 OA
ATOM     46  H   UNL     1      23.013  58.784  36.199  1.00  0.00     0.211 HD
ENDBRANCH   5  45
BRANCH   4  47
ATOM     47  O   UNL     1      22.813  59.995  38.914  1.00  0.00    -0.341 OA
BRANCH  47  48
ATOM     48  C   UNL     1      24.073  60.538  38.510  1.00  0.00     0.282 C 
ATOM     49  O   UNL     1      25.106  59.549  38.574  1.00  0.00    -0.341 OA
ATOM     50  C   UNL     1      24.425  61.826  39.308  1.00  0.00     0.202 C 
ATOM     51  C   UNL     1      25.536  59.208  39.899  1.00  0.00     0.178 C 
ATOM     52  C   UNL     1      24.787  61.482  40.762  1.00  0.00     0.179 C 
ATOM     53  C   UNL     1      25.919  60.445  40.755  1.00  0.00     0.177 C 
BRANCH  50  54
ATOM     54  O   UNL     1      25.480  62.548  38.706  1.00  0.00    -0.385 OA
ATOM     55  H   UNL     1      25.124  63.363  38.268  1.00  0.00     0.211 HD
ENDBRANCH  50  54
BRANCH  51  56
ATOM     56  C   UNL     1      24.574  58.228  40.608  1.00  0.00     0.191 C 
BRANCH  56  57
ATOM     57  O   UNL     1      24.783  58.233  41.995  1.00  0.00    -0.394 OA
ATOM     58  H   UNL     1      24.062  58.777  42.399  1.00  0.00     0.210 HD
ENDBRANCH  56  57
ENDBRANCH  51  56
BRANCH  52  59
ATOM     59  O   UNL     1      23.670  60.971  41.441  1.00  0.00    -0.387 OA
ATOM     60  H   UNL     1      23.390  61.664  42.094  1.00  0.00     0.211 HD
ENDBRANCH  52  59
BRANCH  53  61
ATOM     61  O   UNL     1      27.083  61.035  40.230  1.00  0.00    -0.387 OA
ATOM     62  H   UNL     1      27.200  60.682  39.308  1.00  0.00     0.211 HD
ENDBRANCH  53  61
ENDBRANCH  47  48
ENDBRANCH   4  47
TORSDOF 15
ENDMDL
MODEL 5
REMARK VINA RESULT:   -10.876      4.738      5.443
REMARK INTER + INTRA:         -19.638
REMARK INTER:                 -17.963
REMARK INTRA:                  -1.675
REMARK UNBOUND:                -1.767
REMARK SMILES C[C@H]1[C@H]2[C@H](C[C@H]3[C@@H]4CC=C5C[C@@H](O[C@@H]6O[C@H](CO)[C@H](O[C@@H]7O[C@H](CO)[C@@H](O)[C@H](O)[C@H]7O)[C@@H](O)[C@H]6O)CC[C@]5(C)[C@H]4CC(=O)[C@]23C)O[C@]12CC[C@@H](CO)CO2
REMARK SMILES IDX 14 1 15 2 16 3 19 4 32 5 34 6 13 7 12 8 2 9 3 10 47 11 4 12
REMARK SMILES IDX 44 13 46 14 48 15 54 16 5 17 42 18 6 19 49 20 53 21 41 22
REMARK SMILES IDX 43 23 7 24 50 25 40 26 8 27 38 28 9 29 37 30 10 31 36 32
REMARK SMILES IDX 11 33 1 34 45 35 39 36 51 37 52 38 35 40 17 42 18 43 33 45
REMARK SMILES IDX 20 47 21 48 22 49 30 50 23 51 28 52 26 53 31 54 24 56 25 57
REMARK SMILES IDX 29 59 27 61
REMARK H PARENT 52 39 35 41 18 44 33 46 31 55 25 58 29 60 27 62
ROOT
ATOM      1  C   UNL     1      25.764  59.913  40.593  1.00  0.00     0.282 C 
ATOM      2  O   UNL     1      24.517  59.460  40.056  1.00  0.00    -0.341 OA
ATOM      3  C   UNL     1      23.472  60.307  40.497  1.00  0.00     0.178 C 
ATOM      4  C   UNL     1      23.501  61.658  39.715  1.00  0.00     0.184 C 
ATOM      5  C   UNL     1      24.977  61.963  39.311  1.00  0.00     0.180 C 
ATOM      6  C   UNL     1      25.991  61.449  40.360  1.00  0.00     0.202 C 
ENDROOT
BRANCH   1   7
ATOM      7  O   UNL     1      26.800  59.197  39.935  1.00  0.00    -0.346 OA
BRANCH   7   8
ATOM      8  C   UNL     1      27.184  58.020  40.638  1.00  0.00     0.125 C 
ATOM      9  C   UNL     1      31.014  51.915  47.672  1.00  0.00     0.052 C 
ATOM     10  C   UNL     1      30.297  52.041  46.332  1.00  0.00     0.040 C 
ATOM     11  C   UNL     1      30.145  50.865  48.381  1.00  0.00     0.171 C 
ATOM     12  C   UNL     1      28.847  51.807  46.783  1.00  0.00     0.126 C 
ATOM     13  C   UNL     1      30.278  53.430  45.576  1.00  0.00     0.035 C 
ATOM     14  O   UNL     1      28.812  51.242  48.080  1.00  0.00    -0.346 OA
ATOM     15  C   UNL     1      30.319  50.946  49.940  1.00  0.00     0.066 C 
ATOM     16  O   UNL     1      30.347  49.547  47.834  1.00  0.00    -0.349 OA
ATOM     17  C   UNL     1      28.154  53.170  46.662  1.00  0.00     0.037 C 
ATOM     18  C   UNL     1      30.883  53.473  44.187  1.00  0.00     0.139 C 
ATOM     19  C   UNL     1      28.767  53.628  45.338  1.00  0.00     0.009 C 
ATOM     20  C   UNL     1      29.618  49.730  50.531  1.00  0.00     0.014 C 
ATOM     21  C   UNL     1      31.081  48.703  48.702  1.00  0.00     0.169 C 
ATOM     22  C   UNL     1      30.667  54.744  43.386  1.00  0.00     0.081 C 
ATOM     23  O   UNL     1      31.453  52.509  43.701  1.00  0.00    -0.299 OA
ATOM     24  C   UNL     1      28.431  55.010  44.722  1.00  0.00     0.001 C 
ATOM     25  C   UNL     1      30.326  48.444  50.033  1.00  0.00     0.041 C 
ATOM     26  C   UNL     1      29.145  55.141  43.339  1.00  0.00     0.010 C 
ATOM     27  C   UNL     1      26.910  55.130  44.513  1.00  0.00     0.031 C 
ATOM     28  C   UNL     1      28.868  56.572  42.711  1.00  0.00    -0.008 C 
ATOM     29  C   UNL     1      26.530  56.320  43.680  1.00  0.00    -0.027 C 
ATOM     30  C   UNL     1      29.137  56.490  41.175  1.00  0.00     0.014 C 
ATOM     31  C   UNL     1      27.398  56.995  42.897  1.00  0.00    -0.065 C 
ATOM     32  C   UNL     1      28.683  57.746  40.403  1.00  0.00     0.033 C 
ATOM     33  C   UNL     1      26.913  58.216  42.132  1.00  0.00     0.063 C 
ATOM     34  C   UNL     1      32.508  51.588  47.551  1.00  0.00     0.014 C 
ATOM     35  C   UNL     1      30.912  54.578  46.439  1.00  0.00     0.020 C 
ATOM     36  C   UNL     1      29.760  57.669  43.359  1.00  0.00     0.016 C 
BRANCH  25  37
ATOM     37  C   UNL     1      29.338  47.269  49.940  1.00  0.00     0.162 C 
BRANCH  37  38
ATOM     38  O   UNL     1      28.335  47.374  50.919  1.00  0.00    -0.396 OA
ATOM     39  H   UNL     1      28.784  47.561  51.784  1.00  0.00     0.210 HD
ENDBRANCH  37  38
ENDBRANCH  25  37
ENDBRANCH   7   8
ENDBRANCH   1   7
BRANCH   6  40
ATOM     40  O   UNL     1      25.933  62.174  41.566  1.00  0.00    -0.385 OA
ATOM     41  H   UNL     1      26.662  62.841  41.584  1.00  0.00     0.211 HD
ENDBRANCH   6  40
BRANCH   3  42
ATOM     42  C   UNL     1      22.126  59.584  40.451  1.00  0.00     0.191 C 
BRANCH  42  43
ATOM     43  O   UNL     1      21.072  60.508  40.507  1.00  0.00    -0.394 OA
ATOM     44  H   UNL     1      21.466  61.404  40.344  1.00  0.00     0.210 HD
ENDBRANCH  42  43
ENDBRANCH   3  42
BRANCH   5  45
ATOM     45  O   UNL     1      25.177  63.318  39.001  1.00  0.00    -0.387 OA
ATOM     46  H   UNL     1      25.053  63.418  38.022  1.00  0.00     0.211 HD
ENDBRANCH   5  45
BRANCH   4  47
ATOM     47  O   UNL     1      22.684  61.620  38.543  1.00  0.00    -0.341 OA
BRANCH  47  48
ATOM     48  C   UNL     1      23.441  61.371  37.356  1.00  0.00     0.282 C 
ATOM     49  O   UNL     1      23.398  62.495  36.470  1.00  0.00    -0.341 OA
ATOM     50  C   UNL     1      23.009  60.046  36.666  1.00  0.00     0.202 C 
ATOM     51  C   UNL     1      22.151  62.677  35.785  1.00  0.00     0.178 C 
ATOM     52  C   UNL     1      21.624  60.198  36.017  1.00  0.00     0.179 C 
ATOM     53  C   UNL     1      21.659  61.396  35.059  1.00  0.00     0.177 C 
BRANCH  50  54
ATOM     54  O   UNL     1      23.951  59.621  35.701  1.00  0.00    -0.385 OA
ATOM     55  H   UNL     1      23.563  58.897  35.147  1.00  0.00     0.211 HD
ENDBRANCH  50  54
BRANCH  51  56
ATOM     56  C   UNL     1      21.075  63.349  36.668  1.00  0.00     0.191 C 
BRANCH  56  57
ATOM     57  O   UNL     1      19.789  63.120  36.157  1.00  0.00    -0.394 OA
ATOM     58  H   UNL     1      19.782  62.206  35.779  1.00  0.00     0.210 HD
ENDBRANCH  56  57
ENDBRANCH  51  56
BRANCH  52  59
ATOM     59  O   UNL     1      20.639  60.394  36.997  1.00  0.00    -0.387 OA
ATOM     60  H   UNL     1      20.250  59.502  37.195  1.00  0.00     0.211 HD
ENDBRANCH  52  59
BRANCH  53  61
ATOM     61  O   UNL     1      22.523  61.106  33.987  1.00  0.00    -0.387 OA
ATOM     62  H   UNL     1      21.962  60.747  33.249  1.00  0.00     0.211 HD
ENDBRANCH  53  61
ENDBRANCH  47  48
ENDBRANCH   4  47
TORSDOF 15
ENDMDL
MODEL 6
REMARK VINA RESULT:   -10.746      3.776      5.677
REMARK INTER + INTRA:         -19.423
REMARK INTER:                 -17.993
REMARK INTRA:                  -1.430
REMARK UNBOUND:                -1.767
REMARK SMILES C[C@H]1[C@H]2[C@H](C[C@H]3[C@@H]4CC=C5C[C@@H](O[C@@H]6O[C@H](CO)[C@H](O[C@@H]7O[C@H](CO)[C@@H](O)[C@H](O)[C@H]7O)[C@@H](O)[C@H]6O)CC[C@]5(C)[C@H]4CC(=O)[C@]23C)O[C@]12CC[C@@H](CO)CO2
REMARK SMILES IDX 14 1 15 2 16 3 19 4 32 5 34 6 13 7 12 8 2 9 3 10 47 11 4 12
REMARK SMILES IDX 44 13 46 14 48 15 54 16 5 17 42 18 6 19 49 20 53 21 41 22
REMARK SMILES IDX 43 23 7 24 50 25 40 26 8 27 38 28 9 29 37 30 10 31 36 32
REMARK SMILES IDX 11 33 1 34 45 35 39 36 51 37 52 38 35 40 17 42 18 43 33 45
REMARK SMILES IDX 20 47 21 48 22 49 30 50 23 51 28 52 26 53 31 54 24 56 25 57
REMARK SMILES IDX 29 59 27 61
REMARK H PARENT 52 39 35 41 18 44 33 46 31 55 25 58 29 60 27 62
ROOT
ATOM      1  C   UNL     1      25.401  60.479  40.329  1.00  0.00     0.282 C 
ATOM      2  O   UNL     1      25.251  61.080  39.038  1.00  0.00    -0.341 OA
ATOM      3  C   UNL     1      24.564  60.192  38.176  1.00  0.00     0.178 C 
ATOM      4  C   UNL     1      23.041  60.171  38.520  1.00  0.00     0.184 C 
ATOM      5  C   UNL     1      22.874  60.469  40.042  1.00  0.00     0.180 C 
ATOM      6  C   UNL     1      24.047  59.909  40.881  1.00  0.00     0.202 C 
ENDROOT
BRANCH   1   7
ATOM      7  O   UNL     1      25.866  61.484  41.218  1.00  0.00    -0.346 OA
BRANCH   7   8
ATOM      8  C   UNL     1      27.164  61.204  41.732  1.00  0.00     0.125 C 
ATOM      9  C   UNL     1      34.673  56.932  46.908  1.00  0.00     0.052 C 
ATOM     10  C   UNL     1      34.243  58.015  45.924  1.00  0.00     0.040 C 
ATOM     11  C   UNL     1      35.907  56.353  46.199  1.00  0.00     0.171 C 
ATOM     12  C   UNL     1      34.650  57.350  44.600  1.00  0.00     0.126 C 
ATOM     13  C   UNL     1      32.710  58.367  45.758  1.00  0.00     0.035 C 
ATOM     14  O   UNL     1      35.526  56.264  44.836  1.00  0.00    -0.346 OA
ATOM     15  C   UNL     1      36.215  54.898  46.701  1.00  0.00     0.066 C 
ATOM     16  O   UNL     1      37.032  57.251  46.268  1.00  0.00    -0.349 OA
ATOM     17  C   UNL     1      33.334  56.969  43.911  1.00  0.00     0.037 C 
ATOM     18  C   UNL     1      32.289  59.792  46.055  1.00  0.00     0.139 C 
ATOM     19  C   UNL     1      32.528  58.228  44.234  1.00  0.00     0.009 C 
ATOM     20  C   UNL     1      37.573  54.508  46.129  1.00  0.00     0.014 C 
ATOM     21  C   UNL     1      38.034  56.801  47.161  1.00  0.00     0.169 C 
ATOM     22  C   UNL     1      30.867  60.176  45.687  1.00  0.00     0.081 C 
ATOM     23  O   UNL     1      33.070  60.618  46.501  1.00  0.00    -0.299 OA
ATOM     24  C   UNL     1      31.051  58.383  43.787  1.00  0.00     0.001 C 
ATOM     25  C   UNL     1      38.657  55.456  46.703  1.00  0.00     0.041 C 
ATOM     26  C   UNL     1      30.541  59.802  44.193  1.00  0.00     0.010 C 
ATOM     27  C   UNL     1      30.952  58.234  42.258  1.00  0.00     0.031 C 
ATOM     28  C   UNL     1      29.012  59.970  43.803  1.00  0.00    -0.008 C 
ATOM     29  C   UNL     1      29.608  58.636  41.721  1.00  0.00    -0.027 C 
ATOM     30  C   UNL     1      28.689  61.496  43.739  1.00  0.00     0.014 C 
ATOM     31  C   UNL     1      28.717  59.380  42.410  1.00  0.00    -0.065 C 
ATOM     32  C   UNL     1      27.300  61.807  43.144  1.00  0.00     0.033 C 
ATOM     33  C   UNL     1      27.365  59.687  41.786  1.00  0.00     0.063 C 
ATOM     34  C   UNL     1      34.889  57.440  48.339  1.00  0.00     0.014 C 
ATOM     35  C   UNL     1      31.792  57.388  46.572  1.00  0.00     0.020 C 
ATOM     36  C   UNL     1      28.076  59.260  44.823  1.00  0.00     0.016 C 
BRANCH  25  37
ATOM     37  C   UNL     1      39.814  55.641  45.707  1.00  0.00     0.162 C 
BRANCH  37  38
ATOM     38  O   UNL     1      39.380  56.304  44.547  1.00  0.00    -0.396 OA
ATOM     39  H   UNL     1      40.185  56.512  44.005  1.00  0.00     0.210 HD
ENDBRANCH  37  38
ENDBRANCH  25  37
ENDBRANCH   7   8
ENDBRANCH   1   7
BRANCH   6  40
ATOM     40  O   UNL     1      24.053  58.500  40.926  1.00  0.00    -0.385 OA
ATOM     41  H   UNL     1      23.206  58.181  41.324  1.00  0.00     0.211 HD
ENDBRANCH   6  40
BRANCH   3  42
ATOM     42  C   UNL     1      24.872  60.503  36.712  1.00  0.00     0.191 C 
BRANCH  42  43
ATOM     43  O   UNL     1      25.299  61.831  36.572  1.00  0.00    -0.394 OA
ATOM     44  H   UNL     1      24.625  62.292  36.008  1.00  0.00     0.210 HD
ENDBRANCH  42  43
ENDBRANCH   3  42
BRANCH   5  45
ATOM     45  O   UNL     1      21.626  60.055  40.535  1.00  0.00    -0.387 OA
ATOM     46  H   UNL     1      21.481  60.519  41.399  1.00  0.00     0.211 HD
ENDBRANCH   5  45
BRANCH   4  47
ATOM     47  O   UNL     1      22.304  61.134  37.762  1.00  0.00    -0.341 OA
BRANCH  47  48
ATOM     48  C   UNL     1      21.026  60.644  37.350  1.00  0.00     0.282 C 
ATOM     49  O   UNL     1      21.046  60.241  35.976  1.00  0.00    -0.341 OA
ATOM     50  C   UNL     1      19.893  61.662  37.660  1.00  0.00     0.202 C 
ATOM     51  C   UNL     1      21.077  61.318  35.030  1.00  0.00     0.178 C 
ATOM     52  C   UNL     1      19.980  62.874  36.718  1.00  0.00     0.179 C 
ATOM     53  C   UNL     1      19.963  62.373  35.268  1.00  0.00     0.177 C 
BRANCH  50  54
ATOM     54  O   UNL     1      18.612  61.071  37.569  1.00  0.00    -0.385 OA
ATOM     55  H   UNL     1      17.918  61.777  37.520  1.00  0.00     0.211 HD
ENDBRANCH  50  54
BRANCH  51  56
ATOM     56  C   UNL     1      22.487  61.925  34.858  1.00  0.00     0.191 C 
BRANCH  56  57
ATOM     57  O   UNL     1      22.414  63.255  34.421  1.00  0.00    -0.394 OA
ATOM     58  H   UNL     1      21.590  63.342  33.880  1.00  0.00     0.210 HD
ENDBRANCH  56  57
ENDBRANCH  51  56
BRANCH  52  59
ATOM     59  O   UNL     1      21.153  63.605  36.962  1.00  0.00    -0.387 OA
ATOM     60  H   UNL     1      21.907  62.961  36.918  1.00  0.00     0.211 HD
ENDBRANCH  52  59
BRANCH  53  61
ATOM     61  O   UNL     1      18.709  61.799  34.992  1.00  0.00    -0.387 OA
ATOM     62  H   UNL     1      18.160  62.495  34.543  1.00  0.00     0.211 HD
ENDBRANCH  53  61
ENDBRANCH  47  48
ENDBRANCH   4  47
TORSDOF 15
ENDMDL
MODEL 7
REMARK VINA RESULT:   -10.737      7.008      8.643
REMARK INTER + INTRA:         -19.409
REMARK INTER:                 -17.467
REMARK INTRA:                  -1.942
REMARK UNBOUND:                -1.767
REMARK SMILES C[C@H]1[C@H]2[C@H](C[C@H]3[C@@H]4CC=C5C[C@@H](O[C@@H]6O[C@H](CO)[C@H](O[C@@H]7O[C@H](CO)[C@@H](O)[C@H](O)[C@H]7O)[C@@H](O)[C@H]6O)CC[C@]5(C)[C@H]4CC(=O)[C@]23C)O[C@]12CC[C@@H](CO)CO2
REMARK SMILES IDX 14 1 15 2 16 3 19 4 32 5 34 6 13 7 12 8 2 9 3 10 47 11 4 12
REMARK SMILES IDX 44 13 46 14 48 15 54 16 5 17 42 18 6 19 49 20 53 21 41 22
REMARK SMILES IDX 43 23 7 24 50 25 40 26 8 27 38 28 9 29 37 30 10 31 36 32
REMARK SMILES IDX 11 33 1 34 45 35 39 36 51 37 52 38 35 40 17 42 18 43 33 45
REMARK SMILES IDX 20 47 21 48 22 49 30 50 23 51 28 52 26 53 31 54 24 56 25 57
REMARK SMILES IDX 29 59 27 61
REMARK H PARENT 52 39 35 41 18 44 33 46 31 55 25 58 29 60 27 62
ROOT
ATOM      1  C   UNL     1      27.764  59.124  43.378  1.00  0.00     0.282 C 
ATOM      2  O   UNL     1      26.796  58.447  42.570  1.00  0.00    -0.341 OA
ATOM      3  C   UNL     1      25.521  59.034  42.761  1.00  0.00     0.178 C 
ATOM      4  C   UNL     1      25.434  60.398  42.005  1.00  0.00     0.184 C 
ATOM      5  C   UNL     1      26.862  61.024  41.948  1.00  0.00     0.180 C 
ATOM      6  C   UNL     1      27.702  60.683  43.201  1.00  0.00     0.202 C 
ENDROOT
BRANCH   1   7
ATOM      7  O   UNL     1      29.050  58.673  42.974  1.00  0.00    -0.346 OA
BRANCH   7   8
ATOM      8  C   UNL     1      29.212  57.268  43.134  1.00  0.00     0.125 C 
ATOM      9  C   UNL     1      31.977  48.334  46.873  1.00  0.00     0.052 C 
ATOM     10  C   UNL     1      31.252  49.097  45.769  1.00  0.00     0.040 C 
ATOM     11  C   UNL     1      30.939  47.258  47.227  1.00  0.00     0.171 C 
ATOM     12  C   UNL     1      29.802  48.960  46.258  1.00  0.00     0.126 C 
ATOM     13  C   UNL     1      31.487  50.652  45.599  1.00  0.00     0.035 C 
ATOM     14  O   UNL     1      29.700  47.948  47.242  1.00  0.00    -0.346 OA
ATOM     15  C   UNL     1      31.182  46.692  48.671  1.00  0.00     0.066 C 
ATOM     16  O   UNL     1      30.849  46.247  46.205  1.00  0.00    -0.349 OA
ATOM     17  C   UNL     1      29.396  50.359  46.737  1.00  0.00     0.037 C 
ATOM     18  C   UNL     1      32.038  51.130  44.270  1.00  0.00     0.139 C 
ATOM     19  C   UNL     1      30.041  51.185  45.624  1.00  0.00     0.009 C 
ATOM     20  C   UNL     1      30.270  45.482  48.835  1.00  0.00     0.014 C 
ATOM     21  C   UNL     1      31.428  45.018  46.603  1.00  0.00     0.169 C 
ATOM     22  C   UNL     1      32.055  52.630  44.037  1.00  0.00     0.081 C 
ATOM     23  O   UNL     1      32.383  50.350  43.396  1.00  0.00    -0.299 OA
ATOM     24  C   UNL     1      29.970  52.734  45.616  1.00  0.00     0.001 C 
ATOM     25  C   UNL     1      30.684  44.393  47.814  1.00  0.00     0.041 C 
ATOM     26  C   UNL     1      30.645  53.269  44.314  1.00  0.00     0.010 C 
ATOM     27  C   UNL     1      28.498  53.186  45.639  1.00  0.00     0.031 C 
ATOM     28  C   UNL     1      30.642  54.856  44.306  1.00  0.00    -0.008 C 
ATOM     29  C   UNL     1      28.337  54.654  45.364  1.00  0.00    -0.027 C 
ATOM     30  C   UNL     1      30.833  55.337  42.833  1.00  0.00     0.014 C 
ATOM     31  C   UNL     1      29.296  55.420  44.801  1.00  0.00    -0.065 C 
ATOM     32  C   UNL     1      30.616  56.853  42.646  1.00  0.00     0.033 C 
ATOM     33  C   UNL     1      29.041  56.908  44.612  1.00  0.00     0.063 C 
ATOM     34  C   UNL     1      33.368  47.829  46.471  1.00  0.00     0.014 C 
ATOM     35  C   UNL     1      32.372  51.242  46.754  1.00  0.00     0.020 C 
ATOM     36  C   UNL     1      31.760  55.440  45.215  1.00  0.00     0.016 C 
BRANCH  25  37
ATOM     37  C   UNL     1      29.476  43.537  47.397  1.00  0.00     0.162 C 
BRANCH  37  38
ATOM     38  O   UNL     1      29.298  43.562  46.004  1.00  0.00    -0.396 OA
ATOM     39  H   UNL     1      29.616  44.444  45.680  1.00  0.00     0.210 HD
ENDBRANCH  37  38
ENDBRANCH  25  37
ENDBRANCH   7   8
ENDBRANCH   1   7
BRANCH   6  40
ATOM     40  O   UNL     1      27.223  61.321  44.362  1.00  0.00    -0.385 OA
ATOM     41  H   UNL     1      27.896  61.245  45.081  1.00  0.00     0.211 HD
ENDBRANCH   6  40
BRANCH   3  42
ATOM     42  C   UNL     1      24.407  58.049  42.409  1.00  0.00     0.191 C 
BRANCH  42  43
ATOM     43  O   UNL     1      24.745  57.316  41.263  1.00  0.00    -0.394 OA
ATOM     44  H   UNL     1      23.944  57.314  40.676  1.00  0.00     0.210 HD
ENDBRANCH  42  43
ENDBRANCH   3  42
BRANCH   5  45
ATOM     45  O   UNL     1      26.831  62.404  41.691  1.00  0.00    -0.387 OA
ATOM     46  H   UNL     1      25.898  62.710  41.834  1.00  0.00     0.211 HD
ENDBRANCH   5  45
BRANCH   4  47
ATOM     47  O   UNL     1      24.926  60.246  40.677  1.00  0.00    -0.341 OA
BRANCH  47  48
ATOM     48  C   UNL     1      23.547  60.609  40.575  1.00  0.00     0.282 C 
ATOM     49  O   UNL     1      22.939  60.011  39.425  1.00  0.00    -0.341 OA
ATOM     50  C   UNL     1      23.354  62.151  40.621  1.00  0.00     0.202 C 
ATOM     51  C   UNL     1      23.315  60.594  38.170  1.00  0.00     0.178 C 
ATOM     52  C   UNL     1      23.852  62.800  39.319  1.00  0.00     0.179 C 
ATOM     53  C   UNL     1      23.137  62.136  38.135  1.00  0.00     0.177 C 
BRANCH  50  54
ATOM     54  O   UNL     1      22.007  62.509  40.854  1.00  0.00    -0.385 OA
ATOM     55  H   UNL     1      21.942  63.480  41.038  1.00  0.00     0.211 HD
ENDBRANCH  50  54
BRANCH  51  56
ATOM     56  C   UNL     1      24.696  60.111  37.673  1.00  0.00     0.191 C 
BRANCH  56  57
ATOM     57  O   UNL     1      25.239  61.008  36.743  1.00  0.00    -0.394 OA
ATOM     58  H   UNL     1      25.438  61.848  37.225  1.00  0.00     0.210 HD
ENDBRANCH  56  57
ENDBRANCH  51  56
BRANCH  52  59
ATOM     59  O   UNL     1      25.241  62.647  39.191  1.00  0.00    -0.387 OA
ATOM     60  H   UNL     1      25.396  61.748  38.799  1.00  0.00     0.211 HD
ENDBRANCH  52  59
BRANCH  53  61
ATOM     61  O   UNL     1      21.767  62.450  38.186  1.00  0.00    -0.387 OA
ATOM     62  H   UNL     1      21.534  62.585  39.143  1.00  0.00     0.211 HD
ENDBRANCH  53  61
ENDBRANCH  47  48
ENDBRANCH   4  47
TORSDOF 15
ENDMDL
MODEL 8
REMARK VINA RESULT:   -10.686      6.857      8.866
REMARK INTER + INTRA:         -19.325
REMARK INTER:                 -17.437
REMARK INTRA:                  -1.887
REMARK UNBOUND:                -1.767
REMARK SMILES C[C@H]1[C@H]2[C@H](C[C@H]3[C@@H]4CC=C5C[C@@H](O[C@@H]6O[C@H](CO)[C@H](O[C@@H]7O[C@H](CO)[C@@H](O)[C@H](O)[C@H]7O)[C@@H](O)[C@H]6O)CC[C@]5(C)[C@H]4CC(=O)[C@]23C)O[C@]12CC[C@@H](CO)CO2
REMARK SMILES IDX 14 1 15 2 16 3 19 4 32 5 34 6 13 7 12 8 2 9 3 10 47 11 4 12
REMARK SMILES IDX 44 13 46 14 48 15 54 16 5 17 42 18 6 19 49 20 53 21 41 22
REMARK SMILES IDX 43 23 7 24 50 25 40 26 8 27 38 28 9 29 37 30 10 31 36 32
REMARK SMILES IDX 11 33 1 34 45 35 39 36 51 37 52 38 35 40 17 42 18 43 33 45
REMARK SMILES IDX 20 47 21 48 22 49 30 50 23 51 28 52 26 53 31 54 24 56 25 57
REMARK SMILES IDX 29 59 27 61
REMARK H PARENT 52 39 35 41 18 44 33 46 31 55 25 58 29 60 27 62
ROOT
ATOM      1  C   UNL     1      28.454  59.126  43.900  1.00  0.00     0.282 C 
ATOM      2  O   UNL     1      27.170  58.717  43.418  1.00  0.00    -0.341 OA
ATOM      3  C   UNL     1      26.177  59.610  43.890  1.00  0.00     0.178 C 
ATOM      4  C   UNL     1      26.229  60.951  43.091  1.00  0.00     0.184 C 
ATOM      5  C   UNL     1      27.698  61.193  42.625  1.00  0.00     0.180 C 
ATOM      6  C   UNL     1      28.731  60.649  43.639  1.00  0.00     0.202 C 
ENDROOT
BRANCH   1   7
ATOM      7  O   UNL     1      29.433  58.362  43.210  1.00  0.00    -0.346 OA
BRANCH   7   8
ATOM      8  C   UNL     1      29.361  56.973  43.516  1.00  0.00     0.125 C 
ATOM      9  C   UNL     1      31.222  48.000  47.690  1.00  0.00     0.052 C 
ATOM     10  C   UNL     1      30.403  48.806  46.689  1.00  0.00     0.040 C 
ATOM     11  C   UNL     1      30.122  47.208  48.413  1.00  0.00     0.171 C 
ATOM     12  C   UNL     1      29.123  49.029  47.509  1.00  0.00     0.126 C 
ATOM     13  C   UNL     1      30.879  50.253  46.262  1.00  0.00     0.035 C 
ATOM     14  O   UNL     1      29.081  48.149  48.617  1.00  0.00    -0.346 OA
ATOM     15  C   UNL     1      30.607  46.726  49.826  1.00  0.00     0.066 C 
ATOM     16  O   UNL     1      29.587  46.158  47.583  1.00  0.00    -0.349 OA
ATOM     17  C   UNL     1      29.124  50.518  47.876  1.00  0.00     0.037 C 
ATOM     18  C   UNL     1      31.159  50.486  44.791  1.00  0.00     0.139 C 
ATOM     19  C   UNL     1      29.614  51.087  46.545  1.00  0.00     0.009 C 
ATOM     20  C   UNL     1      29.552  45.761  50.355  1.00  0.00     0.014 C 
ATOM     21  C   UNL     1      30.002  44.870  48.000  1.00  0.00     0.169 C 
ATOM     22  C   UNL     1      31.403  51.921  44.361  1.00  0.00     0.081 C 
ATOM     23  O   UNL     1      31.119  49.580  43.974  1.00  0.00    -0.299 OA
ATOM     24  C   UNL     1      29.839  52.608  46.345  1.00  0.00     0.001 C 
ATOM     25  C   UNL     1      29.482  44.526  49.421  1.00  0.00     0.041 C 
ATOM     26  C   UNL     1      30.255  52.873  44.864  1.00  0.00     0.010 C 
ATOM     27  C   UNL     1      28.535  53.370  46.643  1.00  0.00     0.031 C 
ATOM     28  C   UNL     1      30.553  54.417  44.644  1.00  0.00    -0.008 C 
ATOM     29  C   UNL     1      28.592  54.809  46.217  1.00  0.00    -0.027 C 
ATOM     30  C   UNL     1      30.455  54.719  43.115  1.00  0.00     0.014 C 
ATOM     31  C   UNL     1      29.507  55.299  45.353  1.00  0.00    -0.065 C 
ATOM     32  C   UNL     1      30.491  56.225  42.782  1.00  0.00     0.033 C 
ATOM     33  C   UNL     1      29.500  56.785  45.029  1.00  0.00     0.063 C 
ATOM     34  C   UNL     1      32.345  47.172  47.053  1.00  0.00     0.014 C 
ATOM     35  C   UNL     1      32.121  50.731  47.095  1.00  0.00     0.020 C 
ATOM     36  C   UNL     1      31.953  54.818  45.187  1.00  0.00     0.016 C 
BRANCH  25  37
ATOM     37  C   UNL     1      28.068  43.921  49.409  1.00  0.00     0.162 C 
BRANCH  37  38
ATOM     38  O   UNL     1      27.591  43.779  48.096  1.00  0.00    -0.396 OA
ATOM     39  H   UNL     1      27.524  44.688  47.704  1.00  0.00     0.210 HD
ENDBRANCH  37  38
ENDBRANCH  25  37
ENDBRANCH   7   8
ENDBRANCH   1   7
BRANCH   6  40
ATOM     40  O   UNL     1      28.751  61.389  44.838  1.00  0.00    -0.385 OA
ATOM     41  H   UNL     1      28.744  62.355  44.628  1.00  0.00     0.211 HD
ENDBRANCH   6  40
BRANCH   3  42
ATOM     42  C   UNL     1      24.803  58.941  43.906  1.00  0.00     0.191 C 
BRANCH  42  43
ATOM     43  O   UNL     1      24.773  57.862  43.011  1.00  0.00    -0.394 OA
ATOM     44  H   UNL     1      25.366  58.102  42.251  1.00  0.00     0.210 HD
ENDBRANCH  42  43
ENDBRANCH   3  42
BRANCH   5  45
ATOM     45  O   UNL     1      27.939  62.535  42.291  1.00  0.00    -0.387 OA
ATOM     46  H   UNL     1      27.509  63.094  42.987  1.00  0.00     0.211 HD
ENDBRANCH   5  45
BRANCH   4  47
ATOM     47  O   UNL     1      25.364  60.933  41.952  1.00  0.00    -0.341 OA
BRANCH  47  48
ATOM     48  C   UNL     1      26.060  60.625  40.742  1.00  0.00     0.282 C 
ATOM     49  O   UNL     1      25.822  61.622  39.742  1.00  0.00    -0.341 OA
ATOM     50  C   UNL     1      25.740  59.187  40.244  1.00  0.00     0.202 C 
ATOM     51  C   UNL     1      24.517  61.583  39.148  1.00  0.00     0.178 C 
ATOM     52  C   UNL     1      24.304  59.108  39.700  1.00  0.00     0.179 C 
ATOM     53  C   UNL     1      24.130  60.177  38.614  1.00  0.00     0.177 C 
BRANCH  50  54
ATOM     54  O   UNL     1      26.655  58.754  39.258  1.00  0.00    -0.385 OA
ATOM     55  H   UNL     1      26.721  57.765  39.270  1.00  0.00     0.211 HD
ENDBRANCH  50  54
BRANCH  51  56
ATOM     56  C   UNL     1      23.434  62.236  40.036  1.00  0.00     0.191 C 
BRANCH  56  57
ATOM     57  O   UNL     1      22.148  61.868  39.614  1.00  0.00    -0.394 OA
ATOM     58  H   UNL     1      22.030  62.215  38.696  1.00  0.00     0.210 HD
ENDBRANCH  56  57
ENDBRANCH  51  56
BRANCH  52  59
ATOM     59  O   UNL     1      23.375  59.312  40.732  1.00  0.00    -0.387 OA
ATOM     60  H   UNL     1      22.843  58.477  40.808  1.00  0.00     0.211 HD
ENDBRANCH  52  59
BRANCH  53  61
ATOM     61  O   UNL     1      24.945  59.855  37.514  1.00  0.00    -0.387 OA
ATOM     62  H   UNL     1      25.348  58.965  37.699  1.00  0.00     0.211 HD
ENDBRANCH  53  61
ENDBRANCH  47  48
ENDBRANCH   4  47
TORSDOF 15
ENDMDL
MODEL 9
REMARK VINA RESULT:   -10.487      3.865      6.905
REMARK INTER + INTRA:         -18.998
REMARK INTER:                 -17.734
REMARK INTRA:                  -1.264
REMARK UNBOUND:                -1.767
REMARK SMILES C[C@H]1[C@H]2[C@H](C[C@H]3[C@@H]4CC=C5C[C@@H](O[C@@H]6O[C@H](CO)[C@H](O[C@@H]7O[C@H](CO)[C@@H](O)[C@H](O)[C@H]7O)[C@@H](O)[C@H]6O)CC[C@]5(C)[C@H]4CC(=O)[C@]23C)O[C@]12CC[C@@H](CO)CO2
REMARK SMILES IDX 14 1 15 2 16 3 19 4 32 5 34 6 13 7 12 8 2 9 3 10 47 11 4 12
REMARK SMILES IDX 44 13 46 14 48 15 54 16 5 17 42 18 6 19 49 20 53 21 41 22
REMARK SMILES IDX 43 23 7 24 50 25 40 26 8 27 38 28 9 29 37 30 10 31 36 32
REMARK SMILES IDX 11 33 1 34 45 35 39 36 51 37 52 38 35 40 17 42 18 43 33 45
REMARK SMILES IDX 20 47 21 48 22 49 30 50 23 51 28 52 26 53 31 54 24 56 25 57
REMARK SMILES IDX 29 59 27 61
REMARK H PARENT 52 39 35 41 18 44 33 46 31 55 25 58 29 60 27 62
ROOT
ATOM      1  C   UNL     1      27.099  58.271  43.330  1.00  0.00     0.282 C 
ATOM      2  O   UNL     1      26.758  59.641  43.091  1.00  0.00    -0.341 OA
ATOM      3  C   UNL     1      26.904  59.935  41.714  1.00  0.00     0.178 C 
ATOM      4  C   UNL     1      25.716  59.330  40.901  1.00  0.00     0.184 C 
ATOM      5  C   UNL     1      25.215  58.049  41.636  1.00  0.00     0.180 C 
ATOM      6  C   UNL     1      26.364  57.294  42.346  1.00  0.00     0.202 C 
ENDROOT
BRANCH   1   7
ATOM      7  O   UNL     1      26.705  57.957  44.658  1.00  0.00    -0.346 OA
BRANCH   7   8
ATOM      8  C   UNL     1      27.372  58.756  45.631  1.00  0.00     0.125 C 
ATOM      9  C   UNL     1      33.730  61.650  52.886  1.00  0.00     0.052 C 
ATOM     10  C   UNL     1      32.574  62.025  51.964  1.00  0.00     0.040 C 
ATOM     11  C   UNL     1      34.670  62.850  52.695  1.00  0.00     0.171 C 
ATOM     12  C   UNL     1      33.344  62.769  50.861  1.00  0.00     0.126 C 
ATOM     13  C   UNL     1      31.764  60.893  51.213  1.00  0.00     0.035 C 
ATOM     14  O   UNL     1      34.647  63.104  51.301  1.00  0.00    -0.346 OA
ATOM     15  C   UNL     1      36.145  62.480  53.084  1.00  0.00     0.066 C 
ATOM     16  O   UNL     1      34.166  64.031  53.350  1.00  0.00    -0.349 OA
ATOM     17  C   UNL     1      33.301  61.847  49.637  1.00  0.00     0.037 C 
ATOM     18  C   UNL     1      30.276  60.806  51.489  1.00  0.00     0.139 C 
ATOM     19  C   UNL     1      31.851  61.373  49.751  1.00  0.00     0.009 C 
ATOM     20  C   UNL     1      36.943  63.778  53.094  1.00  0.00     0.014 C 
ATOM     21  C   UNL     1      34.899  64.361  54.515  1.00  0.00     0.169 C 
ATOM     22  C   UNL     1      29.471  59.868  50.607  1.00  0.00     0.081 C 
ATOM     23  O   UNL     1      29.731  61.508  52.326  1.00  0.00    -0.299 OA
ATOM     24  C   UNL     1      31.247  60.358  48.747  1.00  0.00     0.001 C 
ATOM     25  C   UNL     1      36.375  64.714  54.191  1.00  0.00     0.041 C 
ATOM     26  C   UNL     1      29.737  60.146  49.081  1.00  0.00     0.010 C 
ATOM     27  C   UNL     1      31.369  60.908  47.314  1.00  0.00     0.031 C 
ATOM     28  C   UNL     1      29.104  59.064  48.108  1.00  0.00    -0.008 C 
ATOM     29  C   UNL     1      30.574  60.115  46.317  1.00  0.00    -0.027 C 
ATOM     30  C   UNL     1      27.554  59.248  48.114  1.00  0.00     0.014 C 
ATOM     31  C   UNL     1      29.584  59.263  46.656  1.00  0.00    -0.065 C 
ATOM     32  C   UNL     1      26.830  58.417  47.034  1.00  0.00     0.033 C 
ATOM     33  C   UNL     1      28.876  58.475  45.565  1.00  0.00     0.063 C 
ATOM     34  C   UNL     1      33.303  61.345  54.327  1.00  0.00     0.014 C 
ATOM     35  C   UNL     1      32.401  59.475  51.427  1.00  0.00     0.020 C 
ATOM     36  C   UNL     1      29.479  57.615  48.533  1.00  0.00     0.016 C 
BRANCH  25  37
ATOM     37  C   UNL     1      36.567  66.192  53.811  1.00  0.00     0.162 C 
BRANCH  37  38
ATOM     38  O   UNL     1      35.819  66.520  52.669  1.00  0.00    -0.396 OA
ATOM     39  H   UNL     1      35.970  65.803  52.000  1.00  0.00     0.210 HD
ENDBRANCH  37  38
ENDBRANCH  25  37
ENDBRANCH   7   8
ENDBRANCH   1   7
BRANCH   6  40
ATOM     40  O   UNL     1      27.260  56.697  41.437  1.00  0.00    -0.385 OA
ATOM     41  H   UNL     1      27.530  57.362  40.757  1.00  0.00     0.211 HD
ENDBRANCH   6  40
BRANCH   3  42
ATOM     42  C   UNL     1      27.117  61.432  41.494  1.00  0.00     0.191 C 
BRANCH  42  43
ATOM     43  O   UNL     1      26.177  62.174  42.224  1.00  0.00    -0.394 OA
ATOM     44  H   UNL     1      25.377  61.596  42.332  1.00  0.00     0.210 HD
ENDBRANCH  42  43
ENDBRANCH   3  42
BRANCH   5  45
ATOM     45  O   UNL     1      24.469  57.207  40.795  1.00  0.00    -0.387 OA
ATOM     46  H   UNL     1      25.102  56.796  40.152  1.00  0.00     0.211 HD
ENDBRANCH   5  45
BRANCH   4  47
ATOM     47  O   UNL     1      24.633  60.254  40.762  1.00  0.00    -0.341 OA
BRANCH  47  48
ATOM     48  C   UNL     1      23.598  59.758  39.910  1.00  0.00     0.282 C 
ATOM     49  O   UNL     1      23.904  59.997  38.532  1.00  0.00    -0.341 OA
ATOM     50  C   UNL     1      22.203  60.311  40.319  1.00  0.00     0.202 C 
ATOM     51  C   UNL     1      23.769  61.361  38.110  1.00  0.00     0.178 C 
ATOM     52  C   UNL     1      22.085  61.803  39.966  1.00  0.00     0.179 C 
ATOM     53  C   UNL     1      22.393  61.981  38.474  1.00  0.00     0.177 C 
BRANCH  50  54
ATOM     54  O   UNL     1      21.150  59.587  39.715  1.00  0.00    -0.385 OA
ATOM     55  H   UNL     1      21.513  58.976  39.025  1.00  0.00     0.211 HD
ENDBRANCH  50  54
BRANCH  51  56
ATOM     56  C   UNL     1      24.977  62.236  38.515  1.00  0.00     0.191 C 
BRANCH  56  57
ATOM     57  O   UNL     1      25.829  62.455  37.424  1.00  0.00    -0.394 OA
ATOM     58  H   UNL     1      26.012  63.427  37.384  1.00  0.00     0.210 HD
ENDBRANCH  56  57
ENDBRANCH  51  56
BRANCH  52  59
ATOM     59  O   UNL     1      22.978  62.564  40.736  1.00  0.00    -0.387 OA
ATOM     60  H   UNL     1      22.731  63.516  40.606  1.00  0.00     0.211 HD
ENDBRANCH  52  59
BRANCH  53  61
ATOM     61  O   UNL     1      21.385  61.356  37.717  1.00  0.00    -0.387 OA
ATOM     62  H   UNL     1      21.777  60.526  37.335  1.00  0.00     0.211 HD
ENDBRANCH  53  61
ENDBRANCH  47  48
ENDBRANCH   4  47
TORSDOF 15
ENDMDL
