REMARK  Name = 
REMARK  10 active torsions:
REMARK  status: ('A' for Active; 'I' for Inactive)
REMARK    1  A    between atoms: C_1  and  C_2
REMARK    2  A    between atoms: C_7  and  O_8
REMARK    3  A    between atoms: C_15  and  C_16
REMARK    4  A    between atoms: C_15  and  C_17
REMARK    5  A    between atoms: C_28  and  C_29
REMARK    6  A    between atoms: C_29  and  C_30
REMARK    7  A    between atoms: C_30  and  C_31
REMARK    8  A    between atoms: C_36  and  C_37
REMARK    9  A    between atoms: C_42  and  C_43
REMARK   10  A    between atoms: C_43  and  N_44
REMARK                            x       y       z     vdW  Elec       q    Type
REMARK                         _______ _______ _______ _____ _____    ______ ____
ROOT
ATOM      1  C   UNL     1      24.732  60.529  40.303  0.00  0.00    +0.000 C 
ENDROOT
BRANCH   1  28
ATOM      2  C   UNL     1      36.691  59.874  47.146  0.00  0.00    +0.000 C 
ATOM      3  C   UNL     1      35.543  59.409  46.306  0.00  0.00    +0.000 A 
ATOM      4  C   UNL     1      35.725  58.463  45.299  0.00  0.00    +0.000 A 
ATOM      5  C   UNL     1      34.634  58.055  44.535  0.00  0.00    +0.000 A 
ATOM      6  O   UNL     1      34.829  57.232  43.661  0.00  0.00    +0.000 OA
ATOM      7  C   UNL     1      33.345  58.604  44.786  0.00  0.00    +0.000 A 
ATOM      8  C   UNL     1      32.151  58.270  44.067  0.00  0.00    +0.000 A 
ATOM      9  C   UNL     1      30.921  58.910  44.394  0.00  0.00    +0.000 A 
ATOM     10  C   UNL     1      30.883  59.804  45.481  0.00  0.00    +0.000 A 
ATOM     11  C   UNL     1      32.042  60.137  46.171  0.00  0.00    +0.000 A 
ATOM     12  C   UNL     1      33.261  59.560  45.833  0.00  0.00    +0.000 A 
ATOM     13  O   UNL     1      34.336  59.909  46.533  0.00  0.00    +0.000 OA
ATOM     14  O   UNL     1      29.710  60.326  45.896  0.00  0.00    +0.000 OA
ATOM     15  C   UNL     1      28.517  59.656  45.691  0.00  0.00    +0.000 C 
ATOM     16  C   UNL     1      28.504  58.353  46.534  0.00  0.00    +0.000 C 
ATOM     17  C   UNL     1      27.367  60.558  46.177  0.00  0.00    +0.000 C 
ATOM     18  C   UNL     1      28.369  59.365  44.174  0.00  0.00    +0.000 C 
ATOM     19  O   UNL     1      27.248  58.571  44.027  0.00  0.00    +0.000 OA
ATOM     20  C   UNL     1      26.609  58.179  42.909  0.00  0.00    +0.000 C 
ATOM     21  O   UNL     1      26.051  57.092  42.931  0.00  0.00    +0.000 OA
ATOM     22  C   UNL     1      26.465  59.049  41.688  0.00  0.00    +0.000 C 
ATOM     23  C   UNL     1      27.654  59.759  41.030  0.00  0.00    +0.000 C 
ATOM     24  C   UNL     1      28.919  58.903  40.971  0.00  0.00    +0.000 C 
ATOM     25  C   UNL     1      29.917  59.121  42.119  0.00  0.00    +0.000 C 
ATOM     26  C   UNL     1      29.634  58.637  43.581  0.00  0.00    +0.000 C 
ATOM     27  O   UNL     1      25.735  58.373  40.716  0.00  0.00    +0.000 OA
ATOM     28  C   UNL     1      25.048  59.443  41.357  0.00  0.00    +0.000 C 
BRANCH   8  29
ATOM     29  O   UNL     1      32.125  57.342  43.081  0.00  0.00    +0.000 OA
ATOM     30  H   UNL     1      31.392  57.102  42.510  0.00  0.00    +0.000 HD
ENDBRANCH   8  29
ENDBRANCH   1  28
BRANCH   1  31
ATOM     31  C   UNL     1      24.285  59.926  38.963  0.00  0.00    +0.000 C 
BRANCH  31  32
ATOM     32  C   UNL     1      22.910  60.380  38.542  0.00  0.00    +0.000 A 
ATOM     33  C   UNL     1      21.802  60.276  39.390  0.00  0.00    +0.000 A 
ATOM     34  C   UNL     1      20.554  60.733  38.945  0.00  0.00    +0.000 A 
ATOM     35  N   UNL     1      19.418  60.641  39.783  0.00  0.00    +0.000 N 
ATOM     36  N   UNL     1      20.434  61.279  37.703  0.00  0.00    +0.000 NA
ATOM     37  C   UNL     1      21.490  61.405  36.849  0.00  0.00    +0.000 A 
ATOM     38  C   UNL     1      22.748  60.944  37.273  0.00  0.00    +0.000 A 
ATOM     39  H   UNL     1      19.488  60.236  40.729  0.00  0.00    +0.000 HD
ATOM     40  H   UNL     1      18.502  60.984  39.455  0.00  0.00    +0.000 HD
BRANCH  37  41
ATOM     41  C   UNL     1      21.289  62.054  35.512  0.00  0.00    +0.000 A 
ATOM     42  C   UNL     1      21.802  61.451  34.348  0.00  0.00    +0.000 A 
ATOM     43  C   UNL     1      21.580  62.039  33.094  0.00  0.00    +0.000 A 
ATOM     44  N   UNL     1      22.095  61.442  31.921  0.00  0.00    +0.000 N 
ATOM     45  N   UNL     1      20.859  63.189  33.002  0.00  0.00    +0.000 NA
ATOM     46  C   UNL     1      20.354  63.809  34.100  0.00  0.00    +0.000 A 
ATOM     47  C   UNL     1      20.568  63.258  35.366  0.00  0.00    +0.000 A 
ATOM     48  H   UNL     1      22.644  60.572  31.967  0.00  0.00    +0.000 HD
ATOM     49  H   UNL     1      21.929  61.879  31.002  0.00  0.00    +0.000 HD
BRANCH  46  50
ATOM     50  C   UNL     1      19.545  65.072  33.958  0.00  0.00    +0.000 C 
BRANCH  50  51
ATOM     51  N   UNL     1      18.515  64.899  32.936  0.00  0.00    +0.000 N 
ATOM     52  C   UNL     1      18.696  64.439  31.662  0.00  0.00    +0.000 A 
ATOM     53  C   UNL     1      17.461  64.421  31.059  0.00  0.00    +0.000 A 
ATOM     54  C   UNL     1      16.803  64.121  29.892  0.00  0.00    +0.000 A 
ATOM     55  C   UNL     1      15.458  64.415  30.173  0.00  0.00    +0.000 A 
ATOM     56  N   UNL     1      15.324  64.873  31.449  0.00  0.00    +0.000 N 
ATOM     57  C   UNL     1      16.569  64.856  31.933  0.00  0.00    +0.000 A 
ATOM     58  C   UNL     1      17.189  65.167  33.112  0.00  0.00    +0.000 A 
ATOM     59  H   UNL     1      14.450  65.169  31.936  0.00  0.00    +0.000 HD
ENDBRANCH  50  51
ENDBRANCH  46  50
ENDBRANCH  37  41
ENDBRANCH  31  32
ENDBRANCH   1  31
TORSDOF 7
