MODEL 1
REMARK VINA RESULT:   -12.287      0.000      0.000
REMARK INTER + INTRA:         -15.941
REMARK INTER:                 -15.160
REMARK INTRA:                  -0.781
REMARK UNBOUND:                -0.781
REMARK SMILES COc1ccc2[nH]c3c(c2c1)CCN1C(=O)N(c2ccc(C(=O)Nc4ccc5c(c4)OCO5)cc2)C(=O)[C@]31C
REMARK SMILES IDX 3 1 4 2 5 3 6 4 7 5 8 6 9 7 12 8 13 9 14 10 15 11 16 12
REMARK SMILES IDX 17 13 36 14 37 15 38 16 39 17 10 18 11 19 2 21 1 22 18 23
REMARK SMILES IDX 19 24 35 25 20 26 34 27 21 28 22 29 23 30 24 31 25 33 26 34
REMARK SMILES IDX 30 35 27 36 29 37 28 38 31 39 33 40 32 41
REMARK H PARENT 7 20 24 32
ROOT
ATOM      1  C   UNL     1      27.954  57.843  48.411  1.00  0.00     0.119 A 
ATOM      2  C   UNL     1      26.892  56.920  48.250  1.00  0.00     0.048 A 
ATOM      3  C   UNL     1      26.279  56.726  46.998  1.00  0.00     0.030 A 
ATOM      4  C   UNL     1      26.750  57.468  45.918  1.00  0.00     0.046 A 
ATOM      5  N   UNL     1      26.322  57.423  44.637  1.00  0.00    -0.356 N 
ATOM      6  C   UNL     1      27.107  58.300  43.974  1.00  0.00     0.055 A 
ATOM      7  C   UNL     1      28.001  58.918  44.828  1.00  0.00    -0.014 A 
ATOM      8  C   UNL     1      28.952  59.977  44.331  1.00  0.00     0.060 C 
ATOM      9  C   UNL     1      28.180  60.902  43.351  1.00  0.00     0.128 C 
ATOM     10  N   UNL     1      27.284  60.129  42.479  1.00  0.00    -0.304 N 
ATOM     11  C   UNL     1      26.353  60.652  41.651  1.00  0.00     0.332 C 
ATOM     12  O   UNL     1      26.261  61.850  41.434  1.00  0.00    -0.247 OA
ATOM     13  N   UNL     1      25.501  59.718  41.153  1.00  0.00    -0.230 N 
ATOM     14  C   UNL     1      25.858  58.530  41.715  1.00  0.00     0.267 C 
ATOM     15  O   UNL     1      25.320  57.459  41.473  1.00  0.00    -0.271 OA
ATOM     16  C   UNL     1      27.115  58.687  42.524  1.00  0.00     0.161 C 
ATOM     17  C   UNL     1      28.255  57.958  41.781  1.00  0.00     0.053 C 
ATOM     18  C   UNL     1      27.776  58.377  46.070  1.00  0.00     0.007 A 
ATOM     19  C   UNL     1      28.399  58.597  47.295  1.00  0.00     0.057 A 
ATOM     20  H   UNL     1      25.562  56.826  44.240  1.00  0.00     0.166 HD
ENDROOT
BRANCH   1  21
ATOM     21  O   UNL     1      28.521  57.963  49.639  1.00  0.00    -0.497 OA
ATOM     22  C   UNL     1      28.922  59.146  50.227  1.00  0.00     0.278 C 
ENDBRANCH   1  21
BRANCH  13  23
ATOM     23  C   UNL     1      24.462  59.930  40.176  1.00  0.00     0.054 A 
ATOM     24  C   UNL     1      23.143  60.201  40.593  1.00  0.00     0.028 A 
ATOM     25  C   UNL     1      24.727  59.958  38.789  1.00  0.00     0.028 A 
ATOM     26  C   UNL     1      22.145  60.523  39.676  1.00  0.00     0.016 A 
ATOM     27  C   UNL     1      23.716  60.254  37.863  1.00  0.00     0.016 A 
ATOM     28  C   UNL     1      22.413  60.561  38.297  1.00  0.00     0.040 A 
BRANCH  28  29
ATOM     29  C   UNL     1      21.326  60.985  37.359  1.00  0.00     0.255 C 
ATOM     30  O   UNL     1      20.168  60.859  37.733  1.00  0.00    -0.269 OA
ATOM     31  N   UNL     1      21.589  61.471  36.107  1.00  0.00    -0.322 N 
ATOM     32  H   UNL     1      22.553  61.418  35.749  1.00  0.00     0.170 HD
BRANCH  31  33
ATOM     33  C   UNL     1      20.600  61.996  35.211  1.00  0.00     0.045 A 
ATOM     34  C   UNL     1      20.040  61.139  34.225  1.00  0.00     0.030 A 
ATOM     35  C   UNL     1      20.191  63.358  35.244  1.00  0.00     0.076 A 
ATOM     36  C   UNL     1      19.078  61.618  33.314  1.00  0.00     0.053 A 
ATOM     37  C   UNL     1      19.255  63.788  34.309  1.00  0.00     0.167 A 
ATOM     38  C   UNL     1      18.721  62.959  33.394  1.00  0.00     0.165 A 
ATOM     39  O   UNL     1      18.753  65.014  34.143  1.00  0.00    -0.454 OA
ATOM     40  O   UNL     1      17.859  63.640  32.632  1.00  0.00    -0.454 OA
ATOM     41  C   UNL     1      17.861  64.961  33.076  1.00  0.00     0.468 C 
ENDBRANCH  31  33
ENDBRANCH  28  29
ENDBRANCH  13  23
TORSDOF 4
ENDMDL
MODEL 2
REMARK VINA RESULT:   -12.127      2.397      3.432
REMARK INTER + INTRA:         -15.743
REMARK INTER:                 -14.985
REMARK INTRA:                  -0.758
REMARK UNBOUND:                -0.781
REMARK SMILES COc1ccc2[nH]c3c(c2c1)CCN1C(=O)N(c2ccc(C(=O)Nc4ccc5c(c4)OCO5)cc2)C(=O)[C@]31C
REMARK SMILES IDX 3 1 4 2 5 3 6 4 7 5 8 6 9 7 12 8 13 9 14 10 15 11 16 12
REMARK SMILES IDX 17 13 36 14 37 15 38 16 39 17 10 18 11 19 2 21 1 22 18 23
REMARK SMILES IDX 19 24 35 25 20 26 34 27 21 28 22 29 23 30 24 31 25 33 26 34
REMARK SMILES IDX 30 35 27 36 29 37 28 38 31 39 33 40 32 41
REMARK H PARENT 7 20 24 32
ROOT
ATOM      1  C   UNL     1      32.020  57.598  44.327  1.00  0.00     0.119 A 
ATOM      2  C   UNL     1      32.224  58.948  43.952  1.00  0.00     0.048 A 
ATOM      3  C   UNL     1      31.154  59.751  43.512  1.00  0.00     0.030 A 
ATOM      4  C   UNL     1      29.886  59.178  43.460  1.00  0.00     0.046 A 
ATOM      5  N   UNL     1      28.729  59.770  43.091  1.00  0.00    -0.356 N 
ATOM      6  C   UNL     1      27.784  58.815  43.237  1.00  0.00     0.055 A 
ATOM      7  C   UNL     1      28.339  57.622  43.663  1.00  0.00    -0.014 A 
ATOM      8  C   UNL     1      27.492  56.389  43.851  1.00  0.00     0.060 C 
ATOM      9  C   UNL     1      26.491  56.302  42.667  1.00  0.00     0.128 C 
ATOM     10  N   UNL     1      25.950  57.625  42.324  1.00  0.00    -0.304 N 
ATOM     11  C   UNL     1      25.202  57.909  41.236  1.00  0.00     0.332 C 
ATOM     12  O   UNL     1      24.771  57.045  40.487  1.00  0.00    -0.247 OA
ATOM     13  N   UNL     1      25.047  59.244  41.031  1.00  0.00    -0.230 N 
ATOM     14  C   UNL     1      25.765  59.870  42.003  1.00  0.00     0.267 C 
ATOM     15  O   UNL     1      25.832  61.083  42.143  1.00  0.00    -0.271 OA
ATOM     16  C   UNL     1      26.307  58.869  42.986  1.00  0.00     0.161 C 
ATOM     17  C   UNL     1      25.542  59.045  44.315  1.00  0.00     0.053 C 
ATOM     18  C   UNL     1      29.683  57.861  43.813  1.00  0.00     0.007 A 
ATOM     19  C   UNL     1      30.719  57.039  44.245  1.00  0.00     0.057 A 
ATOM     20  H   UNL     1      28.590  60.757  42.778  1.00  0.00     0.166 HD
ENDROOT
BRANCH   1  21
ATOM     21  O   UNL     1      33.089  56.885  44.769  1.00  0.00    -0.497 OA
ATOM     22  C   UNL     1      34.348  56.889  44.201  1.00  0.00     0.278 C 
ENDBRANCH   1  21
BRANCH  13  23
ATOM     23  C   UNL     1      24.234  59.874  40.020  1.00  0.00     0.054 A 
ATOM     24  C   UNL     1      22.915  60.273  40.320  1.00  0.00     0.028 A 
ATOM     25  C   UNL     1      24.736  60.188  38.738  1.00  0.00     0.028 A 
ATOM     26  C   UNL     1      22.148  60.986  39.402  1.00  0.00     0.016 A 
ATOM     27  C   UNL     1      23.953  60.881  37.802  1.00  0.00     0.016 A 
ATOM     28  C   UNL     1      22.652  61.308  38.131  1.00  0.00     0.040 A 
BRANCH  28  29
ATOM     29  C   UNL     1      21.817  62.139  37.207  1.00  0.00     0.255 C 
ATOM     30  O   UNL     1      21.538  63.276  37.559  1.00  0.00    -0.269 OA
ATOM     31  N   UNL     1      21.341  61.657  36.018  1.00  0.00    -0.322 N 
ATOM     32  H   UNL     1      21.447  60.654  35.814  1.00  0.00     0.170 HD
BRANCH  31  33
ATOM     33  C   UNL     1      20.635  62.439  35.045  1.00  0.00     0.045 A 
ATOM     34  C   UNL     1      21.376  63.151  34.065  1.00  0.00     0.030 A 
ATOM     35  C   UNL     1      19.218  62.564  35.054  1.00  0.00     0.076 A 
ATOM     36  C   UNL     1      20.725  63.945  33.100  1.00  0.00     0.053 A 
ATOM     37  C   UNL     1      18.622  63.377  34.095  1.00  0.00     0.167 A 
ATOM     38  C   UNL     1      19.339  64.030  33.161  1.00  0.00     0.165 A 
ATOM     39  O   UNL     1      17.326  63.656  33.934  1.00  0.00    -0.454 OA
ATOM     40  O   UNL     1      18.510  64.731  32.381  1.00  0.00    -0.454 OA
ATOM     41  C   UNL     1      17.215  64.524  32.851  1.00  0.00     0.468 C 
ENDBRANCH  31  33
ENDBRANCH  28  29
ENDBRANCH  13  23
TORSDOF 4
ENDMDL
MODEL 3
REMARK VINA RESULT:   -11.522      2.465      2.950
REMARK INTER + INTRA:         -14.997
REMARK INTER:                 -14.278
REMARK INTRA:                  -0.719
REMARK UNBOUND:                -0.781
REMARK SMILES COc1ccc2[nH]c3c(c2c1)CCN1C(=O)N(c2ccc(C(=O)Nc4ccc5c(c4)OCO5)cc2)C(=O)[C@]31C
REMARK SMILES IDX 3 1 4 2 5 3 6 4 7 5 8 6 9 7 12 8 13 9 14 10 15 11 16 12
REMARK SMILES IDX 17 13 36 14 37 15 38 16 39 17 10 18 11 19 2 21 1 22 18 23
REMARK SMILES IDX 19 24 35 25 20 26 34 27 21 28 22 29 23 30 24 31 25 33 26 34
REMARK SMILES IDX 30 35 27 36 29 37 28 38 31 39 33 40 32 41
REMARK H PARENT 7 20 24 32
ROOT
ATOM      1  C   UNL     1      29.218  53.854  45.834  1.00  0.00     0.119 A 
ATOM      2  C   UNL     1      29.492  53.438  44.509  1.00  0.00     0.048 A 
ATOM      3  C   UNL     1      29.331  54.318  43.422  1.00  0.00     0.030 A 
ATOM      4  C   UNL     1      28.896  55.614  43.689  1.00  0.00     0.046 A 
ATOM      5  N   UNL     1      28.697  56.616  42.804  1.00  0.00    -0.356 N 
ATOM      6  C   UNL     1      28.308  57.671  43.552  1.00  0.00     0.055 A 
ATOM      7  C   UNL     1      28.231  57.337  44.891  1.00  0.00    -0.014 A 
ATOM      8  C   UNL     1      27.769  58.336  45.921  1.00  0.00     0.060 C 
ATOM      9  C   UNL     1      26.563  59.118  45.334  1.00  0.00     0.128 C 
ATOM     10  N   UNL     1      26.774  59.440  43.915  1.00  0.00    -0.304 N 
ATOM     11  C   UNL     1      25.842  59.950  43.080  1.00  0.00     0.332 C 
ATOM     12  O   UNL     1      24.750  60.337  43.467  1.00  0.00    -0.247 OA
ATOM     13  N   UNL     1      26.222  59.917  41.776  1.00  0.00    -0.230 N 
ATOM     14  C   UNL     1      27.443  59.314  41.744  1.00  0.00     0.267 C 
ATOM     15  O   UNL     1      28.103  59.137  40.730  1.00  0.00    -0.271 OA
ATOM     16  C   UNL     1      27.945  59.067  43.140  1.00  0.00     0.161 C 
ATOM     17  C   UNL     1      29.126  60.028  43.398  1.00  0.00     0.053 C 
ATOM     18  C   UNL     1      28.616  56.021  44.976  1.00  0.00     0.007 A 
ATOM     19  C   UNL     1      28.758  55.175  46.071  1.00  0.00     0.057 A 
ATOM     20  H   UNL     1      28.831  56.586  41.768  1.00  0.00     0.166 HD
ENDROOT
BRANCH   1  21
ATOM     21  O   UNL     1      29.420  52.965  46.842  1.00  0.00    -0.497 OA
ATOM     22  C   UNL     1      28.492  52.056  47.309  1.00  0.00     0.278 C 
ENDBRANCH   1  21
BRANCH  13  23
ATOM     23  C   UNL     1      25.504  60.465  40.652  1.00  0.00     0.054 A 
ATOM     24  C   UNL     1      24.809  59.611  39.771  1.00  0.00     0.028 A 
ATOM     25  C   UNL     1      25.395  61.856  40.435  1.00  0.00     0.028 A 
ATOM     26  C   UNL     1      24.014  60.120  38.747  1.00  0.00     0.016 A 
ATOM     27  C   UNL     1      24.617  62.368  39.385  1.00  0.00     0.016 A 
ATOM     28  C   UNL     1      23.898  61.504  38.538  1.00  0.00     0.040 A 
BRANCH  28  29
ATOM     29  C   UNL     1      22.973  62.002  37.471  1.00  0.00     0.255 C 
ATOM     30  O   UNL     1      23.423  62.787  36.648  1.00  0.00    -0.269 OA
ATOM     31  N   UNL     1      21.657  61.633  37.414  1.00  0.00    -0.322 N 
ATOM     32  H   UNL     1      21.257  61.105  38.202  1.00  0.00     0.170 HD
BRANCH  31  33
ATOM     33  C   UNL     1      20.756  61.986  36.356  1.00  0.00     0.045 A 
ATOM     34  C   UNL     1      20.693  61.161  35.201  1.00  0.00     0.030 A 
ATOM     35  C   UNL     1      19.955  63.161  36.400  1.00  0.00     0.076 A 
ATOM     36  C   UNL     1      19.835  61.479  34.130  1.00  0.00     0.053 A 
ATOM     37  C   UNL     1      19.139  63.444  35.308  1.00  0.00     0.167 A 
ATOM     38  C   UNL     1      19.078  62.641  34.230  1.00  0.00     0.165 A 
ATOM     39  O   UNL     1      18.332  64.492  35.126  1.00  0.00    -0.454 OA
ATOM     40  O   UNL     1      18.222  63.159  33.344  1.00  0.00    -0.454 OA
ATOM     41  C   UNL     1      17.733  64.348  33.879  1.00  0.00     0.468 C 
ENDBRANCH  31  33
ENDBRANCH  28  29
ENDBRANCH  13  23
TORSDOF 4
ENDMDL
MODEL 4
REMARK VINA RESULT:   -11.353      4.902     10.627
REMARK INTER + INTRA:         -14.789
REMARK INTER:                 -14.486
REMARK INTRA:                  -0.303
REMARK UNBOUND:                -0.781
REMARK SMILES COc1ccc2[nH]c3c(c2c1)CCN1C(=O)N(c2ccc(C(=O)Nc4ccc5c(c4)OCO5)cc2)C(=O)[C@]31C
REMARK SMILES IDX 3 1 4 2 5 3 6 4 7 5 8 6 9 7 12 8 13 9 14 10 15 11 16 12
REMARK SMILES IDX 17 13 36 14 37 15 38 16 39 17 10 18 11 19 2 21 1 22 18 23
REMARK SMILES IDX 19 24 35 25 20 26 34 27 21 28 22 29 23 30 24 31 25 33 26 34
REMARK SMILES IDX 30 35 27 36 29 37 28 38 31 39 33 40 32 41
REMARK H PARENT 7 20 24 32
ROOT
ATOM      1  C   UNL     1      23.534  61.209  39.718  1.00  0.00     0.119 A 
ATOM      2  C   UNL     1      22.337  61.534  40.401  1.00  0.00     0.048 A 
ATOM      3  C   UNL     1      21.133  61.743  39.701  1.00  0.00     0.030 A 
ATOM      4  C   UNL     1      21.153  61.618  38.315  1.00  0.00     0.046 A 
ATOM      5  N   UNL     1      20.116  61.756  37.459  1.00  0.00    -0.356 N 
ATOM      6  C   UNL     1      20.635  61.510  36.236  1.00  0.00     0.055 A 
ATOM      7  C   UNL     1      21.991  61.251  36.310  1.00  0.00    -0.014 A 
ATOM      8  C   UNL     1      22.808  60.997  35.068  1.00  0.00     0.060 C 
ATOM      9  C   UNL     1      22.354  62.002  33.975  1.00  0.00     0.128 C 
ATOM     10  N   UNL     1      20.894  62.173  33.976  1.00  0.00    -0.304 N 
ATOM     11  C   UNL     1      20.213  63.105  33.275  1.00  0.00     0.332 C 
ATOM     12  O   UNL     1      20.744  63.820  32.439  1.00  0.00    -0.247 OA
ATOM     13  N   UNL     1      18.910  63.204  33.648  1.00  0.00    -0.230 N 
ATOM     14  C   UNL     1      18.736  62.330  34.677  1.00  0.00     0.267 C 
ATOM     15  O   UNL     1      17.672  62.133  35.247  1.00  0.00    -0.271 OA
ATOM     16  C   UNL     1      19.977  61.509  34.888  1.00  0.00     0.161 C 
ATOM     17  C   UNL     1      19.677  60.064  34.438  1.00  0.00     0.053 C 
ATOM     18  C   UNL     1      22.318  61.312  37.642  1.00  0.00     0.007 A 
ATOM     19  C   UNL     1      23.525  61.106  38.303  1.00  0.00     0.057 A 
ATOM     20  H   UNL     1      19.124  61.984  37.693  1.00  0.00     0.166 HD
ENDROOT
BRANCH   1  21
ATOM     21  O   UNL     1      24.655  60.991  40.454  1.00  0.00    -0.497 OA
ATOM     22  C   UNL     1      24.801  60.027  41.430  1.00  0.00     0.278 C 
ENDBRANCH   1  21
BRANCH  13  23
ATOM     23  C   UNL     1      17.897  64.028  33.037  1.00  0.00     0.054 A 
ATOM     24  C   UNL     1      17.603  63.889  31.665  1.00  0.00     0.028 A 
ATOM     25  C   UNL     1      17.111  64.934  33.784  1.00  0.00     0.028 A 
ATOM     26  C   UNL     1      16.553  64.588  31.075  1.00  0.00     0.016 A 
ATOM     27  C   UNL     1      16.072  65.660  33.184  1.00  0.00     0.016 A 
ATOM     28  C   UNL     1      15.765  65.480  31.822  1.00  0.00     0.040 A 
BRANCH  28  29
ATOM     29  C   UNL     1      14.602  66.151  31.159  1.00  0.00     0.255 C 
ATOM     30  O   UNL     1      14.547  66.121  29.938  1.00  0.00    -0.269 OA
ATOM     31  N   UNL     1      13.636  66.810  31.870  1.00  0.00    -0.322 N 
ATOM     32  H   UNL     1      13.783  66.964  32.877  1.00  0.00     0.170 HD
BRANCH  31  33
ATOM     33  C   UNL     1      12.445  67.370  31.301  1.00  0.00     0.045 A 
ATOM     34  C   UNL     1      11.499  66.503  30.691  1.00  0.00     0.030 A 
ATOM     35  C   UNL     1      12.197  68.771  31.285  1.00  0.00     0.076 A 
ATOM     36  C   UNL     1      10.324  67.013  30.104  1.00  0.00     0.053 A 
ATOM     37  C   UNL     1      11.033  69.227  30.676  1.00  0.00     0.167 A 
ATOM     38  C   UNL     1      10.138  68.390  30.118  1.00  0.00     0.165 A 
ATOM     39  O   UNL     1      10.615  70.486  30.525  1.00  0.00    -0.454 OA
ATOM     40  O   UNL     1       9.127  69.102  29.609  1.00  0.00    -0.454 OA
ATOM     41  C   UNL     1       9.402  70.447  29.842  1.00  0.00     0.468 C 
ENDBRANCH  31  33
ENDBRANCH  28  29
ENDBRANCH  13  23
TORSDOF 4
ENDMDL
MODEL 5
REMARK VINA RESULT:   -11.210      2.842      3.766
REMARK INTER + INTRA:         -14.612
REMARK INTER:                 -13.913
REMARK INTRA:                  -0.699
REMARK UNBOUND:                -0.781
REMARK SMILES COc1ccc2[nH]c3c(c2c1)CCN1C(=O)N(c2ccc(C(=O)Nc4ccc5c(c4)OCO5)cc2)C(=O)[C@]31C
REMARK SMILES IDX 3 1 4 2 5 3 6 4 7 5 8 6 9 7 12 8 13 9 14 10 15 11 16 12
REMARK SMILES IDX 17 13 36 14 37 15 38 16 39 17 10 18 11 19 2 21 1 22 18 23
REMARK SMILES IDX 19 24 35 25 20 26 34 27 21 28 22 29 23 30 24 31 25 33 26 34
REMARK SMILES IDX 30 35 27 36 29 37 28 38 31 39 33 40 32 41
REMARK H PARENT 7 20 24 32
ROOT
ATOM      1  C   UNL     1      33.602  58.786  45.835  1.00  0.00     0.119 A 
ATOM      2  C   UNL     1      33.005  59.968  46.338  1.00  0.00     0.048 A 
ATOM      3  C   UNL     1      31.662  60.281  46.057  1.00  0.00     0.030 A 
ATOM      4  C   UNL     1      30.934  59.392  45.271  1.00  0.00     0.046 A 
ATOM      5  N   UNL     1      29.637  59.489  44.902  1.00  0.00    -0.356 N 
ATOM      6  C   UNL     1      29.396  58.375  44.176  1.00  0.00     0.055 A 
ATOM      7  C   UNL     1      30.532  57.596  44.060  1.00  0.00    -0.014 A 
ATOM      8  C   UNL     1      30.528  56.322  43.252  1.00  0.00     0.060 C 
ATOM      9  C   UNL     1      29.729  56.579  41.946  1.00  0.00     0.128 C 
ATOM     10  N   UNL     1      28.531  57.392  42.201  1.00  0.00    -0.304 N 
ATOM     11  C   UNL     1      27.735  57.934  41.254  1.00  0.00     0.332 C 
ATOM     12  O   UNL     1      27.851  57.674  40.066  1.00  0.00    -0.247 OA
ATOM     13  N   UNL     1      26.853  58.838  41.755  1.00  0.00    -0.230 N 
ATOM     14  C   UNL     1      27.112  58.933  43.089  1.00  0.00     0.267 C 
ATOM     15  O   UNL     1      26.488  59.639  43.868  1.00  0.00    -0.271 OA
ATOM     16  C   UNL     1      28.139  57.915  43.500  1.00  0.00     0.161 C 
ATOM     17  C   UNL     1      27.431  56.841  44.353  1.00  0.00     0.053 C 
ATOM     18  C   UNL     1      31.512  58.245  44.769  1.00  0.00     0.007 A 
ATOM     19  C   UNL     1      32.839  57.910  45.022  1.00  0.00     0.057 A 
ATOM     20  H   UNL     1      28.963  60.250  45.140  1.00  0.00     0.166 HD
ENDROOT
BRANCH   1  21
ATOM     21  O   UNL     1      34.894  58.528  46.166  1.00  0.00    -0.497 OA
ATOM     22  C   UNL     1      36.003  59.125  45.600  1.00  0.00     0.278 C 
ENDBRANCH   1  21
BRANCH  13  23
ATOM     23  C   UNL     1      25.808  59.520  41.031  1.00  0.00     0.054 A 
ATOM     24  C   UNL     1      25.959  60.879  40.683  1.00  0.00     0.028 A 
ATOM     25  C   UNL     1      24.651  58.853  40.574  1.00  0.00     0.028 A 
ATOM     26  C   UNL     1      25.021  61.529  39.886  1.00  0.00     0.016 A 
ATOM     27  C   UNL     1      23.691  59.517  39.795  1.00  0.00     0.016 A 
ATOM     28  C   UNL     1      23.875  60.862  39.423  1.00  0.00     0.040 A 
BRANCH  28  29
ATOM     29  C   UNL     1      22.934  61.584  38.508  1.00  0.00     0.255 C 
ATOM     30  O   UNL     1      22.637  62.736  38.790  1.00  0.00    -0.269 OA
ATOM     31  N   UNL     1      22.386  60.989  37.404  1.00  0.00    -0.322 N 
ATOM     32  H   UNL     1      22.518  59.977  37.273  1.00  0.00     0.170 HD
BRANCH  31  33
ATOM     33  C   UNL     1      21.573  61.662  36.434  1.00  0.00     0.045 A 
ATOM     34  C   UNL     1      22.204  62.315  35.341  1.00  0.00     0.030 A 
ATOM     35  C   UNL     1      20.157  61.739  36.550  1.00  0.00     0.076 A 
ATOM     36  C   UNL     1      21.445  63.003  34.374  1.00  0.00     0.053 A 
ATOM     37  C   UNL     1      19.454  62.448  35.582  1.00  0.00     0.167 A 
ATOM     38  C   UNL     1      20.066  63.045  34.542  1.00  0.00     0.165 A 
ATOM     39  O   UNL     1      18.139  62.668  35.507  1.00  0.00    -0.454 OA
ATOM     40  O   UNL     1      19.150  63.650  33.780  1.00  0.00    -0.454 OA
ATOM     41  C   UNL     1      17.906  63.438  34.371  1.00  0.00     0.468 C 
ENDBRANCH  31  33
ENDBRANCH  28  29
ENDBRANCH  13  23
TORSDOF 4
ENDMDL
MODEL 6
REMARK VINA RESULT:   -11.192      1.950      2.770
REMARK INTER + INTRA:         -14.590
REMARK INTER:                 -13.828
REMARK INTRA:                  -0.762
REMARK UNBOUND:                -0.781
REMARK SMILES COc1ccc2[nH]c3c(c2c1)CCN1C(=O)N(c2ccc(C(=O)Nc4ccc5c(c4)OCO5)cc2)C(=O)[C@]31C
REMARK SMILES IDX 3 1 4 2 5 3 6 4 7 5 8 6 9 7 12 8 13 9 14 10 15 11 16 12
REMARK SMILES IDX 17 13 36 14 37 15 38 16 39 17 10 18 11 19 2 21 1 22 18 23
REMARK SMILES IDX 19 24 35 25 20 26 34 27 21 28 22 29 23 30 24 31 25 33 26 34
REMARK SMILES IDX 30 35 27 36 29 37 28 38 31 39 33 40 32 41
REMARK H PARENT 7 20 24 32
ROOT
ATOM      1  C   UNL     1      30.650  60.250  49.351  1.00  0.00     0.119 A 
ATOM      2  C   UNL     1      29.338  59.904  49.758  1.00  0.00     0.048 A 
ATOM      3  C   UNL     1      28.384  59.449  48.828  1.00  0.00     0.030 A 
ATOM      4  C   UNL     1      28.769  59.346  47.494  1.00  0.00     0.046 A 
ATOM      5  N   UNL     1      28.024  58.915  46.451  1.00  0.00    -0.356 N 
ATOM      6  C   UNL     1      28.850  58.972  45.384  1.00  0.00     0.055 A 
ATOM      7  C   UNL     1      30.093  59.462  45.737  1.00  0.00    -0.014 A 
ATOM      8  C   UNL     1      31.175  59.666  44.706  1.00  0.00     0.060 C 
ATOM      9  C   UNL     1      30.525  60.279  43.436  1.00  0.00     0.128 C 
ATOM     10  N   UNL     1      29.223  59.660  43.148  1.00  0.00    -0.304 N 
ATOM     11  C   UNL     1      28.336  60.094  42.226  1.00  0.00     0.332 C 
ATOM     12  O   UNL     1      28.596  60.977  41.423  1.00  0.00    -0.247 OA
ATOM     13  N   UNL     1      27.119  59.499  42.338  1.00  0.00    -0.230 N 
ATOM     14  C   UNL     1      27.194  58.667  43.414  1.00  0.00     0.267 C 
ATOM     15  O   UNL     1      26.284  57.946  43.797  1.00  0.00    -0.271 OA
ATOM     16  C   UNL     1      28.599  58.620  43.947  1.00  0.00     0.161 C 
ATOM     17  C   UNL     1      29.185  57.229  43.625  1.00  0.00     0.053 C 
ATOM     18  C   UNL     1      30.041  59.692  47.089  1.00  0.00     0.007 A 
ATOM     19  C   UNL     1      31.005  60.151  47.981  1.00  0.00     0.057 A 
ATOM     20  H   UNL     1      27.031  58.591  46.470  1.00  0.00     0.166 HD
ENDROOT
BRANCH   1  21
ATOM     21  O   UNL     1      31.532  60.656  50.301  1.00  0.00    -0.497 OA
ATOM     22  C   UNL     1      32.410  61.714  50.182  1.00  0.00     0.278 C 
ENDBRANCH   1  21
BRANCH  13  23
ATOM     23  C   UNL     1      25.990  59.667  41.457  1.00  0.00     0.054 A 
ATOM     24  C   UNL     1      25.029  60.664  41.722  1.00  0.00     0.028 A 
ATOM     25  C   UNL     1      25.842  58.914  40.271  1.00  0.00     0.028 A 
ATOM     26  C   UNL     1      23.993  60.925  40.828  1.00  0.00     0.016 A 
ATOM     27  C   UNL     1      24.782  59.158  39.385  1.00  0.00     0.016 A 
ATOM     28  C   UNL     1      23.852  60.183  39.643  1.00  0.00     0.040 A 
BRANCH  28  29
ATOM     29  C   UNL     1      22.767  60.552  38.681  1.00  0.00     0.255 C 
ATOM     30  O   UNL     1      21.646  60.109  38.889  1.00  0.00    -0.269 OA
ATOM     31  N   UNL     1      22.998  61.330  37.579  1.00  0.00    -0.322 N 
ATOM     32  H   UNL     1      23.971  61.557  37.332  1.00  0.00     0.170 HD
BRANCH  31  33
ATOM     33  C   UNL     1      21.981  61.807  36.689  1.00  0.00     0.045 A 
ATOM     34  C   UNL     1      21.367  63.060  36.953  1.00  0.00     0.030 A 
ATOM     35  C   UNL     1      21.531  61.048  35.573  1.00  0.00     0.076 A 
ATOM     36  C   UNL     1      20.351  63.560  36.114  1.00  0.00     0.053 A 
ATOM     37  C   UNL     1      20.510  61.573  34.786  1.00  0.00     0.167 A 
ATOM     38  C   UNL     1      19.952  62.772  35.041  1.00  0.00     0.165 A 
ATOM     39  O   UNL     1      19.923  61.029  33.718  1.00  0.00    -0.454 OA
ATOM     40  O   UNL     1      19.003  63.017  34.132  1.00  0.00    -0.454 OA
ATOM     41  C   UNL     1      18.949  61.920  33.275  1.00  0.00     0.468 C 
ENDBRANCH  31  33
ENDBRANCH  28  29
ENDBRANCH  13  23
TORSDOF 4
ENDMDL
MODEL 7
REMARK VINA RESULT:   -11.083      2.445      3.421
REMARK INTER + INTRA:         -14.456
REMARK INTER:                 -13.699
REMARK INTRA:                  -0.756
REMARK UNBOUND:                -0.781
REMARK SMILES COc1ccc2[nH]c3c(c2c1)CCN1C(=O)N(c2ccc(C(=O)Nc4ccc5c(c4)OCO5)cc2)C(=O)[C@]31C
REMARK SMILES IDX 3 1 4 2 5 3 6 4 7 5 8 6 9 7 12 8 13 9 14 10 15 11 16 12
REMARK SMILES IDX 17 13 36 14 37 15 38 16 39 17 10 18 11 19 2 21 1 22 18 23
REMARK SMILES IDX 19 24 35 25 20 26 34 27 21 28 22 29 23 30 24 31 25 33 26 34
REMARK SMILES IDX 30 35 27 36 29 37 28 38 31 39 33 40 32 41
REMARK H PARENT 7 20 24 32
ROOT
ATOM      1  C   UNL     1      32.560  57.008  45.400  1.00  0.00     0.119 A 
ATOM      2  C   UNL     1      33.081  57.900  44.432  1.00  0.00     0.048 A 
ATOM      3  C   UNL     1      32.242  58.791  43.737  1.00  0.00     0.030 A 
ATOM      4  C   UNL     1      30.881  58.772  44.031  1.00  0.00     0.046 A 
ATOM      5  N   UNL     1      29.911  59.550  43.500  1.00  0.00    -0.356 N 
ATOM      6  C   UNL     1      28.776  59.171  44.128  1.00  0.00     0.055 A 
ATOM      7  C   UNL     1      29.016  58.145  45.022  1.00  0.00    -0.014 A 
ATOM      8  C   UNL     1      27.894  57.515  45.809  1.00  0.00     0.060 C 
ATOM      9  C   UNL     1      26.677  57.336  44.862  1.00  0.00     0.128 C 
ATOM     10  N   UNL     1      26.508  58.501  43.980  1.00  0.00    -0.304 N 
ATOM     11  C   UNL     1      25.661  58.573  42.931  1.00  0.00     0.332 C 
ATOM     12  O   UNL     1      24.828  57.712  42.693  1.00  0.00    -0.247 OA
ATOM     13  N   UNL     1      25.884  59.658  42.142  1.00  0.00    -0.230 N 
ATOM     14  C   UNL     1      26.959  60.305  42.670  1.00  0.00     0.267 C 
ATOM     15  O   UNL     1      27.427  61.345  42.229  1.00  0.00    -0.271 OA
ATOM     16  C   UNL     1      27.371  59.671  43.969  1.00  0.00     0.161 C 
ATOM     17  C   UNL     1      27.016  60.648  45.111  1.00  0.00     0.053 C 
ATOM     18  C   UNL     1      30.365  57.897  44.964  1.00  0.00     0.007 A 
ATOM     19  C   UNL     1      31.166  57.000  45.664  1.00  0.00     0.057 A 
ATOM     20  H   UNL     1      30.018  60.295  42.776  1.00  0.00     0.166 HD
ENDROOT
BRANCH   1  21
ATOM     21  O   UNL     1      33.426  56.193  46.057  1.00  0.00    -0.497 OA
ATOM     22  C   UNL     1      34.655  55.778  45.582  1.00  0.00     0.278 C 
ENDBRANCH   1  21
BRANCH  13  23
ATOM     23  C   UNL     1      25.101  60.075  41.005  1.00  0.00     0.054 A 
ATOM     24  C   UNL     1      24.010  60.952  41.181  1.00  0.00     0.028 A 
ATOM     25  C   UNL     1      25.432  59.701  39.685  1.00  0.00     0.028 A 
ATOM     26  C   UNL     1      23.309  61.462  40.091  1.00  0.00     0.016 A 
ATOM     27  C   UNL     1      24.707  60.191  38.588  1.00  0.00     0.016 A 
ATOM     28  C   UNL     1      23.646  61.097  38.777  1.00  0.00     0.040 A 
BRANCH  28  29
ATOM     29  C   UNL     1      22.910  61.730  37.637  1.00  0.00     0.255 C 
ATOM     30  O   UNL     1      23.542  62.460  36.886  1.00  0.00    -0.269 OA
ATOM     31  N   UNL     1      21.570  61.540  37.435  1.00  0.00    -0.322 N 
ATOM     32  H   UNL     1      21.025  61.058  38.164  1.00  0.00     0.170 HD
BRANCH  31  33
ATOM     33  C   UNL     1      20.839  62.025  36.302  1.00  0.00     0.045 A 
ATOM     34  C   UNL     1      20.804  61.241  35.118  1.00  0.00     0.030 A 
ATOM     35  C   UNL     1      20.183  63.288  36.304  1.00  0.00     0.076 A 
ATOM     36  C   UNL     1      20.111  61.687  33.975  1.00  0.00     0.053 A 
ATOM     37  C   UNL     1      19.530  63.694  35.145  1.00  0.00     0.167 A 
ATOM     38  C   UNL     1      19.492  62.930  34.037  1.00  0.00     0.165 A 
ATOM     39  O   UNL     1      18.878  64.837  34.917  1.00  0.00    -0.454 OA
ATOM     40  O   UNL     1      18.805  63.569  33.085  1.00  0.00    -0.454 OA
ATOM     41  C   UNL     1      18.405  64.797  33.609  1.00  0.00     0.468 C 
ENDBRANCH  31  33
ENDBRANCH  28  29
ENDBRANCH  13  23
TORSDOF 4
ENDMDL
MODEL 8
REMARK VINA RESULT:   -11.059      3.374     13.892
REMARK INTER + INTRA:         -14.426
REMARK INTER:                 -13.789
REMARK INTRA:                  -0.637
REMARK UNBOUND:                -0.781
REMARK SMILES COc1ccc2[nH]c3c(c2c1)CCN1C(=O)N(c2ccc(C(=O)Nc4ccc5c(c4)OCO5)cc2)C(=O)[C@]31C
REMARK SMILES IDX 3 1 4 2 5 3 6 4 7 5 8 6 9 7 12 8 13 9 14 10 15 11 16 12
REMARK SMILES IDX 17 13 36 14 37 15 38 16 39 17 10 18 11 19 2 21 1 22 18 23
REMARK SMILES IDX 19 24 35 25 20 26 34 27 21 28 22 29 23 30 24 31 25 33 26 34
REMARK SMILES IDX 30 35 27 36 29 37 28 38 31 39 33 40 32 41
REMARK H PARENT 7 20 24 32
ROOT
ATOM      1  C   UNL     1      23.408  60.887  38.381  1.00  0.00     0.119 A 
ATOM      2  C   UNL     1      23.353  62.147  39.026  1.00  0.00     0.048 A 
ATOM      3  C   UNL     1      24.245  62.473  40.065  1.00  0.00     0.030 A 
ATOM      4  C   UNL     1      25.188  61.519  40.439  1.00  0.00     0.046 A 
ATOM      5  N   UNL     1      26.143  61.633  41.390  1.00  0.00    -0.356 N 
ATOM      6  C   UNL     1      26.816  60.462  41.351  1.00  0.00     0.055 A 
ATOM      7  C   UNL     1      26.276  59.603  40.411  1.00  0.00    -0.014 A 
ATOM      8  C   UNL     1      26.825  58.212  40.217  1.00  0.00     0.060 C 
ATOM      9  C   UNL     1      27.121  57.607  41.616  1.00  0.00     0.128 C 
ATOM     10  N   UNL     1      27.717  58.605  42.516  1.00  0.00    -0.304 N 
ATOM     11  C   UNL     1      27.920  58.443  43.842  1.00  0.00     0.332 C 
ATOM     12  O   UNL     1      27.758  57.374  44.408  1.00  0.00    -0.247 OA
ATOM     13  N   UNL     1      28.248  59.601  44.474  1.00  0.00    -0.230 N 
ATOM     14  C   UNL     1      28.214  60.580  43.529  1.00  0.00     0.267 C 
ATOM     15  O   UNL     1      28.484  61.755  43.738  1.00  0.00    -0.271 OA
ATOM     16  C   UNL     1      27.984  59.990  42.166  1.00  0.00     0.161 C 
ATOM     17  C   UNL     1      29.292  60.129  41.359  1.00  0.00     0.053 C 
ATOM     18  C   UNL     1      25.240  60.286  39.823  1.00  0.00     0.007 A 
ATOM     19  C   UNL     1      24.369  59.930  38.798  1.00  0.00     0.057 A 
ATOM     20  H   UNL     1      26.332  62.454  42.007  1.00  0.00     0.166 HD
ENDROOT
BRANCH   1  21
ATOM     21  O   UNL     1      22.537  60.644  37.367  1.00  0.00    -0.497 OA
ATOM     22  C   UNL     1      22.880  60.219  36.099  1.00  0.00     0.278 C 
ENDBRANCH   1  21
BRANCH  13  23
ATOM     23  C   UNL     1      28.619  59.753  45.859  1.00  0.00     0.054 A 
ATOM     24  C   UNL     1      27.638  59.665  46.868  1.00  0.00     0.028 A 
ATOM     25  C   UNL     1      29.962  59.911  46.266  1.00  0.00     0.028 A 
ATOM     26  C   UNL     1      27.983  59.693  48.217  1.00  0.00     0.016 A 
ATOM     27  C   UNL     1      30.307  59.969  47.625  1.00  0.00     0.016 A 
ATOM     28  C   UNL     1      29.320  59.839  48.621  1.00  0.00     0.040 A 
BRANCH  28  29
ATOM     29  C   UNL     1      29.648  59.789  50.081  1.00  0.00     0.255 C 
ATOM     30  O   UNL     1      30.469  60.588  50.509  1.00  0.00    -0.269 OA
ATOM     31  N   UNL     1      29.085  58.872  50.926  1.00  0.00    -0.322 N 
ATOM     32  H   UNL     1      28.524  58.109  50.523  1.00  0.00     0.170 HD
BRANCH  31  33
ATOM     33  C   UNL     1      29.273  58.849  52.347  1.00  0.00     0.045 A 
ATOM     34  C   UNL     1      30.016  57.786  52.927  1.00  0.00     0.030 A 
ATOM     35  C   UNL     1      28.701  59.829  53.206  1.00  0.00     0.076 A 
ATOM     36  C   UNL     1      30.210  57.714  54.320  1.00  0.00     0.053 A 
ATOM     37  C   UNL     1      28.903  59.704  54.576  1.00  0.00     0.167 A 
ATOM     38  C   UNL     1      29.626  58.699  55.107  1.00  0.00     0.165 A 
ATOM     39  O   UNL     1      28.444  60.485  55.557  1.00  0.00    -0.454 OA
ATOM     40  O   UNL     1      29.649  58.829  56.437  1.00  0.00    -0.454 OA
ATOM     41  C   UNL     1      28.895  59.955  56.762  1.00  0.00     0.468 C 
ENDBRANCH  31  33
ENDBRANCH  28  29
ENDBRANCH  13  23
TORSDOF 4
ENDMDL
MODEL 9
REMARK VINA RESULT:   -10.971      4.784      6.319
REMARK INTER + INTRA:         -14.317
REMARK INTER:                 -13.535
REMARK INTRA:                  -0.782
REMARK UNBOUND:                -0.781
REMARK SMILES COc1ccc2[nH]c3c(c2c1)CCN1C(=O)N(c2ccc(C(=O)Nc4ccc5c(c4)OCO5)cc2)C(=O)[C@]31C
REMARK SMILES IDX 3 1 4 2 5 3 6 4 7 5 8 6 9 7 12 8 13 9 14 10 15 11 16 12
REMARK SMILES IDX 17 13 36 14 37 15 38 16 39 17 10 18 11 19 2 21 1 22 18 23
REMARK SMILES IDX 19 24 35 25 20 26 34 27 21 28 22 29 23 30 24 31 25 33 26 34
REMARK SMILES IDX 30 35 27 36 29 37 28 38 31 39 33 40 32 41
REMARK H PARENT 7 20 24 32
ROOT
ATOM      1  C   UNL     1      36.294  55.205  44.216  1.00  0.00     0.119 A 
ATOM      2  C   UNL     1      36.394  56.609  44.065  1.00  0.00     0.048 A 
ATOM      3  C   UNL     1      35.243  57.419  44.010  1.00  0.00     0.030 A 
ATOM      4  C   UNL     1      34.002  56.797  44.111  1.00  0.00     0.046 A 
ATOM      5  N   UNL     1      32.783  57.382  44.102  1.00  0.00    -0.356 N 
ATOM      6  C   UNL     1      31.906  56.367  44.257  1.00  0.00     0.055 A 
ATOM      7  C   UNL     1      32.556  55.149  44.332  1.00  0.00    -0.014 A 
ATOM      8  C   UNL     1      31.786  53.858  44.456  1.00  0.00     0.060 C 
ATOM      9  C   UNL     1      30.561  53.930  43.505  1.00  0.00     0.128 C 
ATOM     10  N   UNL     1      29.939  55.262  43.532  1.00  0.00    -0.304 N 
ATOM     11  C   UNL     1      28.975  55.694  42.690  1.00  0.00     0.332 C 
ATOM     12  O   UNL     1      28.410  54.956  41.898  1.00  0.00    -0.247 OA
ATOM     13  N   UNL     1      28.759  57.034  42.773  1.00  0.00    -0.230 N 
ATOM     14  C   UNL     1      29.656  57.514  43.679  1.00  0.00     0.267 C 
ATOM     15  O   UNL     1      29.732  58.684  44.025  1.00  0.00    -0.271 OA
ATOM     16  C   UNL     1      30.407  56.385  44.327  1.00  0.00     0.161 C 
ATOM     17  C   UNL     1      29.936  56.278  45.793  1.00  0.00     0.053 C 
ATOM     18  C   UNL     1      33.897  55.429  44.247  1.00  0.00     0.007 A 
ATOM     19  C   UNL     1      35.014  54.600  44.298  1.00  0.00     0.057 A 
ATOM     20  H   UNL     1      32.567  58.400  44.013  1.00  0.00     0.166 HD
ENDROOT
BRANCH   1  21
ATOM     21  O   UNL     1      37.443  54.483  44.291  1.00  0.00    -0.497 OA
ATOM     22  C   UNL     1      37.586  53.161  43.923  1.00  0.00     0.278 C 
ENDBRANCH   1  21
BRANCH  13  23
ATOM     23  C   UNL     1      27.742  57.789  42.084  1.00  0.00     0.054 A 
ATOM     24  C   UNL     1      27.992  58.299  40.793  1.00  0.00     0.028 A 
ATOM     25  C   UNL     1      26.451  57.979  42.623  1.00  0.00     0.028 A 
ATOM     26  C   UNL     1      26.991  58.932  40.060  1.00  0.00     0.016 A 
ATOM     27  C   UNL     1      25.451  58.642  41.896  1.00  0.00     0.016 A 
ATOM     28  C   UNL     1      25.704  59.110  40.592  1.00  0.00     0.040 A 
BRANCH  28  29
ATOM     29  C   UNL     1      24.643  59.730  39.736  1.00  0.00     0.255 C 
ATOM     30  O   UNL     1      23.546  59.924  40.239  1.00  0.00    -0.269 OA
ATOM     31  N   UNL     1      24.858  60.049  38.422  1.00  0.00    -0.322 N 
ATOM     32  H   UNL     1      25.728  59.732  37.973  1.00  0.00     0.170 HD
BRANCH  31  33
ATOM     33  C   UNL     1      23.922  60.745  37.589  1.00  0.00     0.045 A 
ATOM     34  C   UNL     1      23.947  62.165  37.562  1.00  0.00     0.030 A 
ATOM     35  C   UNL     1      22.936  60.065  36.821  1.00  0.00     0.076 A 
ATOM     36  C   UNL     1      23.034  62.890  36.771  1.00  0.00     0.053 A 
ATOM     37  C   UNL     1      22.043  60.825  36.072  1.00  0.00     0.167 A 
ATOM     38  C   UNL     1      22.093  62.170  36.044  1.00  0.00     0.165 A 
ATOM     39  O   UNL     1      21.034  60.403  35.306  1.00  0.00    -0.454 OA
ATOM     40  O   UNL     1      21.121  62.630  35.251  1.00  0.00    -0.454 OA
ATOM     41  C   UNL     1      20.417  61.529  34.768  1.00  0.00     0.468 C 
ENDBRANCH  31  33
ENDBRANCH  28  29
ENDBRANCH  13  23
TORSDOF 4
ENDMDL
