MODEL 1
REMARK VINA RESULT:   -13.863      0.000      0.000
REMARK INTER + INTRA:         -24.485
REMARK INTER:                 -23.588
REMARK INTRA:                  -0.897
REMARK UNBOUND:                -0.897
REMARK SMILES CC1=C(C)C(=O)O[C@@H]([C@@](C)(O)[C@H]2CC=C3[C@@H]4CC=C5C[C@@H](O[C@H]6O[C@@H](CO[C@@H]7O[C@H](CO)[C@H](O)[C@H](O)[C@@H]7O)[C@H](O)[C@@H](O)[C@@H]6O)CC(=O)[C@@]5(C)[C@@H]4CC[C@]32C)C1
REMARK SMILES IDX 23 1 24 2 25 3 39 4 41 5 43 6 22 7 21 8 12 9 13 10 53 11
REMARK SMILES IDX 14 12 52 13 15 14 51 15 16 16 50 17 17 18 48 19 18 20 46 21
REMARK SMILES IDX 19 22 45 23 47 24 20 25 54 26 49 27 9 28 10 29 8 30 2 31
REMARK SMILES IDX 3 32 55 33 5 34 6 35 7 36 1 37 4 38 11 39 44 41 26 43 27 44
REMARK SMILES IDX 28 45 29 46 37 47 30 48 35 49 33 50 38 51 31 53 32 54 36 56
REMARK SMILES IDX 34 58 42 60 40 62
REMARK H PARENT 11 40 44 42 38 52 32 55 36 57 34 59 42 61 40 63
ROOT
ATOM      1  C   UNL     1      23.498  60.876  39.648  1.00  0.00     0.282 C 
ATOM      2  O   UNL     1      23.469  61.345  38.293  1.00  0.00    -0.341 OA
ATOM      3  C   UNL     1      22.669  62.498  38.132  1.00  0.00     0.178 C 
ATOM      4  C   UNL     1      21.164  62.143  38.349  1.00  0.00     0.177 C 
ATOM      5  C   UNL     1      20.972  61.146  39.535  1.00  0.00     0.179 C 
ATOM      6  C   UNL     1      22.199  61.153  40.476  1.00  0.00     0.202 C 
ENDROOT
BRANCH   1   7
ATOM      7  O   UNL     1      23.657  59.465  39.583  1.00  0.00    -0.346 OA
BRANCH   7   8
ATOM      8  C   UNL     1      24.923  59.006  40.035  1.00  0.00     0.133 C 
ATOM      9  C   UNL     1      31.683  57.560  45.108  1.00  0.00     0.038 C 
ATOM     10  C   UNL     1      30.939  57.018  46.358  1.00  0.00     0.035 C 
ATOM     11  C   UNL     1      30.691  57.098  43.968  1.00  0.00    -0.005 C 
ATOM     12  C   UNL     1      29.511  57.260  45.978  1.00  0.00    -0.026 C 
ATOM     13  C   UNL     1      30.737  57.800  42.573  1.00  0.00     0.012 C 
ATOM     14  C   UNL     1      29.375  57.298  44.649  1.00  0.00    -0.064 C 
ATOM     15  C   UNL     1      29.859  59.062  42.504  1.00  0.00     0.006 C 
ATOM     16  C   UNL     1      28.110  57.675  43.921  1.00  0.00     0.023 C 
ATOM     17  C   UNL     1      28.341  58.764  42.783  1.00  0.00     0.014 C 
ATOM     18  C   UNL     1      27.405  56.417  43.391  1.00  0.00     0.035 C 
ATOM     19  C   UNL     1      27.457  58.532  41.468  1.00  0.00     0.051 C 
ATOM     20  C   UNL     1      26.115  56.880  42.781  1.00  0.00    -0.026 C 
ATOM     21  C   UNL     1      27.209  59.859  40.728  1.00  0.00     0.145 C 
ATOM     22  C   UNL     1      26.116  57.898  41.896  1.00  0.00    -0.058 C 
ATOM     23  C   UNL     1      25.905  60.179  40.031  1.00  0.00     0.109 C 
ATOM     24  O   UNL     1      28.082  60.712  40.691  1.00  0.00    -0.299 OA
ATOM     25  C   UNL     1      24.785  58.456  41.443  1.00  0.00     0.064 C 
ATOM     26  C   UNL     1      30.922  55.576  43.699  1.00  0.00     0.016 C 
ATOM     27  C   UNL     1      28.130  57.606  40.417  1.00  0.00     0.025 C 
BRANCH   9  28
ATOM     28  C   UNL     1      32.047  59.107  45.304  1.00  0.00     0.103 C 
ATOM     29  C   UNL     1      30.975  59.891  46.130  1.00  0.00     0.046 C 
BRANCH  28  30
ATOM     30  C   UNL     1      33.426  59.227  46.064  1.00  0.00     0.212 C 
ATOM     31  C   UNL     1      35.891  58.791  46.140  1.00  0.00    -0.059 C 
ATOM     32  C   UNL     1      36.041  59.919  46.899  1.00  0.00     0.033 C 
ATOM     33  C   UNL     1      34.634  58.641  45.298  1.00  0.00     0.079 C 
ATOM     34  C   UNL     1      34.913  60.897  46.905  1.00  0.00     0.334 C 
ATOM     35  O   UNL     1      35.033  61.992  47.431  1.00  0.00    -0.247 OA
ATOM     36  O   UNL     1      33.727  60.554  46.339  1.00  0.00    -0.456 OA
ATOM     37  C   UNL     1      36.890  57.658  46.043  1.00  0.00     0.040 C 
ATOM     38  C   UNL     1      37.246  60.242  47.756  1.00  0.00     0.052 C 
ENDBRANCH  28  30
BRANCH  28  39
ATOM     39  O   UNL     1      32.196  59.700  44.035  1.00  0.00    -0.386 OA
ATOM     40  H   UNL     1      31.994  59.017  43.343  1.00  0.00     0.211 HD
ENDBRANCH  28  39
ENDBRANCH   9  28
ENDBRANCH   7   8
ENDBRANCH   1   7
BRANCH   6  41
ATOM     41  O   UNL     1      22.312  62.323  41.256  1.00  0.00    -0.385 OA
ATOM     42  H   UNL     1      23.213  62.708  41.192  1.00  0.00     0.211 HD
ENDBRANCH   6  41
BRANCH   3  43
ATOM     43  C   UNL     1      22.907  63.106  36.746  1.00  0.00     0.198 C 
BRANCH  43  44
ATOM     44  O   UNL     1      22.885  62.065  35.793  1.00  0.00    -0.347 OA
BRANCH  44  45
ATOM     45  C   UNL     1      21.790  62.182  34.902  1.00  0.00     0.282 C 
ATOM     46  O   UNL     1      20.902  63.151  35.444  1.00  0.00    -0.341 OA
ATOM     47  C   UNL     1      21.086  60.798  34.786  1.00  0.00     0.202 C 
ATOM     48  C   UNL     1      19.808  63.387  34.567  1.00  0.00     0.178 C 
ATOM     49  C   UNL     1      19.835  60.969  33.902  1.00  0.00     0.179 C 
ATOM     50  C   UNL     1      18.935  62.105  34.434  1.00  0.00     0.177 C 
BRANCH  47  51
ATOM     51  O   UNL     1      20.731  60.246  36.037  1.00  0.00    -0.385 OA
ATOM     52  H   UNL     1      20.223  60.906  36.576  1.00  0.00     0.211 HD
ENDBRANCH  47  51
BRANCH  48  53
ATOM     53  C   UNL     1      19.002  64.581  35.100  1.00  0.00     0.191 C 
BRANCH  53  54
ATOM     54  O   UNL     1      18.531  64.334  36.397  1.00  0.00    -0.394 OA
ATOM     55  H   UNL     1      19.325  64.341  36.993  1.00  0.00     0.210 HD
ENDBRANCH  53  54
ENDBRANCH  48  53
BRANCH  49  56
ATOM     56  O   UNL     1      19.128  59.763  33.742  1.00  0.00    -0.387 OA
ATOM     57  H   UNL     1      19.152  59.276  34.606  1.00  0.00     0.211 HD
ENDBRANCH  49  56
BRANCH  50  58
ATOM     58  O   UNL     1      18.311  61.746  35.648  1.00  0.00    -0.387 OA
ATOM     59  H   UNL     1      18.021  60.799  35.603  1.00  0.00     0.211 HD
ENDBRANCH  50  58
ENDBRANCH  44  45
ENDBRANCH  43  44
ENDBRANCH   3  43
BRANCH   5  60
ATOM     60  O   UNL     1      20.773  59.834  39.053  1.00  0.00    -0.387 OA
ATOM     61  H   UNL     1      20.379  59.877  38.144  1.00  0.00     0.211 HD
ENDBRANCH   5  60
BRANCH   4  62
ATOM     62  O   UNL     1      20.376  63.301  38.492  1.00  0.00    -0.387 OA
ATOM     63  H   UNL     1      19.450  63.088  38.221  1.00  0.00     0.211 HD
ENDBRANCH   4  62
TORSDOF 16
ENDMDL
MODEL 2
REMARK VINA RESULT:   -13.550      1.700      2.429
REMARK INTER + INTRA:         -23.952
REMARK INTER:                 -22.645
REMARK INTRA:                  -1.308
REMARK UNBOUND:                -0.897
REMARK SMILES CC1=C(C)C(=O)O[C@@H]([C@@](C)(O)[C@H]2CC=C3[C@@H]4CC=C5C[C@@H](O[C@H]6O[C@@H](CO[C@@H]7O[C@H](CO)[C@H](O)[C@H](O)[C@@H]7O)[C@H](O)[C@@H](O)[C@@H]6O)CC(=O)[C@@]5(C)[C@@H]4CC[C@]32C)C1
REMARK SMILES IDX 23 1 24 2 25 3 39 4 41 5 43 6 22 7 21 8 12 9 13 10 53 11
REMARK SMILES IDX 14 12 52 13 15 14 51 15 16 16 50 17 17 18 48 19 18 20 46 21
REMARK SMILES IDX 19 22 45 23 47 24 20 25 54 26 49 27 9 28 10 29 8 30 2 31
REMARK SMILES IDX 3 32 55 33 5 34 6 35 7 36 1 37 4 38 11 39 44 41 26 43 27 44
REMARK SMILES IDX 28 45 29 46 37 47 30 48 35 49 33 50 38 51 31 53 32 54 36 56
REMARK SMILES IDX 34 58 42 60 40 62
REMARK H PARENT 11 40 44 42 38 52 32 55 36 57 34 59 42 61 40 63
ROOT
ATOM      1  C   UNL     1      23.657  61.093  39.692  1.00  0.00     0.282 C 
ATOM      2  O   UNL     1      23.618  61.525  38.324  1.00  0.00    -0.341 OA
ATOM      3  C   UNL     1      22.679  62.556  38.104  1.00  0.00     0.178 C 
ATOM      4  C   UNL     1      21.228  62.007  38.277  1.00  0.00     0.177 C 
ATOM      5  C   UNL     1      21.124  61.020  39.483  1.00  0.00     0.179 C 
ATOM      6  C   UNL     1      22.302  61.211  40.466  1.00  0.00     0.202 C 
ENDROOT
BRANCH   1   7
ATOM      7  O   UNL     1      24.006  59.716  39.670  1.00  0.00    -0.346 OA
BRANCH   7   8
ATOM      8  C   UNL     1      24.787  59.300  40.782  1.00  0.00     0.133 C 
ATOM      9  C   UNL     1      31.484  58.185  46.019  1.00  0.00     0.038 C 
ATOM     10  C   UNL     1      31.965  59.658  46.116  1.00  0.00     0.035 C 
ATOM     11  C   UNL     1      29.936  58.410  45.788  1.00  0.00    -0.005 C 
ATOM     12  C   UNL     1      31.090  60.321  45.098  1.00  0.00    -0.026 C 
ATOM     13  C   UNL     1      29.075  57.268  45.161  1.00  0.00     0.012 C 
ATOM     14  C   UNL     1      29.961  59.629  44.922  1.00  0.00    -0.064 C 
ATOM     15  C   UNL     1      29.071  57.291  43.622  1.00  0.00     0.006 C 
ATOM     16  C   UNL     1      28.926  59.920  43.866  1.00  0.00     0.023 C 
ATOM     17  C   UNL     1      28.498  58.631  43.034  1.00  0.00     0.014 C 
ATOM     18  C   UNL     1      27.721  60.643  44.484  1.00  0.00     0.035 C 
ATOM     19  C   UNL     1      26.940  58.581  42.665  1.00  0.00     0.051 C 
ATOM     20  C   UNL     1      26.801  60.982  43.349  1.00  0.00    -0.026 C 
ATOM     21  C   UNL     1      26.702  57.752  41.389  1.00  0.00     0.145 C 
ATOM     22  C   UNL     1      26.448  60.030  42.461  1.00  0.00    -0.058 C 
ATOM     23  C   UNL     1      25.654  58.112  40.359  1.00  0.00     0.109 C 
ATOM     24  O   UNL     1      27.377  56.759  41.170  1.00  0.00    -0.299 OA
ATOM     25  C   UNL     1      25.672  60.448  41.232  1.00  0.00     0.064 C 
ATOM     26  C   UNL     1      29.277  58.751  47.163  1.00  0.00     0.016 C 
ATOM     27  C   UNL     1      26.060  57.907  43.753  1.00  0.00     0.025 C 
BRANCH   9  28
ATOM     28  C   UNL     1      32.366  57.379  44.952  1.00  0.00     0.103 C 
ATOM     29  C   UNL     1      32.182  57.897  43.488  1.00  0.00     0.046 C 
BRANCH  28  30
ATOM     30  C   UNL     1      33.894  57.518  45.327  1.00  0.00     0.212 C 
ATOM     31  C   UNL     1      35.809  56.918  46.824  1.00  0.00    -0.059 C 
ATOM     32  C   UNL     1      36.657  57.080  45.763  1.00  0.00     0.033 C 
ATOM     33  C   UNL     1      34.332  56.680  46.549  1.00  0.00     0.079 C 
ATOM     34  C   UNL     1      36.051  57.087  44.397  1.00  0.00     0.334 C 
ATOM     35  O   UNL     1      36.754  57.074  43.399  1.00  0.00    -0.247 OA
ATOM     36  O   UNL     1      34.700  57.137  44.264  1.00  0.00    -0.456 OA
ATOM     37  C   UNL     1      36.215  56.936  48.283  1.00  0.00     0.040 C 
ATOM     38  C   UNL     1      38.153  57.282  45.862  1.00  0.00     0.052 C 
ENDBRANCH  28  30
BRANCH  28  39
ATOM     39  O   UNL     1      32.022  56.016  45.021  1.00  0.00    -0.386 OA
ATOM     40  H   UNL     1      32.607  55.511  44.398  1.00  0.00     0.211 HD
ENDBRANCH  28  39
ENDBRANCH   9  28
ENDBRANCH   7   8
ENDBRANCH   1   7
BRANCH   6  41
ATOM     41  O   UNL     1      22.228  62.403  41.217  1.00  0.00    -0.385 OA
ATOM     42  H   UNL     1      23.064  62.915  41.156  1.00  0.00     0.211 HD
ENDBRANCH   6  41
BRANCH   3  43
ATOM     43  C   UNL     1      22.888  63.160  36.712  1.00  0.00     0.198 C 
BRANCH  43  44
ATOM     44  O   UNL     1      22.856  62.115  35.764  1.00  0.00    -0.347 OA
BRANCH  44  45
ATOM     45  C   UNL     1      21.757  62.232  34.878  1.00  0.00     0.282 C 
ATOM     46  O   UNL     1      20.859  63.182  35.438  1.00  0.00    -0.341 OA
ATOM     47  C   UNL     1      21.069  60.841  34.743  1.00  0.00     0.202 C 
ATOM     48  C   UNL     1      19.759  63.418  34.568  1.00  0.00     0.178 C 
ATOM     49  C   UNL     1      19.813  61.011  33.866  1.00  0.00     0.179 C 
ATOM     50  C   UNL     1      18.902  62.128  34.418  1.00  0.00     0.177 C 
BRANCH  47  51
ATOM     51  O   UNL     1      20.725  60.267  35.986  1.00  0.00    -0.385 OA
ATOM     52  H   UNL     1      21.297  59.478  36.175  1.00  0.00     0.211 HD
ENDBRANCH  47  51
BRANCH  48  53
ATOM     53  C   UNL     1      18.941  64.594  35.121  1.00  0.00     0.191 C 
BRANCH  53  54
ATOM     54  O   UNL     1      18.483  64.324  36.419  1.00  0.00    -0.394 OA
ATOM     55  H   UNL     1      19.282  64.334  37.009  1.00  0.00     0.210 HD
ENDBRANCH  53  54
ENDBRANCH  48  53
BRANCH  49  56
ATOM     56  O   UNL     1      19.120  59.799  33.690  1.00  0.00    -0.387 OA
ATOM     57  H   UNL     1      19.634  59.083  34.145  1.00  0.00     0.211 HD
ENDBRANCH  49  56
BRANCH  50  58
ATOM     58  O   UNL     1      18.286  61.742  35.628  1.00  0.00    -0.387 OA
ATOM     59  H   UNL     1      17.524  61.138  35.434  1.00  0.00     0.211 HD
ENDBRANCH  50  58
ENDBRANCH  44  45
ENDBRANCH  43  44
ENDBRANCH   3  43
BRANCH   5  60
ATOM     60  O   UNL     1      21.121  59.682  39.028  1.00  0.00    -0.387 OA
ATOM     61  H   UNL     1      20.507  59.603  38.253  1.00  0.00     0.211 HD
ENDBRANCH   5  60
BRANCH   4  62
ATOM     62  O   UNL     1      20.288  63.052  38.361  1.00  0.00    -0.387 OA
ATOM     63  H   UNL     1      20.676  63.861  37.947  1.00  0.00     0.211 HD
ENDBRANCH   4  62
TORSDOF 16
ENDMDL
MODEL 3
REMARK VINA RESULT:   -13.513      1.647      2.307
REMARK INTER + INTRA:         -23.889
REMARK INTER:                 -22.717
REMARK INTRA:                  -1.172
REMARK UNBOUND:                -0.897
REMARK SMILES CC1=C(C)C(=O)O[C@@H]([C@@](C)(O)[C@H]2CC=C3[C@@H]4CC=C5C[C@@H](O[C@H]6O[C@@H](CO[C@@H]7O[C@H](CO)[C@H](O)[C@H](O)[C@@H]7O)[C@H](O)[C@@H](O)[C@@H]6O)CC(=O)[C@@]5(C)[C@@H]4CC[C@]32C)C1
REMARK SMILES IDX 23 1 24 2 25 3 39 4 41 5 43 6 22 7 21 8 12 9 13 10 53 11
REMARK SMILES IDX 14 12 52 13 15 14 51 15 16 16 50 17 17 18 48 19 18 20 46 21
REMARK SMILES IDX 19 22 45 23 47 24 20 25 54 26 49 27 9 28 10 29 8 30 2 31
REMARK SMILES IDX 3 32 55 33 5 34 6 35 7 36 1 37 4 38 11 39 44 41 26 43 27 44
REMARK SMILES IDX 28 45 29 46 37 47 30 48 35 49 33 50 38 51 31 53 32 54 36 56
REMARK SMILES IDX 34 58 42 60 40 62
REMARK H PARENT 11 40 44 42 38 52 32 55 36 57 34 59 42 61 40 63
ROOT
ATOM      1  C   UNL     1      23.869  61.115  39.506  1.00  0.00     0.282 C 
ATOM      2  O   UNL     1      23.721  61.607  38.167  1.00  0.00    -0.341 OA
ATOM      3  C   UNL     1      22.713  62.590  38.056  1.00  0.00     0.178 C 
ATOM      4  C   UNL     1      21.309  61.949  38.287  1.00  0.00     0.177 C 
ATOM      5  C   UNL     1      21.336  60.902  39.446  1.00  0.00     0.179 C 
ATOM      6  C   UNL     1      22.561  61.117  40.365  1.00  0.00     0.202 C 
ENDROOT
BRANCH   1   7
ATOM      7  O   UNL     1      24.292  59.763  39.394  1.00  0.00    -0.346 OA
BRANCH   7   8
ATOM      8  C   UNL     1      25.354  59.415  40.272  1.00  0.00     0.133 C 
ATOM      9  C   UNL     1      29.690  57.698  47.468  1.00  0.00     0.038 C 
ATOM     10  C   UNL     1      28.706  56.681  48.108  1.00  0.00     0.035 C 
ATOM     11  C   UNL     1      29.403  57.438  45.935  1.00  0.00    -0.005 C 
ATOM     12  C   UNL     1      27.538  56.775  47.176  1.00  0.00    -0.026 C 
ATOM     13  C   UNL     1      29.787  58.526  44.882  1.00  0.00     0.012 C 
ATOM     14  C   UNL     1      27.929  57.190  45.968  1.00  0.00    -0.064 C 
ATOM     15  C   UNL     1      28.682  59.578  44.671  1.00  0.00     0.006 C 
ATOM     16  C   UNL     1      27.001  57.544  44.835  1.00  0.00     0.023 C 
ATOM     17  C   UNL     1      27.333  58.950  44.165  1.00  0.00     0.014 C 
ATOM     18  C   UNL     1      26.955  56.404  43.806  1.00  0.00     0.035 C 
ATOM     19  C   UNL     1      27.143  58.977  42.575  1.00  0.00     0.051 C 
ATOM     20  C   UNL     1      25.934  56.798  42.781  1.00  0.00    -0.026 C 
ATOM     21  C   UNL     1      26.832  60.402  42.081  1.00  0.00     0.145 C 
ATOM     22  C   UNL     1      25.987  58.020  42.213  1.00  0.00    -0.058 C 
ATOM     23  C   UNL     1      25.874  60.686  40.946  1.00  0.00     0.109 C 
ATOM     24  O   UNL     1      27.364  61.364  42.614  1.00  0.00    -0.299 OA
ATOM     25  C   UNL     1      24.840  58.449  41.324  1.00  0.00     0.064 C 
ATOM     26  C   UNL     1      30.150  56.134  45.507  1.00  0.00     0.016 C 
ATOM     27  C   UNL     1      28.410  58.545  41.786  1.00  0.00     0.025 C 
BRANCH   9  28
ATOM     28  C   UNL     1      29.484  59.151  48.108  1.00  0.00     0.103 C 
ATOM     29  C   UNL     1      29.075  59.106  49.617  1.00  0.00     0.046 C 
BRANCH  28  30
ATOM     30  C   UNL     1      30.832  59.966  47.996  1.00  0.00     0.212 C 
ATOM     31  C   UNL     1      32.548  61.450  49.057  1.00  0.00    -0.059 C 
ATOM     32  C   UNL     1      33.494  60.901  48.234  1.00  0.00     0.033 C 
ATOM     33  C   UNL     1      31.258  60.682  49.298  1.00  0.00     0.079 C 
ATOM     34  C   UNL     1      33.154  59.610  47.564  1.00  0.00     0.334 C 
ATOM     35  O   UNL     1      33.998  58.986  46.941  1.00  0.00    -0.247 OA
ATOM     36  O   UNL     1      31.882  59.138  47.628  1.00  0.00    -0.456 OA
ATOM     37  C   UNL     1      32.676  62.772  49.782  1.00  0.00     0.040 C 
ATOM     38  C   UNL     1      34.844  61.512  47.925  1.00  0.00     0.052 C 
ENDBRANCH  28  30
BRANCH  28  39
ATOM     39  O   UNL     1      28.500  59.834  47.368  1.00  0.00    -0.386 OA
ATOM     40  H   UNL     1      27.912  60.323  48.002  1.00  0.00     0.211 HD
ENDBRANCH  28  39
ENDBRANCH   9  28
ENDBRANCH   7   8
ENDBRANCH   1   7
BRANCH   6  41
ATOM     41  O   UNL     1      22.468  62.266  41.178  1.00  0.00    -0.385 OA
ATOM     42  H   UNL     1      21.887  62.107  41.954  1.00  0.00     0.211 HD
ENDBRANCH   6  41
BRANCH   3  43
ATOM     43  C   UNL     1      22.800  63.270  36.686  1.00  0.00     0.198 C 
BRANCH  43  44
ATOM     44  O   UNL     1      22.824  62.267  35.692  1.00  0.00    -0.347 OA
BRANCH  44  45
ATOM     45  C   UNL     1      21.698  62.340  34.835  1.00  0.00     0.282 C 
ATOM     46  O   UNL     1      20.772  63.244  35.426  1.00  0.00    -0.341 OA
ATOM     47  C   UNL     1      21.072  60.919  34.707  1.00  0.00     0.202 C 
ATOM     48  C   UNL     1      19.640  63.434  34.585  1.00  0.00     0.178 C 
ATOM     49  C   UNL     1      19.787  61.036  33.864  1.00  0.00     0.179 C 
ATOM     50  C   UNL     1      18.840  62.106  34.448  1.00  0.00     0.177 C 
BRANCH  47  51
ATOM     51  O   UNL     1      20.787  60.321  35.955  1.00  0.00    -0.385 OA
ATOM     52  H   UNL     1      21.578  60.370  36.552  1.00  0.00     0.211 HD
ENDBRANCH  47  51
BRANCH  48  53
ATOM     53  C   UNL     1      18.783  64.567  35.169  1.00  0.00     0.191 C 
BRANCH  53  54
ATOM     54  O   UNL     1      18.420  64.293  36.495  1.00  0.00    -0.394 OA
ATOM     55  H   UNL     1      18.220  65.167  36.920  1.00  0.00     0.210 HD
ENDBRANCH  53  54
ENDBRANCH  48  53
BRANCH  49  56
ATOM     56  O   UNL     1      19.147  59.795  33.696  1.00  0.00    -0.387 OA
ATOM     57  H   UNL     1      19.751  59.206  33.173  1.00  0.00     0.211 HD
ENDBRANCH  49  56
BRANCH  50  58
ATOM     58  O   UNL     1      18.274  61.685  35.670  1.00  0.00    -0.387 OA
ATOM     59  H   UNL     1      18.348  60.699  35.746  1.00  0.00     0.211 HD
ENDBRANCH  50  58
ENDBRANCH  44  45
ENDBRANCH  43  44
ENDBRANCH   3  43
BRANCH   5  60
ATOM     60  O   UNL     1      21.379  59.590  38.926  1.00  0.00    -0.387 OA
ATOM     61  H   UNL     1      21.759  58.980  39.610  1.00  0.00     0.211 HD
ENDBRANCH   5  60
BRANCH   4  62
ATOM     62  O   UNL     1      20.319  62.932  38.480  1.00  0.00    -0.387 OA
ATOM     63  H   UNL     1      19.450  62.482  38.619  1.00  0.00     0.211 HD
ENDBRANCH   4  62
TORSDOF 16
ENDMDL
MODEL 4
REMARK VINA RESULT:   -13.506      2.666      3.272
REMARK INTER + INTRA:         -23.878
REMARK INTER:                 -22.651
REMARK INTRA:                  -1.227
REMARK UNBOUND:                -0.897
REMARK SMILES CC1=C(C)C(=O)O[C@@H]([C@@](C)(O)[C@H]2CC=C3[C@@H]4CC=C5C[C@@H](O[C@H]6O[C@@H](CO[C@@H]7O[C@H](CO)[C@H](O)[C@H](O)[C@@H]7O)[C@H](O)[C@@H](O)[C@@H]6O)CC(=O)[C@@]5(C)[C@@H]4CC[C@]32C)C1
REMARK SMILES IDX 23 1 24 2 25 3 39 4 41 5 43 6 22 7 21 8 12 9 13 10 53 11
REMARK SMILES IDX 14 12 52 13 15 14 51 15 16 16 50 17 17 18 48 19 18 20 46 21
REMARK SMILES IDX 19 22 45 23 47 24 20 25 54 26 49 27 9 28 10 29 8 30 2 31
REMARK SMILES IDX 3 32 55 33 5 34 6 35 7 36 1 37 4 38 11 39 44 41 26 43 27 44
REMARK SMILES IDX 28 45 29 46 37 47 30 48 35 49 33 50 38 51 31 53 32 54 36 56
REMARK SMILES IDX 34 58 42 60 40 62
REMARK H PARENT 11 40 44 42 38 52 32 55 36 57 34 59 42 61 40 63
ROOT
ATOM      1  C   UNL     1      23.752  61.143  39.593  1.00  0.00     0.282 C 
ATOM      2  O   UNL     1      23.643  61.619  38.244  1.00  0.00    -0.341 OA
ATOM      3  C   UNL     1      22.647  62.609  38.095  1.00  0.00     0.178 C 
ATOM      4  C   UNL     1      21.232  61.984  38.298  1.00  0.00     0.177 C 
ATOM      5  C   UNL     1      21.220  60.952  39.470  1.00  0.00     0.179 C 
ATOM      6  C   UNL     1      22.422  61.167  40.417  1.00  0.00     0.202 C 
ENDROOT
BRANCH   1   7
ATOM      7  O   UNL     1      24.166  59.786  39.509  1.00  0.00    -0.346 OA
BRANCH   7   8
ATOM      8  C   UNL     1      25.265  59.464  40.350  1.00  0.00     0.133 C 
ATOM      9  C   UNL     1      29.908  57.941  47.396  1.00  0.00     0.038 C 
ATOM     10  C   UNL     1      28.957  56.937  48.102  1.00  0.00     0.035 C 
ATOM     11  C   UNL     1      29.559  57.642  45.883  1.00  0.00    -0.005 C 
ATOM     12  C   UNL     1      27.750  57.003  47.218  1.00  0.00    -0.026 C 
ATOM     13  C   UNL     1      29.892  58.705  44.789  1.00  0.00     0.012 C 
ATOM     14  C   UNL     1      28.088  57.390  45.984  1.00  0.00    -0.064 C 
ATOM     15  C   UNL     1      28.775  59.748  44.599  1.00  0.00     0.006 C 
ATOM     16  C   UNL     1      27.111  57.712  44.883  1.00  0.00     0.023 C 
ATOM     17  C   UNL     1      27.408  59.102  44.166  1.00  0.00     0.014 C 
ATOM     18  C   UNL     1      27.027  56.547  43.886  1.00  0.00     0.035 C 
ATOM     19  C   UNL     1      27.152  59.090  42.585  1.00  0.00     0.051 C 
ATOM     20  C   UNL     1      25.962  56.912  42.895  1.00  0.00    -0.026 C 
ATOM     21  C   UNL     1      26.814  60.501  42.070  1.00  0.00     0.145 C 
ATOM     22  C   UNL     1      25.985  58.120  42.296  1.00  0.00    -0.058 C 
ATOM     23  C   UNL     1      25.807  60.753  40.969  1.00  0.00     0.109 C 
ATOM     24  O   UNL     1      27.363  61.477  42.555  1.00  0.00    -0.299 OA
ATOM     25  C   UNL     1      24.801  58.523  41.446  1.00  0.00     0.064 C 
ATOM     26  C   UNL     1      30.292  56.331  45.457  1.00  0.00     0.016 C 
ATOM     27  C   UNL     1      28.386  58.643  41.754  1.00  0.00     0.025 C 
BRANCH   9  28
ATOM     28  C   UNL     1      29.723  59.409  48.008  1.00  0.00     0.103 C 
ATOM     29  C   UNL     1      28.247  59.923  47.936  1.00  0.00     0.046 C 
BRANCH  28  30
ATOM     30  C   UNL     1      30.159  59.401  49.525  1.00  0.00     0.212 C 
ATOM     31  C   UNL     1      31.431  60.453  51.408  1.00  0.00    -0.059 C 
ATOM     32  C   UNL     1      30.498  59.961  52.280  1.00  0.00     0.033 C 
ATOM     33  C   UNL     1      31.058  60.588  49.941  1.00  0.00     0.079 C 
ATOM     34  C   UNL     1      29.193  59.514  51.707  1.00  0.00     0.334 C 
ATOM     35  O   UNL     1      28.260  59.209  52.433  1.00  0.00    -0.247 OA
ATOM     36  O   UNL     1      29.050  59.422  50.359  1.00  0.00    -0.456 OA
ATOM     37  C   UNL     1      32.827  60.905  51.780  1.00  0.00     0.040 C 
ATOM     38  C   UNL     1      30.693  59.804  53.773  1.00  0.00     0.052 C 
ENDBRANCH  28  30
BRANCH  28  39
ATOM     39  O   UNL     1      30.569  60.296  47.316  1.00  0.00    -0.386 OA
ATOM     40  H   UNL     1      30.271  60.344  46.370  1.00  0.00     0.211 HD
ENDBRANCH  28  39
ENDBRANCH   9  28
ENDBRANCH   7   8
ENDBRANCH   1   7
BRANCH   6  41
ATOM     41  O   UNL     1      22.319  62.327  41.214  1.00  0.00    -0.385 OA
ATOM     42  H   UNL     1      21.392  62.647  41.258  1.00  0.00     0.211 HD
ENDBRANCH   6  41
BRANCH   3  43
ATOM     43  C   UNL     1      22.776  63.271  36.719  1.00  0.00     0.198 C 
BRANCH  43  44
ATOM     44  O   UNL     1      22.802  62.256  35.738  1.00  0.00    -0.347 OA
BRANCH  44  45
ATOM     45  C   UNL     1      21.687  62.329  34.866  1.00  0.00     0.282 C 
ATOM     46  O   UNL     1      20.755  63.235  35.443  1.00  0.00    -0.341 OA
ATOM     47  C   UNL     1      21.061  60.910  34.731  1.00  0.00     0.202 C 
ATOM     48  C   UNL     1      19.634  63.426  34.588  1.00  0.00     0.178 C 
ATOM     49  C   UNL     1      19.787  61.028  33.871  1.00  0.00     0.179 C 
ATOM     50  C   UNL     1      18.834  62.099  34.441  1.00  0.00     0.177 C 
BRANCH  47  51
ATOM     51  O   UNL     1      20.759  60.313  35.976  1.00  0.00    -0.385 OA
ATOM     52  H   UNL     1      20.297  59.446  35.842  1.00  0.00     0.211 HD
ENDBRANCH  47  51
BRANCH  48  53
ATOM     53  C   UNL     1      18.771  64.561  35.159  1.00  0.00     0.191 C 
BRANCH  53  54
ATOM     54  O   UNL     1      18.409  64.300  36.488  1.00  0.00    -0.394 OA
ATOM     55  H   UNL     1      17.621  63.696  36.454  1.00  0.00     0.210 HD
ENDBRANCH  53  54
ENDBRANCH  48  53
BRANCH  49  56
ATOM     56  O   UNL     1      19.148  59.787  33.696  1.00  0.00    -0.387 OA
ATOM     57  H   UNL     1      18.289  59.811  34.193  1.00  0.00     0.211 HD
ENDBRANCH  49  56
BRANCH  50  58
ATOM     58  O   UNL     1      18.252  61.680  35.657  1.00  0.00    -0.387 OA
ATOM     59  H   UNL     1      17.297  61.458  35.507  1.00  0.00     0.211 HD
ENDBRANCH  50  58
ENDBRANCH  44  45
ENDBRANCH  43  44
ENDBRANCH   3  43
BRANCH   5  60
ATOM     60  O   UNL     1      21.264  59.633  38.967  1.00  0.00    -0.387 OA
ATOM     61  H   UNL     1      21.338  58.997  39.726  1.00  0.00     0.211 HD
ENDBRANCH   5  60
BRANCH   4  62
ATOM     62  O   UNL     1      20.246  62.977  38.453  1.00  0.00    -0.387 OA
ATOM     63  H   UNL     1      20.039  63.071  39.415  1.00  0.00     0.211 HD
ENDBRANCH   4  62
TORSDOF 16
ENDMDL
MODEL 5
REMARK VINA RESULT:   -13.365      2.002      3.609
REMARK INTER + INTRA:         -23.638
REMARK INTER:                 -22.272
REMARK INTRA:                  -1.365
REMARK UNBOUND:                -0.897
REMARK SMILES CC1=C(C)C(=O)O[C@@H]([C@@](C)(O)[C@H]2CC=C3[C@@H]4CC=C5C[C@@H](O[C@H]6O[C@@H](CO[C@@H]7O[C@H](CO)[C@H](O)[C@H](O)[C@@H]7O)[C@H](O)[C@@H](O)[C@@H]6O)CC(=O)[C@@]5(C)[C@@H]4CC[C@]32C)C1
REMARK SMILES IDX 23 1 24 2 25 3 39 4 41 5 43 6 22 7 21 8 12 9 13 10 53 11
REMARK SMILES IDX 14 12 52 13 15 14 51 15 16 16 50 17 17 18 48 19 18 20 46 21
REMARK SMILES IDX 19 22 45 23 47 24 20 25 54 26 49 27 9 28 10 29 8 30 2 31
REMARK SMILES IDX 3 32 55 33 5 34 6 35 7 36 1 37 4 38 11 39 44 41 26 43 27 44
REMARK SMILES IDX 28 45 29 46 37 47 30 48 35 49 33 50 38 51 31 53 32 54 36 56
REMARK SMILES IDX 34 58 42 60 40 62
REMARK H PARENT 11 40 44 42 38 52 32 55 36 57 34 59 42 61 40 63
ROOT
ATOM      1  C   UNL     1      23.595  61.142  39.711  1.00  0.00     0.282 C 
ATOM      2  O   UNL     1      23.563  61.569  38.342  1.00  0.00    -0.341 OA
ATOM      3  C   UNL     1      22.625  62.600  38.115  1.00  0.00     0.178 C 
ATOM      4  C   UNL     1      21.173  62.052  38.282  1.00  0.00     0.177 C 
ATOM      5  C   UNL     1      21.063  61.069  39.490  1.00  0.00     0.179 C 
ATOM      6  C   UNL     1      22.237  61.263  40.478  1.00  0.00     0.202 C 
ENDROOT
BRANCH   1   7
ATOM      7  O   UNL     1      23.943  59.764  39.696  1.00  0.00    -0.346 OA
BRANCH   7   8
ATOM      8  C   UNL     1      24.803  59.373  40.757  1.00  0.00     0.133 C 
ATOM      9  C   UNL     1      31.919  58.029  45.349  1.00  0.00     0.038 C 
ATOM     10  C   UNL     1      32.554  59.441  45.234  1.00  0.00     0.035 C 
ATOM     11  C   UNL     1      30.385  58.403  45.260  1.00  0.00    -0.005 C 
ATOM     12  C   UNL     1      31.637  60.097  44.247  1.00  0.00    -0.026 C 
ATOM     13  C   UNL     1      29.346  57.309  44.855  1.00  0.00     0.012 C 
ATOM     14  C   UNL     1      30.431  59.521  44.268  1.00  0.00    -0.064 C 
ATOM     15  C   UNL     1      29.166  57.182  43.331  1.00  0.00     0.006 C 
ATOM     16  C   UNL     1      29.315  59.822  43.301  1.00  0.00     0.023 C 
ATOM     17  C   UNL     1      28.665  58.515  42.665  1.00  0.00     0.014 C 
ATOM     18  C   UNL     1      28.268  60.732  43.961  1.00  0.00     0.035 C 
ATOM     19  C   UNL     1      27.078  58.604  42.469  1.00  0.00     0.051 C 
ATOM     20  C   UNL     1      27.261  61.061  42.899  1.00  0.00    -0.026 C 
ATOM     21  C   UNL     1      26.611  57.687  41.324  1.00  0.00     0.145 C 
ATOM     22  C   UNL     1      26.714  60.073  42.162  1.00  0.00    -0.058 C 
ATOM     23  C   UNL     1      25.491  58.061  40.377  1.00  0.00     0.109 C 
ATOM     24  O   UNL     1      27.153  56.608  41.144  1.00  0.00    -0.299 OA
ATOM     25  C   UNL     1      25.845  60.453  40.984  1.00  0.00     0.064 C 
ATOM     26  C   UNL     1      29.928  58.947  46.650  1.00  0.00     0.016 C 
ATOM     27  C   UNL     1      26.267  58.141  43.711  1.00  0.00     0.025 C 
BRANCH   9  28
ATOM     28  C   UNL     1      32.585  57.030  44.289  1.00  0.00     0.103 C 
ATOM     29  C   UNL     1      34.104  57.315  44.047  1.00  0.00     0.046 C 
BRANCH  28  30
ATOM     30  C   UNL     1      32.449  55.547  44.813  1.00  0.00     0.212 C 
ATOM     31  C   UNL     1      31.456  53.260  44.577  1.00  0.00    -0.059 C 
ATOM     32  C   UNL     1      32.584  52.739  45.151  1.00  0.00     0.033 C 
ATOM     33  C   UNL     1      31.527  54.647  43.959  1.00  0.00     0.079 C 
ATOM     34  C   UNL     1      33.795  53.611  45.197  1.00  0.00     0.334 C 
ATOM     35  O   UNL     1      34.875  53.167  45.552  1.00  0.00    -0.247 OA
ATOM     36  O   UNL     1      33.688  54.924  44.864  1.00  0.00    -0.456 OA
ATOM     37  C   UNL     1      30.117  52.561  44.481  1.00  0.00     0.040 C 
ATOM     38  C   UNL     1      32.694  51.362  45.769  1.00  0.00     0.052 C 
ENDBRANCH  28  30
BRANCH  28  39
ATOM     39  O   UNL     1      31.882  57.129  43.073  1.00  0.00    -0.386 OA
ATOM     40  H   UNL     1      32.524  56.996  42.327  1.00  0.00     0.211 HD
ENDBRANCH  28  39
ENDBRANCH   9  28
ENDBRANCH   7   8
ENDBRANCH   1   7
BRANCH   6  41
ATOM     41  O   UNL     1      22.160  62.457  41.226  1.00  0.00    -0.385 OA
ATOM     42  H   UNL     1      21.228  62.695  41.422  1.00  0.00     0.211 HD
ENDBRANCH   6  41
BRANCH   3  43
ATOM     43  C   UNL     1      22.841  63.200  36.722  1.00  0.00     0.198 C 
BRANCH  43  44
ATOM     44  O   UNL     1      22.823  62.150  35.777  1.00  0.00    -0.347 OA
BRANCH  44  45
ATOM     45  C   UNL     1      21.726  62.254  34.887  1.00  0.00     0.282 C 
ATOM     46  O   UNL     1      20.817  63.197  35.440  1.00  0.00    -0.341 OA
ATOM     47  C   UNL     1      21.053  60.856  34.753  1.00  0.00     0.202 C 
ATOM     48  C   UNL     1      19.718  63.418  34.565  1.00  0.00     0.178 C 
ATOM     49  C   UNL     1      19.799  61.010  33.871  1.00  0.00     0.179 C 
ATOM     50  C   UNL     1      18.874  62.119  34.416  1.00  0.00     0.177 C 
BRANCH  47  51
ATOM     51  O   UNL     1      20.710  60.281  35.997  1.00  0.00    -0.385 OA
ATOM     52  H   UNL     1      20.490  60.988  36.657  1.00  0.00     0.211 HD
ENDBRANCH  47  51
BRANCH  48  53
ATOM     53  C   UNL     1      18.885  64.588  35.111  1.00  0.00     0.191 C 
BRANCH  53  54
ATOM     54  O   UNL     1      18.429  64.319  36.409  1.00  0.00    -0.394 OA
ATOM     55  H   UNL     1      17.635  64.896  36.557  1.00  0.00     0.210 HD
ENDBRANCH  53  54
ENDBRANCH  48  53
BRANCH  49  56
ATOM     56  O   UNL     1      19.119  59.790  33.695  1.00  0.00    -0.387 OA
ATOM     57  H   UNL     1      18.182  59.995  33.441  1.00  0.00     0.211 HD
ENDBRANCH  49  56
BRANCH  50  58
ATOM     58  O   UNL     1      18.258  61.731  35.625  1.00  0.00    -0.387 OA
ATOM     59  H   UNL     1      18.919  61.267  36.199  1.00  0.00     0.211 HD
ENDBRANCH  50  58
ENDBRANCH  44  45
ENDBRANCH  43  44
ENDBRANCH   3  43
BRANCH   5  60
ATOM     60  O   UNL     1      21.062  59.730  39.040  1.00  0.00    -0.387 OA
ATOM     61  H   UNL     1      20.787  59.136  39.785  1.00  0.00     0.211 HD
ENDBRANCH   5  60
BRANCH   4  62
ATOM     62  O   UNL     1      20.233  63.097  38.359  1.00  0.00    -0.387 OA
ATOM     63  H   UNL     1      19.522  62.837  38.994  1.00  0.00     0.211 HD
ENDBRANCH   4  62
TORSDOF 16
ENDMDL
MODEL 6
REMARK VINA RESULT:   -13.334      3.078      5.039
REMARK INTER + INTRA:         -23.585
REMARK INTER:                 -22.548
REMARK INTRA:                  -1.037
REMARK UNBOUND:                -0.897
REMARK SMILES CC1=C(C)C(=O)O[C@@H]([C@@](C)(O)[C@H]2CC=C3[C@@H]4CC=C5C[C@@H](O[C@H]6O[C@@H](CO[C@@H]7O[C@H](CO)[C@H](O)[C@H](O)[C@@H]7O)[C@H](O)[C@@H](O)[C@@H]6O)CC(=O)[C@@]5(C)[C@@H]4CC[C@]32C)C1
REMARK SMILES IDX 23 1 24 2 25 3 39 4 41 5 43 6 22 7 21 8 12 9 13 10 53 11
REMARK SMILES IDX 14 12 52 13 15 14 51 15 16 16 50 17 17 18 48 19 18 20 46 21
REMARK SMILES IDX 19 22 45 23 47 24 20 25 54 26 49 27 9 28 10 29 8 30 2 31
REMARK SMILES IDX 3 32 55 33 5 34 6 35 7 36 1 37 4 38 11 39 44 41 26 43 27 44
REMARK SMILES IDX 28 45 29 46 37 47 30 48 35 49 33 50 38 51 31 53 32 54 36 56
REMARK SMILES IDX 34 58 42 60 40 62
REMARK H PARENT 11 40 44 42 38 52 32 55 36 57 34 59 42 61 40 63
ROOT
ATOM      1  C   UNL     1      23.952  61.083  39.502  1.00  0.00     0.282 C 
ATOM      2  O   UNL     1      23.760  61.589  38.174  1.00  0.00    -0.341 OA
ATOM      3  C   UNL     1      22.736  62.560  38.104  1.00  0.00     0.178 C 
ATOM      4  C   UNL     1      21.347  61.897  38.365  1.00  0.00     0.177 C 
ATOM      5  C   UNL     1      21.422  60.836  39.509  1.00  0.00     0.179 C 
ATOM      6  C   UNL     1      22.668  61.056  40.396  1.00  0.00     0.202 C 
ENDROOT
BRANCH   1   7
ATOM      7  O   UNL     1      24.390  59.738  39.361  1.00  0.00    -0.346 OA
BRANCH   7   8
ATOM      8  C   UNL     1      25.186  59.274  40.442  1.00  0.00     0.133 C 
ATOM      9  C   UNL     1      31.064  54.882  44.880  1.00  0.00     0.038 C 
ATOM     10  C   UNL     1      32.292  55.120  43.960  1.00  0.00     0.035 C 
ATOM     11  C   UNL     1      30.248  56.209  44.609  1.00  0.00    -0.005 C 
ATOM     12  C   UNL     1      31.654  55.799  42.788  1.00  0.00    -0.026 C 
ATOM     13  C   UNL     1      28.719  56.255  44.925  1.00  0.00     0.012 C 
ATOM     14  C   UNL     1      30.521  56.408  43.152  1.00  0.00    -0.064 C 
ATOM     15  C   UNL     1      27.846  55.755  43.759  1.00  0.00     0.006 C 
ATOM     16  C   UNL     1      29.545  57.053  42.203  1.00  0.00     0.023 C 
ATOM     17  C   UNL     1      28.038  56.603  42.449  1.00  0.00     0.014 C 
ATOM     18  C   UNL     1      29.709  58.580  42.225  1.00  0.00     0.035 C 
ATOM     19  C   UNL     1      26.966  57.778  42.257  1.00  0.00     0.051 C 
ATOM     20  C   UNL     1      28.779  59.122  41.181  1.00  0.00    -0.026 C 
ATOM     21  C   UNL     1      25.590  57.210  41.861  1.00  0.00     0.145 C 
ATOM     22  C   UNL     1      27.489  58.730  41.160  1.00  0.00    -0.058 C 
ATOM     23  C   UNL     1      24.665  57.905  40.886  1.00  0.00     0.109 C 
ATOM     24  O   UNL     1      25.206  56.152  42.334  1.00  0.00    -0.299 OA
ATOM     25  C   UNL     1      26.629  59.152  39.989  1.00  0.00     0.064 C 
ATOM     26  C   UNL     1      30.899  57.366  45.432  1.00  0.00     0.016 C 
ATOM     27  C   UNL     1      26.704  58.604  43.547  1.00  0.00     0.025 C 
BRANCH   9  28
ATOM     28  C   UNL     1      30.418  53.446  44.588  1.00  0.00     0.103 C 
ATOM     29  C   UNL     1      31.431  52.435  43.958  1.00  0.00     0.046 C 
BRANCH  28  30
ATOM     30  C   UNL     1      29.893  52.825  45.942  1.00  0.00     0.212 C 
ATOM     31  C   UNL     1      28.097  52.646  47.678  1.00  0.00    -0.059 C 
ATOM     32  C   UNL     1      28.497  51.360  47.923  1.00  0.00     0.033 C 
ATOM     33  C   UNL     1      28.477  53.288  46.353  1.00  0.00     0.079 C 
ATOM     34  C   UNL     1      29.353  50.701  46.891  1.00  0.00     0.334 C 
ATOM     35  O   UNL     1      29.621  49.512  46.965  1.00  0.00    -0.247 OA
ATOM     36  O   UNL     1      29.861  51.439  45.871  1.00  0.00    -0.456 OA
ATOM     37  C   UNL     1      27.276  53.504  48.616  1.00  0.00     0.040 C 
ATOM     38  C   UNL     1      28.168  50.564  49.167  1.00  0.00     0.052 C 
ENDBRANCH  28  30
BRANCH  28  39
ATOM     39  O   UNL     1      29.315  53.614  43.729  1.00  0.00    -0.386 OA
ATOM     40  H   UNL     1      28.738  52.808  43.796  1.00  0.00     0.211 HD
ENDBRANCH  28  39
ENDBRANCH   9  28
ENDBRANCH   7   8
ENDBRANCH   1   7
BRANCH   6  41
ATOM     41  O   UNL     1      22.582  62.193  41.227  1.00  0.00    -0.385 OA
ATOM     42  H   UNL     1      21.650  62.477  41.346  1.00  0.00     0.211 HD
ENDBRANCH   6  41
BRANCH   3  43
ATOM     43  C   UNL     1      22.776  63.258  36.741  1.00  0.00     0.198 C 
BRANCH  43  44
ATOM     44  O   UNL     1      22.806  62.269  35.734  1.00  0.00    -0.347 OA
BRANCH  44  45
ATOM     45  C   UNL     1      21.676  62.341  34.882  1.00  0.00     0.282 C 
ATOM     46  O   UNL     1      20.746  63.232  35.484  1.00  0.00    -0.341 OA
ATOM     47  C   UNL     1      21.061  60.917  34.741  1.00  0.00     0.202 C 
ATOM     48  C   UNL     1      19.609  63.422  34.650  1.00  0.00     0.178 C 
ATOM     49  C   UNL     1      19.772  61.033  33.903  1.00  0.00     0.179 C 
ATOM     50  C   UNL     1      18.819  62.090  34.501  1.00  0.00     0.177 C 
BRANCH  47  51
ATOM     51  O   UNL     1      20.785  60.304  35.984  1.00  0.00    -0.385 OA
ATOM     52  H   UNL     1      20.654  60.990  36.688  1.00  0.00     0.211 HD
ENDBRANCH  47  51
BRANCH  48  53
ATOM     53  C   UNL     1      18.745  64.542  35.247  1.00  0.00     0.191 C 
BRANCH  53  54
ATOM     54  O   UNL     1      18.418  64.269  36.583  1.00  0.00    -0.394 OA
ATOM     55  H   UNL     1      17.510  64.641  36.734  1.00  0.00     0.210 HD
ENDBRANCH  53  54
ENDBRANCH  48  53
BRANCH  49  56
ATOM     56  O   UNL     1      19.141  59.788  33.725  1.00  0.00    -0.387 OA
ATOM     57  H   UNL     1      18.769  59.505  34.600  1.00  0.00     0.211 HD
ENDBRANCH  49  56
BRANCH  50  58
ATOM     58  O   UNL     1      18.261  61.652  35.721  1.00  0.00    -0.387 OA
ATOM     59  H   UNL     1      18.985  61.502  36.382  1.00  0.00     0.211 HD
ENDBRANCH  50  58
ENDBRANCH  44  45
ENDBRANCH  43  44
ENDBRANCH   3  43
BRANCH   5  60
ATOM     60  O   UNL     1      21.468  59.531  38.971  1.00  0.00    -0.387 OA
ATOM     61  H   UNL     1      20.582  59.305  38.587  1.00  0.00     0.211 HD
ENDBRANCH   5  60
BRANCH   4  62
ATOM     62  O   UNL     1      20.350  62.863  38.599  1.00  0.00    -0.387 OA
ATOM     63  H   UNL     1      19.691  62.820  37.863  1.00  0.00     0.211 HD
ENDBRANCH   4  62
TORSDOF 16
ENDMDL
MODEL 7
REMARK VINA RESULT:   -13.053      3.964      5.881
REMARK INTER + INTRA:         -23.107
REMARK INTER:                 -21.706
REMARK INTRA:                  -1.401
REMARK UNBOUND:                -0.897
REMARK SMILES CC1=C(C)C(=O)O[C@@H]([C@@](C)(O)[C@H]2CC=C3[C@@H]4CC=C5C[C@@H](O[C@H]6O[C@@H](CO[C@@H]7O[C@H](CO)[C@H](O)[C@H](O)[C@@H]7O)[C@H](O)[C@@H](O)[C@@H]6O)CC(=O)[C@@]5(C)[C@@H]4CC[C@]32C)C1
REMARK SMILES IDX 23 1 24 2 25 3 39 4 41 5 43 6 22 7 21 8 12 9 13 10 53 11
REMARK SMILES IDX 14 12 52 13 15 14 51 15 16 16 50 17 17 18 48 19 18 20 46 21
REMARK SMILES IDX 19 22 45 23 47 24 20 25 54 26 49 27 9 28 10 29 8 30 2 31
REMARK SMILES IDX 3 32 55 33 5 34 6 35 7 36 1 37 4 38 11 39 44 41 26 43 27 44
REMARK SMILES IDX 28 45 29 46 37 47 30 48 35 49 33 50 38 51 31 53 32 54 36 56
REMARK SMILES IDX 34 58 42 60 40 62
REMARK H PARENT 11 40 44 42 38 52 32 55 36 57 34 59 42 61 40 63
ROOT
ATOM      1  C   UNL     1      25.974  59.933  40.011  1.00  0.00     0.282 C 
ATOM      2  O   UNL     1      25.218  60.219  38.826  1.00  0.00    -0.341 OA
ATOM      3  C   UNL     1      24.622  61.498  38.855  1.00  0.00     0.178 C 
ATOM      4  C   UNL     1      23.495  61.542  39.935  1.00  0.00     0.177 C 
ATOM      5  C   UNL     1      23.911  60.779  41.233  1.00  0.00     0.179 C 
ATOM      6  C   UNL     1      25.446  60.614  41.318  1.00  0.00     0.202 C 
ENDROOT
BRANCH   1   7
ATOM      7  O   UNL     1      25.893  58.528  40.212  1.00  0.00    -0.346 OA
BRANCH   7   8
ATOM      8  C   UNL     1      26.652  58.058  41.317  1.00  0.00     0.133 C 
ATOM      9  C   UNL     1      31.278  52.896  46.365  1.00  0.00     0.038 C 
ATOM     10  C   UNL     1      32.324  52.412  45.325  1.00  0.00     0.035 C 
ATOM     11  C   UNL     1      30.953  54.332  45.788  1.00  0.00    -0.005 C 
ATOM     12  C   UNL     1      31.770  52.988  44.059  1.00  0.00    -0.026 C 
ATOM     13  C   UNL     1      29.624  55.045  46.193  1.00  0.00     0.012 C 
ATOM     14  C   UNL     1      31.013  54.059  44.319  1.00  0.00    -0.064 C 
ATOM     15  C   UNL     1      28.436  54.667  45.289  1.00  0.00     0.006 C 
ATOM     16  C   UNL     1      30.177  54.792  43.302  1.00  0.00     0.023 C 
ATOM     17  C   UNL     1      28.678  55.039  43.781  1.00  0.00     0.014 C 
ATOM     18  C   UNL     1      30.875  56.091  42.874  1.00  0.00     0.035 C 
ATOM     19  C   UNL     1      28.079  56.458  43.343  1.00  0.00     0.051 C 
ATOM     20  C   UNL     1      30.026  56.692  41.792  1.00  0.00    -0.026 C 
ATOM     21  C   UNL     1      26.544  56.397  43.232  1.00  0.00     0.145 C 
ATOM     22  C   UNL     1      28.700  56.842  41.983  1.00  0.00    -0.058 C 
ATOM     23  C   UNL     1      25.767  57.148  42.172  1.00  0.00     0.109 C 
ATOM     24  O   UNL     1      25.900  55.718  44.015  1.00  0.00    -0.299 OA
ATOM     25  C   UNL     1      27.851  57.279  40.809  1.00  0.00     0.064 C 
ATOM     26  C   UNL     1      32.110  55.300  46.194  1.00  0.00     0.016 C 
ATOM     27  C   UNL     1      28.363  57.599  44.359  1.00  0.00     0.025 C 
BRANCH   9  28
ATOM     28  C   UNL     1      30.123  51.802  46.546  1.00  0.00     0.103 C 
ATOM     29  C   UNL     1      30.659  50.333  46.523  1.00  0.00     0.046 C 
BRANCH  28  30
ATOM     30  C   UNL     1      29.399  52.032  47.930  1.00  0.00     0.212 C 
ATOM     31  C   UNL     1      27.290  52.431  49.220  1.00  0.00    -0.059 C 
ATOM     32  C   UNL     1      27.846  51.775  50.284  1.00  0.00     0.033 C 
ATOM     33  C   UNL     1      27.864  52.190  47.833  1.00  0.00     0.079 C 
ATOM     34  C   UNL     1      29.040  50.919  50.014  1.00  0.00     0.334 C 
ATOM     35  O   UNL     1      29.497  50.187  50.878  1.00  0.00    -0.247 OA
ATOM     36  O   UNL     1      29.643  50.976  48.798  1.00  0.00    -0.456 OA
ATOM     37  C   UNL     1      26.115  53.383  49.292  1.00  0.00     0.040 C 
ATOM     38  C   UNL     1      27.368  51.870  51.717  1.00  0.00     0.052 C 
ENDBRANCH  28  30
BRANCH  28  39
ATOM     39  O   UNL     1      29.172  51.977  45.523  1.00  0.00    -0.386 OA
ATOM     40  H   UNL     1      29.037  51.106  45.065  1.00  0.00     0.211 HD
ENDBRANCH  28  39
ENDBRANCH   9  28
ENDBRANCH   7   8
ENDBRANCH   1   7
BRANCH   6  41
ATOM     41  O   UNL     1      26.133  61.814  41.600  1.00  0.00    -0.385 OA
ATOM     42  H   UNL     1      25.542  62.592  41.509  1.00  0.00     0.211 HD
ENDBRANCH   6  41
BRANCH   3  43
ATOM     43  C   UNL     1      24.080  61.850  37.466  1.00  0.00     0.198 C 
BRANCH  43  44
ATOM     44  O   UNL     1      22.672  61.757  37.500  1.00  0.00    -0.347 OA
BRANCH  44  45
ATOM     45  C   UNL     1      22.072  62.323  36.348  1.00  0.00     0.282 C 
ATOM     46  O   UNL     1      20.664  62.276  36.535  1.00  0.00    -0.341 OA
ATOM     47  C   UNL     1      22.489  61.486  35.102  1.00  0.00     0.202 C 
ATOM     48  C   UNL     1      19.985  62.899  35.451  1.00  0.00     0.178 C 
ATOM     49  C   UNL     1      21.742  62.047  33.876  1.00  0.00     0.179 C 
ATOM     50  C   UNL     1      20.221  62.101  34.135  1.00  0.00     0.177 C 
BRANCH  47  51
ATOM     51  O   UNL     1      22.228  60.105  35.246  1.00  0.00    -0.385 OA
ATOM     52  H   UNL     1      22.045  59.883  36.196  1.00  0.00     0.211 HD
ENDBRANCH  47  51
BRANCH  48  53
ATOM     53  C   UNL     1      18.494  63.004  35.803  1.00  0.00     0.191 C 
BRANCH  53  54
ATOM     54  O   UNL     1      18.028  61.817  36.385  1.00  0.00    -0.394 OA
ATOM     55  H   UNL     1      17.120  62.012  36.738  1.00  0.00     0.210 HD
ENDBRANCH  53  54
ENDBRANCH  48  53
BRANCH  49  56
ATOM     56  O   UNL     1      22.055  61.346  32.697  1.00  0.00    -0.387 OA
ATOM     57  H   UNL     1      22.920  61.692  32.355  1.00  0.00     0.211 HD
ENDBRANCH  49  56
BRANCH  50  58
ATOM     58  O   UNL     1      19.656  60.808  34.176  1.00  0.00    -0.387 OA
ATOM     59  H   UNL     1      20.321  60.168  34.538  1.00  0.00     0.211 HD
ENDBRANCH  50  58
ENDBRANCH  44  45
ENDBRANCH  43  44
ENDBRANCH   3  43
BRANCH   5  60
ATOM     60  O   UNL     1      23.311  59.501  41.270  1.00  0.00    -0.387 OA
ATOM     61  H   UNL     1      22.450  59.531  40.777  1.00  0.00     0.211 HD
ENDBRANCH   5  60
BRANCH   4  62
ATOM     62  O   UNL     1      23.086  62.862  40.201  1.00  0.00    -0.387 OA
ATOM     63  H   UNL     1      23.856  63.466  40.063  1.00  0.00     0.211 HD
ENDBRANCH   4  62
TORSDOF 16
ENDMDL
MODEL 8
REMARK VINA RESULT:   -12.842      3.558      6.635
REMARK INTER + INTRA:         -22.749
REMARK INTER:                 -21.614
REMARK INTRA:                  -1.135
REMARK UNBOUND:                -0.897
REMARK SMILES CC1=C(C)C(=O)O[C@@H]([C@@](C)(O)[C@H]2CC=C3[C@@H]4CC=C5C[C@@H](O[C@H]6O[C@@H](CO[C@@H]7O[C@H](CO)[C@H](O)[C@H](O)[C@@H]7O)[C@H](O)[C@@H](O)[C@@H]6O)CC(=O)[C@@]5(C)[C@@H]4CC[C@]32C)C1
REMARK SMILES IDX 23 1 24 2 25 3 39 4 41 5 43 6 22 7 21 8 12 9 13 10 53 11
REMARK SMILES IDX 14 12 52 13 15 14 51 15 16 16 50 17 17 18 48 19 18 20 46 21
REMARK SMILES IDX 19 22 45 23 47 24 20 25 54 26 49 27 9 28 10 29 8 30 2 31
REMARK SMILES IDX 3 32 55 33 5 34 6 35 7 36 1 37 4 38 11 39 44 41 26 43 27 44
REMARK SMILES IDX 28 45 29 46 37 47 30 48 35 49 33 50 38 51 31 53 32 54 36 56
REMARK SMILES IDX 34 58 42 60 40 62
REMARK H PARENT 11 40 44 42 38 52 32 55 36 57 34 59 42 61 40 63
ROOT
ATOM      1  C   UNL     1      19.519  63.180  35.433  1.00  0.00     0.282 C 
ATOM      2  O   UNL     1      18.750  64.286  34.941  1.00  0.00    -0.341 OA
ATOM      3  C   UNL     1      18.101  63.999  33.720  1.00  0.00     0.178 C 
ATOM      4  C   UNL     1      19.151  63.843  32.576  1.00  0.00     0.177 C 
ATOM      5  C   UNL     1      20.417  63.065  33.057  1.00  0.00     0.179 C 
ATOM      6  C   UNL     1      20.117  62.243  34.331  1.00  0.00     0.202 C 
ENDROOT
BRANCH   1   7
ATOM      7  O   UNL     1      20.615  63.735  36.147  1.00  0.00    -0.346 OA
BRANCH   7   8
ATOM      8  C   UNL     1      21.493  62.767  36.703  1.00  0.00     0.133 C 
ATOM      9  C   UNL     1      26.758  58.798  42.185  1.00  0.00     0.038 C 
ATOM     10  C   UNL     1      25.875  58.863  43.461  1.00  0.00     0.035 C 
ATOM     11  C   UNL     1      25.637  58.752  41.071  1.00  0.00    -0.005 C 
ATOM     12  C   UNL     1      24.750  59.735  42.997  1.00  0.00    -0.026 C 
ATOM     13  C   UNL     1      25.990  59.154  39.604  1.00  0.00     0.012 C 
ATOM     14  C   UNL     1      24.616  59.667  41.669  1.00  0.00    -0.064 C 
ATOM     15  C   UNL     1      25.860  60.665  39.344  1.00  0.00     0.006 C 
ATOM     16  C   UNL     1      23.690  60.528  40.849  1.00  0.00     0.023 C 
ATOM     17  C   UNL     1      24.404  61.203  39.596  1.00  0.00     0.014 C 
ATOM     18  C   UNL     1      22.437  59.736  40.450  1.00  0.00     0.035 C 
ATOM     19  C   UNL     1      23.488  61.278  38.285  1.00  0.00     0.051 C 
ATOM     20  C   UNL     1      21.535  60.699  39.736  1.00  0.00    -0.026 C 
ATOM     21  C   UNL     1      23.917  62.446  37.378  1.00  0.00     0.145 C 
ATOM     22  C   UNL     1      22.021  61.458  38.734  1.00  0.00    -0.058 C 
ATOM     23  C   UNL     1      22.929  63.282  36.594  1.00  0.00     0.109 C 
ATOM     24  O   UNL     1      25.098  62.736  37.271  1.00  0.00    -0.299 OA
ATOM     25  C   UNL     1      21.136  62.544  38.161  1.00  0.00     0.064 C 
ATOM     26  C   UNL     1      25.069  57.298  41.002  1.00  0.00     0.016 C 
ATOM     27  C   UNL     1      23.579  60.015  37.384  1.00  0.00     0.025 C 
BRANCH   9  28
ATOM     28  C   UNL     1      27.851  59.967  42.203  1.00  0.00     0.103 C 
ATOM     29  C   UNL     1      27.220  61.398  42.204  1.00  0.00     0.046 C 
BRANCH  28  30
ATOM     30  C   UNL     1      28.741  59.830  43.501  1.00  0.00     0.212 C 
ATOM     31  C   UNL     1      31.002  59.846  44.576  1.00  0.00    -0.059 C 
ATOM     32  C   UNL     1      30.423  60.299  45.730  1.00  0.00     0.033 C 
ATOM     33  C   UNL     1      30.255  60.028  43.264  1.00  0.00     0.079 C 
ATOM     34  C   UNL     1      29.050  60.876  45.626  1.00  0.00     0.334 C 
ATOM     35  O   UNL     1      28.531  61.437  46.579  1.00  0.00    -0.247 OA
ATOM     36  O   UNL     1      28.357  60.753  44.464  1.00  0.00    -0.456 OA
ATOM     37  C   UNL     1      32.359  59.181  44.477  1.00  0.00     0.040 C 
ATOM     38  C   UNL     1      31.049  60.234  47.106  1.00  0.00     0.052 C 
ENDBRANCH  28  30
BRANCH  28  39
ATOM     39  O   UNL     1      28.690  59.818  41.083  1.00  0.00    -0.386 OA
ATOM     40  H   UNL     1      28.345  59.070  40.528  1.00  0.00     0.211 HD
ENDBRANCH  28  39
ENDBRANCH   9  28
ENDBRANCH   7   8
ENDBRANCH   1   7
BRANCH   6  41
ATOM     41  O   UNL     1      19.303  61.113  34.102  1.00  0.00    -0.385 OA
ATOM     42  H   UNL     1      19.560  60.365  34.683  1.00  0.00     0.211 HD
ENDBRANCH   6  41
BRANCH   3  43
ATOM     43  C   UNL     1      17.084  65.100  33.402  1.00  0.00     0.198 C 
BRANCH  43  44
ATOM     44  O   UNL     1      16.023  64.527  32.666  1.00  0.00    -0.347 OA
BRANCH  44  45
ATOM     45  C   UNL     1      15.287  65.501  31.947  1.00  0.00     0.282 C 
ATOM     46  O   UNL     1      15.222  66.668  32.758  1.00  0.00    -0.341 OA
ATOM     47  C   UNL     1      13.859  64.946  31.669  1.00  0.00     0.202 C 
ATOM     48  C   UNL     1      14.563  67.726  32.073  1.00  0.00     0.178 C 
ATOM     49  C   UNL     1      13.038  66.058  30.986  1.00  0.00     0.179 C 
ATOM     50  C   UNL     1      13.072  67.358  31.817  1.00  0.00     0.177 C 
BRANCH  47  51
ATOM     51  O   UNL     1      13.199  64.495  32.833  1.00  0.00    -0.385 OA
ATOM     52  H   UNL     1      12.329  64.080  32.601  1.00  0.00     0.211 HD
ENDBRANCH  47  51
BRANCH  48  53
ATOM     53  C   UNL     1      14.705  69.010  32.904  1.00  0.00     0.191 C 
BRANCH  53  54
ATOM     54  O   UNL     1      13.598  69.852  32.727  1.00  0.00    -0.394 OA
ATOM     55  H   UNL     1      13.651  70.198  31.798  1.00  0.00     0.210 HD
ENDBRANCH  53  54
ENDBRANCH  48  53
BRANCH  49  56
ATOM     56  O   UNL     1      11.724  65.647  30.697  1.00  0.00    -0.387 OA
ATOM     57  H   UNL     1      11.405  65.087  31.451  1.00  0.00     0.211 HD
ENDBRANCH  49  56
BRANCH  50  58
ATOM     58  O   UNL     1      12.332  67.228  33.012  1.00  0.00    -0.387 OA
ATOM     59  H   UNL     1      11.442  66.842  32.809  1.00  0.00     0.211 HD
ENDBRANCH  50  58
ENDBRANCH  44  45
ENDBRANCH  43  44
ENDBRANCH   3  43
BRANCH   5  60
ATOM     60  O   UNL     1      21.474  63.960  33.328  1.00  0.00    -0.387 OA
ATOM     61  H   UNL     1      22.317  63.448  33.433  1.00  0.00     0.211 HD
ENDBRANCH   5  60
BRANCH   4  62
ATOM     62  O   UNL     1      18.578  63.269  31.425  1.00  0.00    -0.387 OA
ATOM     63  H   UNL     1      18.776  63.850  30.650  1.00  0.00     0.211 HD
ENDBRANCH   4  62
TORSDOF 16
ENDMDL
MODEL 9
REMARK VINA RESULT:   -12.819      3.087      5.068
REMARK INTER + INTRA:         -22.709
REMARK INTER:                 -21.742
REMARK INTRA:                  -0.966
REMARK UNBOUND:                -0.897
REMARK SMILES CC1=C(C)C(=O)O[C@@H]([C@@](C)(O)[C@H]2CC=C3[C@@H]4CC=C5C[C@@H](O[C@H]6O[C@@H](CO[C@@H]7O[C@H](CO)[C@H](O)[C@H](O)[C@@H]7O)[C@H](O)[C@@H](O)[C@@H]6O)CC(=O)[C@@]5(C)[C@@H]4CC[C@]32C)C1
REMARK SMILES IDX 23 1 24 2 25 3 39 4 41 5 43 6 22 7 21 8 12 9 13 10 53 11
REMARK SMILES IDX 14 12 52 13 15 14 51 15 16 16 50 17 17 18 48 19 18 20 46 21
REMARK SMILES IDX 19 22 45 23 47 24 20 25 54 26 49 27 9 28 10 29 8 30 2 31
REMARK SMILES IDX 3 32 55 33 5 34 6 35 7 36 1 37 4 38 11 39 44 41 26 43 27 44
REMARK SMILES IDX 28 45 29 46 37 47 30 48 35 49 33 50 38 51 31 53 32 54 36 56
REMARK SMILES IDX 34 58 42 60 40 62
REMARK H PARENT 11 40 44 42 38 52 32 55 36 57 34 59 42 61 40 63
ROOT
ATOM      1  C   UNL     1      25.772  61.039  40.598  1.00  0.00     0.282 C 
ATOM      2  O   UNL     1      25.037  61.533  39.470  1.00  0.00    -0.341 OA
ATOM      3  C   UNL     1      23.661  61.694  39.744  1.00  0.00     0.178 C 
ATOM      4  C   UNL     1      22.985  60.301  39.944  1.00  0.00     0.177 C 
ATOM      5  C   UNL     1      23.896  59.330  40.761  1.00  0.00     0.179 C 
ATOM      6  C   UNL     1      24.965  60.108  41.563  1.00  0.00     0.202 C 
ENDROOT
BRANCH   1   7
ATOM      7  O   UNL     1      26.844  60.267  40.075  1.00  0.00    -0.346 OA
BRANCH   7   8
ATOM      8  C   UNL     1      27.542  59.509  41.053  1.00  0.00     0.133 C 
ATOM      9  C   UNL     1      33.888  55.476  45.175  1.00  0.00     0.038 C 
ATOM     10  C   UNL     1      34.941  56.617  45.177  1.00  0.00     0.035 C 
ATOM     11  C   UNL     1      32.555  56.325  45.190  1.00  0.00    -0.005 C 
ATOM     12  C   UNL     1      34.275  57.634  44.303  1.00  0.00    -0.026 C 
ATOM     13  C   UNL     1      31.217  55.670  44.720  1.00  0.00     0.012 C 
ATOM     14  C   UNL     1      32.948  57.473  44.316  1.00  0.00    -0.064 C 
ATOM     15  C   UNL     1      30.993  55.776  43.201  1.00  0.00     0.006 C 
ATOM     16  C   UNL     1      31.980  58.218  43.434  1.00  0.00     0.023 C 
ATOM     17  C   UNL     1      30.940  57.264  42.696  1.00  0.00     0.014 C 
ATOM     18  C   UNL     1      31.285  59.335  44.227  1.00  0.00     0.035 C 
ATOM     19  C   UNL     1      29.464  57.873  42.579  1.00  0.00     0.051 C 
ATOM     20  C   UNL     1      30.428  60.081  43.248  1.00  0.00    -0.026 C 
ATOM     21  C   UNL     1      28.718  57.284  41.367  1.00  0.00     0.145 C 
ATOM     22  C   UNL     1      29.587  59.406  42.439  1.00  0.00    -0.058 C 
ATOM     23  C   UNL     1      27.770  58.096  40.513  1.00  0.00     0.109 C 
ATOM     24  O   UNL     1      28.884  56.115  41.056  1.00  0.00    -0.299 OA
ATOM     25  C   UNL     1      28.877  60.170  41.344  1.00  0.00     0.064 C 
ATOM     26  C   UNL     1      32.307  56.829  46.647  1.00  0.00     0.016 C 
ATOM     27  C   UNL     1      28.557  57.558  43.801  1.00  0.00     0.025 C 
BRANCH   9  28
ATOM     28  C   UNL     1      34.190  54.441  43.991  1.00  0.00     0.103 C 
ATOM     29  C   UNL     1      35.714  54.314  43.660  1.00  0.00     0.046 C 
BRANCH  28  30
ATOM     30  C   UNL     1      33.664  53.010  44.402  1.00  0.00     0.212 C 
ATOM     31  C   UNL     1      31.890  51.247  44.274  1.00  0.00    -0.059 C 
ATOM     32  C   UNL     1      32.858  50.296  44.442  1.00  0.00     0.033 C 
ATOM     33  C   UNL     1      32.300  52.627  43.784  1.00  0.00     0.079 C 
ATOM     34  C   UNL     1      34.274  50.709  44.203  1.00  0.00     0.334 C 
ATOM     35  O   UNL     1      35.174  49.884  44.184  1.00  0.00    -0.247 OA
ATOM     36  O   UNL     1      34.567  52.024  44.031  1.00  0.00    -0.456 OA
ATOM     37  C   UNL     1      30.409  51.046  44.517  1.00  0.00     0.040 C 
ATOM     38  C   UNL     1      32.615  48.868  44.879  1.00  0.00     0.052 C 
ENDBRANCH  28  30
BRANCH  28  39
ATOM     39  O   UNL     1      33.487  54.851  42.842  1.00  0.00    -0.386 OA
ATOM     40  H   UNL     1      32.527  54.628  42.964  1.00  0.00     0.211 HD
ENDBRANCH  28  39
ENDBRANCH   9  28
ENDBRANCH   7   8
ENDBRANCH   1   7
BRANCH   6  41
ATOM     41  O   UNL     1      24.444  60.818  42.666  1.00  0.00    -0.385 OA
ATOM     42  H   UNL     1      25.027  61.569  42.913  1.00  0.00     0.211 HD
ENDBRANCH   6  41
BRANCH   3  43
ATOM     43  C   UNL     1      22.995  62.482  38.612  1.00  0.00     0.198 C 
BRANCH  43  44
ATOM     44  O   UNL     1      22.234  61.585  37.832  1.00  0.00    -0.347 OA
BRANCH  44  45
ATOM     45  C   UNL     1      21.753  62.188  36.643  1.00  0.00     0.282 C 
ATOM     46  O   UNL     1      20.333  62.145  36.690  1.00  0.00    -0.341 OA
ATOM     47  C   UNL     1      22.287  61.384  35.421  1.00  0.00     0.202 C 
ATOM     48  C   UNL     1      19.767  62.804  35.563  1.00  0.00     0.178 C 
ATOM     49  C   UNL     1      21.666  61.984  34.144  1.00  0.00     0.179 C 
ATOM     50  C   UNL     1      20.127  62.043  34.254  1.00  0.00     0.177 C 
BRANCH  47  51
ATOM     51  O   UNL     1      22.007  60.001  35.498  1.00  0.00    -0.385 OA
ATOM     52  H   UNL     1      22.400  59.523  34.723  1.00  0.00     0.211 HD
ENDBRANCH  47  51
BRANCH  48  53
ATOM     53  C   UNL     1      18.248  62.910  35.769  1.00  0.00     0.191 C 
BRANCH  53  54
ATOM     54  O   UNL     1      17.746  61.770  36.412  1.00  0.00    -0.394 OA
ATOM     55  H   UNL     1      17.057  61.385  35.810  1.00  0.00     0.210 HD
ENDBRANCH  53  54
ENDBRANCH  48  53
BRANCH  49  56
ATOM     56  O   UNL     1      22.090  61.316  32.981  1.00  0.00    -0.387 OA
ATOM     57  H   UNL     1      22.988  60.932  33.159  1.00  0.00     0.211 HD
ENDBRANCH  49  56
BRANCH  50  58
ATOM     58  O   UNL     1      19.556  60.753  34.202  1.00  0.00    -0.387 OA
ATOM     59  H   UNL     1      20.258  60.073  34.370  1.00  0.00     0.211 HD
ENDBRANCH  50  58
ENDBRANCH  44  45
ENDBRANCH  43  44
ENDBRANCH   3  43
BRANCH   5  60
ATOM     60  O   UNL     1      24.545  58.418  39.900  1.00  0.00    -0.387 OA
ATOM     61  H   UNL     1      24.184  58.523  38.982  1.00  0.00     0.211 HD
ENDBRANCH   5  60
BRANCH   4  62
ATOM     62  O   UNL     1      21.701  60.427  40.506  1.00  0.00    -0.387 OA
ATOM     63  H   UNL     1      21.700  61.198  41.124  1.00  0.00     0.211 HD
ENDBRANCH   4  62
TORSDOF 16
ENDMDL
