MODEL 1
REMARK VINA RESULT:   -13.755      0.000      0.000
REMARK INTER + INTRA:         -23.402
REMARK INTER:                 -21.796
REMARK INTRA:                  -1.607
REMARK UNBOUND:                -1.607
REMARK SMILES C[C@H]1CC[C@@]2(OC1)O[C@H]1C[C@H]3[C@@H]4CC=C5C[C@@H](O[C@@H]6O[C@H](CO)[C@H](O[C@@H]7O[C@H](CO)[C@@H](O)[C@H](O)[C@H]7O)[C@H](O)[C@H]6O)C[C@@H](O)[C@]5(C)[C@H]4CC[C@]3(C)[C@H]1[C@@H]2C
REMARK SMILES IDX 19 1 20 2 21 3 24 4 37 5 39 6 18 7 17 8 2 9 3 10 7 11 4 12
REMARK SMILES IDX 6 13 5 14 8 15 52 16 9 17 51 18 10 19 49 20 11 21 48 22
REMARK SMILES IDX 12 23 47 24 13 25 46 26 14 27 44 28 15 29 42 30 16 31 41 32
REMARK SMILES IDX 1 33 53 34 50 35 45 36 43 37 40 39 22 41 23 42 38 44 25 46
REMARK SMILES IDX 26 47 27 48 35 49 28 50 33 51 31 52 36 53 29 55 30 56 34 58
REMARK SMILES IDX 32 60
REMARK H PARENT 43 38 40 40 23 43 38 45 36 54 30 57 34 59 32 61
ROOT
ATOM      1  C   UNL     1      24.562  60.812  38.928  1.00  0.00     0.282 C 
ATOM      2  O   UNL     1      23.144  60.679  38.899  1.00  0.00    -0.341 OA
ATOM      3  C   UNL     1      22.504  61.743  38.221  1.00  0.00     0.178 C 
ATOM      4  C   UNL     1      22.907  61.809  36.704  1.00  0.00     0.184 C 
ATOM      5  C   UNL     1      24.133  60.908  36.412  1.00  0.00     0.180 C 
ATOM      6  C   UNL     1      25.178  61.123  37.519  1.00  0.00     0.202 C 
ENDROOT
BRANCH   1   7
ATOM      7  O   UNL     1      25.057  59.555  39.346  1.00  0.00    -0.346 OA
BRANCH   7   8
ATOM      8  C   UNL     1      25.009  59.347  40.749  1.00  0.00     0.128 C 
ATOM      9  C   UNL     1      30.706  58.664  53.346  1.00  0.00     0.012 C 
ATOM     10  C   UNL     1      31.201  59.688  52.295  1.00  0.00     0.011 C 
ATOM     11  C   UNL     1      30.013  57.455  52.661  1.00  0.00     0.167 C 
ATOM     12  C   UNL     1      31.337  59.006  50.940  1.00  0.00     0.066 C 
ATOM     13  O   UNL     1      29.178  57.864  51.594  1.00  0.00    -0.349 OA
ATOM     14  C   UNL     1      29.910  58.503  50.531  1.00  0.00     0.171 C 
ATOM     15  O   UNL     1      29.155  59.634  50.127  1.00  0.00    -0.346 OA
ATOM     16  C   UNL     1      29.986  57.615  49.284  1.00  0.00     0.052 C 
ATOM     17  C   UNL     1      28.226  59.169  49.164  1.00  0.00     0.126 C 
ATOM     18  C   UNL     1      28.566  57.735  48.737  1.00  0.00     0.033 C 
ATOM     19  C   UNL     1      28.197  59.988  47.869  1.00  0.00     0.037 C 
ATOM     20  C   UNL     1      28.328  57.693  47.179  1.00  0.00    -0.024 C 
ATOM     21  C   UNL     1      27.500  58.978  46.956  1.00  0.00     0.002 C 
ATOM     22  C   UNL     1      27.433  56.529  46.692  1.00  0.00     0.008 C 
ATOM     23  C   UNL     1      27.309  59.282  45.460  1.00  0.00     0.000 C 
ATOM     24  C   UNL     1      27.140  56.673  45.177  1.00  0.00     0.005 C 
ATOM     25  C   UNL     1      26.471  60.555  45.258  1.00  0.00     0.031 C 
ATOM     26  C   UNL     1      26.580  58.091  44.759  1.00  0.00     0.005 C 
ATOM     27  C   UNL     1      26.194  60.799  43.803  1.00  0.00    -0.027 C 
ATOM     28  C   UNL     1      26.569  58.351  43.185  1.00  0.00     0.018 C 
ATOM     29  C   UNL     1      26.280  59.836  42.860  1.00  0.00    -0.063 C 
ATOM     30  C   UNL     1      25.410  57.533  42.507  1.00  0.00     0.127 C 
ATOM     31  C   UNL     1      26.091  60.212  41.401  1.00  0.00     0.063 C 
ATOM     32  C   UNL     1      25.261  57.849  40.997  1.00  0.00     0.065 C 
ATOM     33  C   UNL     1      31.861  58.154  54.218  1.00  0.00     0.010 C 
ATOM     34  C   UNL     1      30.452  56.170  49.500  1.00  0.00     0.014 C 
ATOM     35  C   UNL     1      29.691  57.703  46.385  1.00  0.00     0.012 C 
ATOM     36  C   UNL     1      27.953  58.000  42.551  1.00  0.00     0.019 C 
BRANCH  30  37
ATOM     37  O   UNL     1      25.539  56.147  42.698  1.00  0.00    -0.392 OA
ATOM     38  H   UNL     1      24.773  55.834  43.241  1.00  0.00     0.210 HD
ENDBRANCH  30  37
ENDBRANCH   7   8
ENDBRANCH   1   7
BRANCH   6  39
ATOM     39  O   UNL     1      25.705  62.429  37.453  1.00  0.00    -0.385 OA
ATOM     40  H   UNL     1      25.248  62.929  36.730  1.00  0.00     0.211 HD
ENDBRANCH   6  39
BRANCH   3  41
ATOM     41  C   UNL     1      20.993  61.612  38.450  1.00  0.00     0.191 C 
BRANCH  41  42
ATOM     42  O   UNL     1      20.358  62.837  38.182  1.00  0.00    -0.394 OA
ATOM     43  H   UNL     1      20.999  63.393  37.668  1.00  0.00     0.210 HD
ENDBRANCH  41  42
ENDBRANCH   3  41
BRANCH   5  44
ATOM     44  O   UNL     1      23.799  59.539  36.312  1.00  0.00    -0.387 OA
ATOM     45  H   UNL     1      22.959  59.429  35.800  1.00  0.00     0.211 HD
ENDBRANCH   5  44
BRANCH   4  46
ATOM     46  O   UNL     1      21.845  61.459  35.815  1.00  0.00    -0.341 OA
BRANCH  46  47
ATOM     47  C   UNL     1      21.471  62.510  34.929  1.00  0.00     0.282 C 
ATOM     48  O   UNL     1      20.364  63.214  35.455  1.00  0.00    -0.341 OA
ATOM     49  C   UNL     1      21.099  61.906  33.549  1.00  0.00     0.202 C 
ATOM     50  C   UNL     1      20.121  64.436  34.740  1.00  0.00     0.178 C 
ATOM     51  C   UNL     1      20.209  62.895  32.718  1.00  0.00     0.179 C 
ATOM     52  C   UNL     1      20.439  64.345  33.198  1.00  0.00     0.177 C 
BRANCH  49  53
ATOM     53  O   UNL     1      22.269  61.542  32.860  1.00  0.00    -0.385 OA
ATOM     54  H   UNL     1      22.009  61.242  31.950  1.00  0.00     0.211 HD
ENDBRANCH  49  53
BRANCH  50  55
ATOM     55  C   UNL     1      18.657  64.846  35.006  1.00  0.00     0.191 C 
BRANCH  55  56
ATOM     56  O   UNL     1      18.246  64.445  36.286  1.00  0.00    -0.394 OA
ATOM     57  H   UNL     1      18.668  63.563  36.458  1.00  0.00     0.210 HD
ENDBRANCH  55  56
ENDBRANCH  50  55
BRANCH  51  58
ATOM     58  O   UNL     1      18.838  62.580  32.818  1.00  0.00    -0.387 OA
ATOM     59  H   UNL     1      18.449  62.498  31.909  1.00  0.00     0.211 HD
ENDBRANCH  51  58
BRANCH  52  60
ATOM     60  O   UNL     1      21.781  64.705  32.979  1.00  0.00    -0.387 OA
ATOM     61  H   UNL     1      22.137  64.095  32.282  1.00  0.00     0.211 HD
ENDBRANCH  52  60
ENDBRANCH  46  47
ENDBRANCH   4  46
TORSDOF 14
ENDMDL
MODEL 2
REMARK VINA RESULT:   -13.267      3.187      4.345
REMARK INTER + INTRA:         -22.629
REMARK INTER:                 -21.195
REMARK INTRA:                  -1.434
REMARK UNBOUND:                -1.607
REMARK SMILES C[C@H]1CC[C@@]2(OC1)O[C@H]1C[C@H]3[C@@H]4CC=C5C[C@@H](O[C@@H]6O[C@H](CO)[C@H](O[C@@H]7O[C@H](CO)[C@@H](O)[C@H](O)[C@H]7O)[C@H](O)[C@H]6O)C[C@@H](O)[C@]5(C)[C@H]4CC[C@]3(C)[C@H]1[C@@H]2C
REMARK SMILES IDX 19 1 20 2 21 3 24 4 37 5 39 6 18 7 17 8 2 9 3 10 7 11 4 12
REMARK SMILES IDX 6 13 5 14 8 15 52 16 9 17 51 18 10 19 49 20 11 21 48 22
REMARK SMILES IDX 12 23 47 24 13 25 46 26 14 27 44 28 15 29 42 30 16 31 41 32
REMARK SMILES IDX 1 33 53 34 50 35 45 36 43 37 40 39 22 41 23 42 38 44 25 46
REMARK SMILES IDX 26 47 27 48 35 49 28 50 33 51 31 52 36 53 29 55 30 56 34 58
REMARK SMILES IDX 32 60
REMARK H PARENT 43 38 40 40 23 43 38 45 36 54 30 57 34 59 32 61
ROOT
ATOM      1  C   UNL     1      24.328  60.796  39.144  1.00  0.00     0.282 C 
ATOM      2  O   UNL     1      22.911  60.730  39.016  1.00  0.00    -0.341 OA
ATOM      3  C   UNL     1      22.379  61.779  38.231  1.00  0.00     0.178 C 
ATOM      4  C   UNL     1      22.893  61.733  36.748  1.00  0.00     0.184 C 
ATOM      5  C   UNL     1      24.089  60.760  36.602  1.00  0.00     0.180 C 
ATOM      6  C   UNL     1      25.060  60.991  37.770  1.00  0.00     0.202 C 
ENDROOT
BRANCH   1   7
ATOM      7  O   UNL     1      24.725  59.545  39.670  1.00  0.00    -0.346 OA
BRANCH   7   8
ATOM      8  C   UNL     1      26.114  59.441  39.942  1.00  0.00     0.128 C 
ATOM      9  C   UNL     1      36.961  55.239  47.444  1.00  0.00     0.012 C 
ATOM     10  C   UNL     1      35.691  54.364  47.308  1.00  0.00     0.011 C 
ATOM     11  C   UNL     1      36.636  56.735  47.187  1.00  0.00     0.167 C 
ATOM     12  C   UNL     1      34.451  55.232  47.479  1.00  0.00     0.066 C 
ATOM     13  O   UNL     1      35.752  56.900  46.093  1.00  0.00    -0.349 OA
ATOM     14  C   UNL     1      34.467  56.292  46.323  1.00  0.00     0.171 C 
ATOM     15  O   UNL     1      34.101  55.626  45.124  1.00  0.00    -0.346 OA
ATOM     16  C   UNL     1      33.373  57.344  46.539  1.00  0.00     0.052 C 
ATOM     17  C   UNL     1      33.462  56.593  44.312  1.00  0.00     0.126 C 
ATOM     18  C   UNL     1      33.170  57.866  45.119  1.00  0.00     0.033 C 
ATOM     19  C   UNL     1      32.110  56.147  43.745  1.00  0.00     0.037 C 
ATOM     20  C   UNL     1      31.734  58.332  44.662  1.00  0.00    -0.024 C 
ATOM     21  C   UNL     1      31.539  57.514  43.367  1.00  0.00     0.002 C 
ATOM     22  C   UNL     1      31.641  59.817  44.237  1.00  0.00     0.008 C 
ATOM     23  C   UNL     1      30.104  57.636  42.824  1.00  0.00     0.000 C 
ATOM     24  C   UNL     1      30.234  60.125  43.664  1.00  0.00     0.005 C 
ATOM     25  C   UNL     1      29.932  56.827  41.528  1.00  0.00     0.031 C 
ATOM     26  C   UNL     1      29.769  59.132  42.525  1.00  0.00     0.005 C 
ATOM     27  C   UNL     1      28.566  57.026  40.939  1.00  0.00    -0.027 C 
ATOM     28  C   UNL     1      28.223  59.247  42.150  1.00  0.00     0.018 C 
ATOM     29  C   UNL     1      27.773  58.077  41.244  1.00  0.00    -0.063 C 
ATOM     30  C   UNL     1      27.961  60.555  41.317  1.00  0.00     0.127 C 
ATOM     31  C   UNL     1      26.363  58.124  40.682  1.00  0.00     0.063 C 
ATOM     32  C   UNL     1      26.500  60.654  40.806  1.00  0.00     0.065 C 
ATOM     33  C   UNL     1      37.595  55.094  48.834  1.00  0.00     0.010 C 
ATOM     34  C   UNL     1      33.671  58.439  47.570  1.00  0.00     0.014 C 
ATOM     35  C   UNL     1      30.645  58.008  45.756  1.00  0.00     0.012 C 
ATOM     36  C   UNL     1      27.332  59.208  43.433  1.00  0.00     0.019 C 
BRANCH  30  37
ATOM     37  O   UNL     1      28.306  61.723  42.018  1.00  0.00    -0.392 OA
ATOM     38  H   UNL     1      29.293  61.794  42.039  1.00  0.00     0.210 HD
ENDBRANCH  30  37
ENDBRANCH   7   8
ENDBRANCH   1   7
BRANCH   6  39
ATOM     39  O   UNL     1      25.657  62.265  37.670  1.00  0.00    -0.385 OA
ATOM     40  H   UNL     1      25.068  62.861  37.142  1.00  0.00     0.211 HD
ENDBRANCH   6  39
BRANCH   3  41
ATOM     41  C   UNL     1      20.849  61.735  38.353  1.00  0.00     0.191 C 
BRANCH  41  42
ATOM     42  O   UNL     1      20.315  63.022  38.172  1.00  0.00    -0.394 OA
ATOM     43  H   UNL     1      20.327  63.471  39.057  1.00  0.00     0.210 HD
ENDBRANCH  41  42
ENDBRANCH   3  41
BRANCH   5  44
ATOM     44  O   UNL     1      23.693  59.404  36.555  1.00  0.00    -0.387 OA
ATOM     45  H   UNL     1      22.905  59.258  37.137  1.00  0.00     0.211 HD
ENDBRANCH   5  44
BRANCH   4  46
ATOM     46  O   UNL     1      21.882  61.381  35.803  1.00  0.00    -0.341 OA
BRANCH  46  47
ATOM     47  C   UNL     1      21.527  62.443  34.922  1.00  0.00     0.282 C 
ATOM     48  O   UNL     1      20.419  63.151  35.442  1.00  0.00    -0.341 OA
ATOM     49  C   UNL     1      21.167  61.855  33.532  1.00  0.00     0.202 C 
ATOM     50  C   UNL     1      20.194  64.381  34.735  1.00  0.00     0.178 C 
ATOM     51  C   UNL     1      20.294  62.858  32.700  1.00  0.00     0.179 C 
ATOM     52  C   UNL     1      20.530  64.303  33.196  1.00  0.00     0.177 C 
BRANCH  49  53
ATOM     53  O   UNL     1      22.342  61.488  32.853  1.00  0.00    -0.385 OA
ATOM     54  H   UNL     1      22.557  62.205  32.203  1.00  0.00     0.211 HD
ENDBRANCH  49  53
BRANCH  50  55
ATOM     55  C   UNL     1      18.731  64.800  34.987  1.00  0.00     0.191 C 
BRANCH  55  56
ATOM     56  O   UNL     1      18.306  64.406  36.265  1.00  0.00    -0.394 OA
ATOM     57  H   UNL     1      18.360  65.210  36.844  1.00  0.00     0.210 HD
ENDBRANCH  55  56
ENDBRANCH  50  55
BRANCH  51  58
ATOM     58  O   UNL     1      18.920  62.553  32.780  1.00  0.00    -0.387 OA
ATOM     59  H   UNL     1      18.757  61.949  33.550  1.00  0.00     0.211 HD
ENDBRANCH  51  58
BRANCH  52  60
ATOM     60  O   UNL     1      21.877  64.654  32.997  1.00  0.00    -0.387 OA
ATOM     61  H   UNL     1      21.902  65.633  32.832  1.00  0.00     0.211 HD
ENDBRANCH  52  60
ENDBRANCH  46  47
ENDBRANCH   4  46
TORSDOF 14
ENDMDL
MODEL 3
REMARK VINA RESULT:   -13.266      1.300      2.289
REMARK INTER + INTRA:         -22.627
REMARK INTER:                 -21.142
REMARK INTRA:                  -1.486
REMARK UNBOUND:                -1.607
REMARK SMILES C[C@H]1CC[C@@]2(OC1)O[C@H]1C[C@H]3[C@@H]4CC=C5C[C@@H](O[C@@H]6O[C@H](CO)[C@H](O[C@@H]7O[C@H](CO)[C@@H](O)[C@H](O)[C@H]7O)[C@H](O)[C@H]6O)C[C@@H](O)[C@]5(C)[C@H]4CC[C@]3(C)[C@H]1[C@@H]2C
REMARK SMILES IDX 19 1 20 2 21 3 24 4 37 5 39 6 18 7 17 8 2 9 3 10 7 11 4 12
REMARK SMILES IDX 6 13 5 14 8 15 52 16 9 17 51 18 10 19 49 20 11 21 48 22
REMARK SMILES IDX 12 23 47 24 13 25 46 26 14 27 44 28 15 29 42 30 16 31 41 32
REMARK SMILES IDX 1 33 53 34 50 35 45 36 43 37 40 39 22 41 23 42 38 44 25 46
REMARK SMILES IDX 26 47 27 48 35 49 28 50 33 51 31 52 36 53 29 55 30 56 34 58
REMARK SMILES IDX 32 60
REMARK H PARENT 43 38 40 40 23 43 38 45 36 54 30 57 34 59 32 61
ROOT
ATOM      1  C   UNL     1      24.310  60.605  38.943  1.00  0.00     0.282 C 
ATOM      2  O   UNL     1      22.888  60.588  38.851  1.00  0.00    -0.341 OA
ATOM      3  C   UNL     1      22.372  61.675  38.108  1.00  0.00     0.178 C 
ATOM      4  C   UNL     1      22.846  61.652  36.611  1.00  0.00     0.184 C 
ATOM      5  C   UNL     1      24.004  60.644  36.408  1.00  0.00     0.180 C 
ATOM      6  C   UNL     1      25.012  60.812  37.555  1.00  0.00     0.202 C 
ENDROOT
BRANCH   1   7
ATOM      7  O   UNL     1      24.679  59.327  39.426  1.00  0.00    -0.346 OA
BRANCH   7   8
ATOM      8  C   UNL     1      25.826  59.329  40.261  1.00  0.00     0.128 C 
ATOM      9  C   UNL     1      32.340  57.361  52.315  1.00  0.00     0.012 C 
ATOM     10  C   UNL     1      31.170  56.447  51.876  1.00  0.00     0.011 C 
ATOM     11  C   UNL     1      32.264  58.741  51.607  1.00  0.00     0.167 C 
ATOM     12  C   UNL     1      30.039  57.298  51.314  1.00  0.00     0.066 C 
ATOM     13  O   UNL     1      31.915  58.612  50.241  1.00  0.00    -0.349 OA
ATOM     14  C   UNL     1      30.605  58.045  50.055  1.00  0.00     0.171 C 
ATOM     15  O   UNL     1      30.705  57.098  49.003  1.00  0.00    -0.346 OA
ATOM     16  C   UNL     1      29.602  59.089  49.551  1.00  0.00     0.052 C 
ATOM     17  C   UNL     1      30.527  57.821  47.799  1.00  0.00     0.126 C 
ATOM     18  C   UNL     1      30.032  59.244  48.094  1.00  0.00     0.033 C 
ATOM     19  C   UNL     1      29.490  57.216  46.847  1.00  0.00     0.037 C 
ATOM     20  C   UNL     1      28.946  59.548  46.992  1.00  0.00    -0.024 C 
ATOM     21  C   UNL     1      29.230  58.434  45.961  1.00  0.00     0.002 C 
ATOM     22  C   UNL     1      29.149  60.882  46.234  1.00  0.00     0.008 C 
ATOM     23  C   UNL     1      28.152  58.384  44.864  1.00  0.00     0.000 C 
ATOM     24  C   UNL     1      28.124  61.004  45.078  1.00  0.00     0.005 C 
ATOM     25  C   UNL     1      28.457  57.279  43.839  1.00  0.00     0.031 C 
ATOM     26  C   UNL     1      28.084  59.753  44.114  1.00  0.00     0.005 C 
ATOM     27  C   UNL     1      27.467  57.293  42.711  1.00  0.00    -0.027 C 
ATOM     28  C   UNL     1      26.837  59.733  43.121  1.00  0.00     0.018 C 
ATOM     29  C   UNL     1      26.703  58.366  42.409  1.00  0.00    -0.063 C 
ATOM     30  C   UNL     1      27.037  60.791  41.975  1.00  0.00     0.127 C 
ATOM     31  C   UNL     1      25.650  58.239  41.322  1.00  0.00     0.063 C 
ATOM     32  C   UNL     1      25.921  60.726  40.900  1.00  0.00     0.065 C 
ATOM     33  C   UNL     1      32.344  57.576  53.834  1.00  0.00     0.010 C 
ATOM     34  C   UNL     1      29.541  60.410  50.327  1.00  0.00     0.014 C 
ATOM     35  C   UNL     1      27.486  59.472  47.584  1.00  0.00     0.012 C 
ATOM     36  C   UNL     1      25.502  59.985  43.894  1.00  0.00     0.019 C 
BRANCH  30  37
ATOM     37  O   UNL     1      27.158  62.103  42.463  1.00  0.00    -0.392 OA
ATOM     38  H   UNL     1      27.881  62.557  41.960  1.00  0.00     0.210 HD
ENDBRANCH  30  37
ENDBRANCH   7   8
ENDBRANCH   1   7
BRANCH   6  39
ATOM     39  O   UNL     1      25.649  62.067  37.472  1.00  0.00    -0.385 OA
ATOM     40  H   UNL     1      26.523  62.022  37.936  1.00  0.00     0.211 HD
ENDBRANCH   6  39
BRANCH   3  41
ATOM     41  C   UNL     1      20.845  61.678  38.269  1.00  0.00     0.191 C 
BRANCH  41  42
ATOM     42  O   UNL     1      20.347  62.982  38.107  1.00  0.00    -0.394 OA
ATOM     43  H   UNL     1      20.449  63.445  38.978  1.00  0.00     0.210 HD
ENDBRANCH  41  42
ENDBRANCH   3  41
BRANCH   5  44
ATOM     44  O   UNL     1      23.561  59.303  36.337  1.00  0.00    -0.387 OA
ATOM     45  H   UNL     1      22.709  59.252  35.836  1.00  0.00     0.211 HD
ENDBRANCH   5  44
BRANCH   4  46
ATOM     46  O   UNL     1      21.800  61.358  35.685  1.00  0.00    -0.341 OA
BRANCH  46  47
ATOM     47  C   UNL     1      21.462  62.452  34.836  1.00  0.00     0.282 C 
ATOM     48  O   UNL     1      20.364  63.161  35.376  1.00  0.00    -0.341 OA
ATOM     49  C   UNL     1      21.096  61.913  33.428  1.00  0.00     0.202 C 
ATOM     50  C   UNL     1      20.160  64.416  34.707  1.00  0.00     0.178 C 
ATOM     51  C   UNL     1      20.241  62.954  32.626  1.00  0.00     0.179 C 
ATOM     52  C   UNL     1      20.497  64.379  33.167  1.00  0.00     0.177 C 
BRANCH  49  53
ATOM     53  O   UNL     1      22.267  61.548  32.741  1.00  0.00    -0.385 OA
ATOM     54  H   UNL     1      22.748  60.876  33.289  1.00  0.00     0.211 HD
ENDBRANCH  49  53
BRANCH  50  55
ATOM     55  C   UNL     1      18.703  64.849  34.969  1.00  0.00     0.191 C 
BRANCH  55  56
ATOM     56  O   UNL     1      18.301  64.506  36.269  1.00  0.00    -0.394 OA
ATOM     57  H   UNL     1      17.315  64.620  36.302  1.00  0.00     0.210 HD
ENDBRANCH  55  56
ENDBRANCH  50  55
BRANCH  51  58
ATOM     58  O   UNL     1      18.862  62.668  32.695  1.00  0.00    -0.387 OA
ATOM     59  H   UNL     1      18.692  62.021  33.426  1.00  0.00     0.211 HD
ENDBRANCH  51  58
BRANCH  52  60
ATOM     60  O   UNL     1      21.851  64.715  32.980  1.00  0.00    -0.387 OA
ATOM     61  H   UNL     1      21.909  65.232  32.135  1.00  0.00     0.211 HD
ENDBRANCH  52  60
ENDBRANCH  46  47
ENDBRANCH   4  46
TORSDOF 14
ENDMDL
MODEL 4
REMARK VINA RESULT:   -13.035      3.291      4.013
REMARK INTER + INTRA:         -22.261
REMARK INTER:                 -21.017
REMARK INTRA:                  -1.244
REMARK UNBOUND:                -1.607
REMARK SMILES C[C@H]1CC[C@@]2(OC1)O[C@H]1C[C@H]3[C@@H]4CC=C5C[C@@H](O[C@@H]6O[C@H](CO)[C@H](O[C@@H]7O[C@H](CO)[C@@H](O)[C@H](O)[C@H]7O)[C@H](O)[C@H]6O)C[C@@H](O)[C@]5(C)[C@H]4CC[C@]3(C)[C@H]1[C@@H]2C
REMARK SMILES IDX 19 1 20 2 21 3 24 4 37 5 39 6 18 7 17 8 2 9 3 10 7 11 4 12
REMARK SMILES IDX 6 13 5 14 8 15 52 16 9 17 51 18 10 19 49 20 11 21 48 22
REMARK SMILES IDX 12 23 47 24 13 25 46 26 14 27 44 28 15 29 42 30 16 31 41 32
REMARK SMILES IDX 1 33 53 34 50 35 45 36 43 37 40 39 22 41 23 42 38 44 25 46
REMARK SMILES IDX 26 47 27 48 35 49 28 50 33 51 31 52 36 53 29 55 30 56 34 58
REMARK SMILES IDX 32 60
REMARK H PARENT 43 38 40 40 23 43 38 45 36 54 30 57 34 59 32 61
ROOT
ATOM      1  C   UNL     1      24.025  60.540  39.194  1.00  0.00     0.282 C 
ATOM      2  O   UNL     1      22.687  60.195  38.846  1.00  0.00    -0.341 OA
ATOM      3  C   UNL     1      22.002  61.242  38.187  1.00  0.00     0.178 C 
ATOM      4  C   UNL     1      22.665  61.615  36.813  1.00  0.00     0.184 C 
ATOM      5  C   UNL     1      24.069  60.975  36.679  1.00  0.00     0.180 C 
ATOM      6  C   UNL     1      24.827  61.167  38.002  1.00  0.00     0.202 C 
ENDROOT
BRANCH   1   7
ATOM      7  O   UNL     1      24.656  59.324  39.546  1.00  0.00    -0.346 OA
BRANCH   7   8
ATOM      8  C   UNL     1      25.529  59.422  40.661  1.00  0.00     0.128 C 
ATOM      9  C   UNL     1      37.375  56.855  47.344  1.00  0.00     0.012 C 
ATOM     10  C   UNL     1      37.349  57.072  45.811  1.00  0.00     0.011 C 
ATOM     11  C   UNL     1      35.989  56.387  47.864  1.00  0.00     0.167 C 
ATOM     12  C   UNL     1      36.188  56.295  45.205  1.00  0.00     0.066 C 
ATOM     13  O   UNL     1      34.931  57.097  47.248  1.00  0.00    -0.349 OA
ATOM     14  C   UNL     1      34.870  56.876  45.826  1.00  0.00     0.171 C 
ATOM     15  O   UNL     1      34.627  58.135  45.219  1.00  0.00    -0.346 OA
ATOM     16  C   UNL     1      33.663  56.013  45.438  1.00  0.00     0.052 C 
ATOM     17  C   UNL     1      33.222  58.312  45.219  1.00  0.00     0.126 C 
ATOM     18  C   UNL     1      32.515  57.005  45.602  1.00  0.00     0.033 C 
ATOM     19  C   UNL     1      32.637  58.713  43.860  1.00  0.00     0.037 C 
ATOM     20  C   UNL     1      31.264  56.909  44.647  1.00  0.00    -0.024 C 
ATOM     21  C   UNL     1      31.172  58.354  44.109  1.00  0.00     0.002 C 
ATOM     22  C   UNL     1      29.920  56.643  45.366  1.00  0.00     0.008 C 
ATOM     23  C   UNL     1      30.136  58.477  42.978  1.00  0.00     0.000 C 
ATOM     24  C   UNL     1      28.746  56.723  44.357  1.00  0.00     0.005 C 
ATOM     25  C   UNL     1      30.048  59.924  42.464  1.00  0.00     0.031 C 
ATOM     26  C   UNL     1      28.725  58.045  43.491  1.00  0.00     0.005 C 
ATOM     27  C   UNL     1      28.967  60.071  41.433  1.00  0.00    -0.027 C 
ATOM     28  C   UNL     1      27.720  58.000  42.253  1.00  0.00     0.018 C 
ATOM     29  C   UNL     1      27.948  59.194  41.297  1.00  0.00    -0.063 C 
ATOM     30  C   UNL     1      26.235  58.132  42.754  1.00  0.00     0.127 C 
ATOM     31  C   UNL     1      26.971  59.371  40.148  1.00  0.00     0.063 C 
ATOM     32  C   UNL     1      25.219  58.232  41.587  1.00  0.00     0.065 C 
ATOM     33  C   UNL     1      38.438  55.823  47.746  1.00  0.00     0.010 C 
ATOM     34  C   UNL     1      33.476  54.707  46.220  1.00  0.00     0.014 C 
ATOM     35  C   UNL     1      31.491  55.848  43.503  1.00  0.00     0.012 C 
ATOM     36  C   UNL     1      27.919  56.694  41.419  1.00  0.00     0.019 C 
BRANCH  30  37
ATOM     37  O   UNL     1      25.863  57.098  43.629  1.00  0.00    -0.392 OA
ATOM     38  H   UNL     1      26.684  56.637  43.934  1.00  0.00     0.210 HD
ENDBRANCH  30  37
ENDBRANCH   7   8
ENDBRANCH   1   7
BRANCH   6  39
ATOM     39  O   UNL     1      25.106  62.533  38.216  1.00  0.00    -0.385 OA
ATOM     40  H   UNL     1      25.870  62.616  38.842  1.00  0.00     0.211 HD
ENDBRANCH   6  39
BRANCH   3  41
ATOM     41  C   UNL     1      20.525  60.843  38.069  1.00  0.00     0.191 C 
BRANCH  41  42
ATOM     42  O   UNL     1      20.420  59.533  37.570  1.00  0.00    -0.394 OA
ATOM     43  H   UNL     1      21.340  59.220  37.372  1.00  0.00     0.210 HD
ENDBRANCH  41  42
ENDBRANCH   3  41
BRANCH   5  44
ATOM     44  O   UNL     1      24.020  59.605  36.336  1.00  0.00    -0.387 OA
ATOM     45  H   UNL     1      24.133  59.494  35.359  1.00  0.00     0.211 HD
ENDBRANCH   5  44
BRANCH   4  46
ATOM     46  O   UNL     1      21.874  61.253  35.681  1.00  0.00    -0.341 OA
BRANCH  46  47
ATOM     47  C   UNL     1      21.531  62.356  34.845  1.00  0.00     0.282 C 
ATOM     48  O   UNL     1      20.427  63.050  35.392  1.00  0.00    -0.341 OA
ATOM     49  C   UNL     1      21.172  61.833  33.430  1.00  0.00     0.202 C 
ATOM     50  C   UNL     1      20.216  64.312  34.739  1.00  0.00     0.178 C 
ATOM     51  C   UNL     1      20.312  62.879  32.639  1.00  0.00     0.179 C 
ATOM     52  C   UNL     1      20.557  64.298  33.199  1.00  0.00     0.177 C 
BRANCH  49  53
ATOM     53  O   UNL     1      22.347  61.486  32.740  1.00  0.00    -0.385 OA
ATOM     54  H   UNL     1      23.120  61.820  33.264  1.00  0.00     0.211 HD
ENDBRANCH  49  53
BRANCH  50  55
ATOM     55  C   UNL     1      18.756  64.733  35.003  1.00  0.00     0.191 C 
BRANCH  55  56
ATOM     56  O   UNL     1      18.339  64.332  36.282  1.00  0.00    -0.394 OA
ATOM     57  H   UNL     1      18.583  63.374  36.374  1.00  0.00     0.210 HD
ENDBRANCH  55  56
ENDBRANCH  50  55
BRANCH  51  58
ATOM     58  O   UNL     1      18.935  62.583  32.701  1.00  0.00    -0.387 OA
ATOM     59  H   UNL     1      18.687  61.994  31.942  1.00  0.00     0.211 HD
ENDBRANCH  51  58
BRANCH  52  60
ATOM     60  O   UNL     1      21.909  64.646  33.021  1.00  0.00    -0.387 OA
ATOM     61  H   UNL     1      21.991  65.614  33.228  1.00  0.00     0.211 HD
ENDBRANCH  52  60
ENDBRANCH  46  47
ENDBRANCH   4  46
TORSDOF 14
ENDMDL
MODEL 5
REMARK VINA RESULT:   -12.857      2.115      2.635
REMARK INTER + INTRA:         -21.980
REMARK INTER:                 -20.141
REMARK INTRA:                  -1.839
REMARK UNBOUND:                -1.607
REMARK SMILES C[C@H]1CC[C@@]2(OC1)O[C@H]1C[C@H]3[C@@H]4CC=C5C[C@@H](O[C@@H]6O[C@H](CO)[C@H](O[C@@H]7O[C@H](CO)[C@@H](O)[C@H](O)[C@H]7O)[C@H](O)[C@H]6O)C[C@@H](O)[C@]5(C)[C@H]4CC[C@]3(C)[C@H]1[C@@H]2C
REMARK SMILES IDX 19 1 20 2 21 3 24 4 37 5 39 6 18 7 17 8 2 9 3 10 7 11 4 12
REMARK SMILES IDX 6 13 5 14 8 15 52 16 9 17 51 18 10 19 49 20 11 21 48 22
REMARK SMILES IDX 12 23 47 24 13 25 46 26 14 27 44 28 15 29 42 30 16 31 41 32
REMARK SMILES IDX 1 33 53 34 50 35 45 36 43 37 40 39 22 41 23 42 38 44 25 46
REMARK SMILES IDX 26 47 27 48 35 49 28 50 33 51 31 52 36 53 29 55 30 56 34 58
REMARK SMILES IDX 32 60
REMARK H PARENT 43 38 40 40 23 43 38 45 36 54 30 57 34 59 32 61
ROOT
ATOM      1  C   UNL     1      24.439  60.700  39.193  1.00  0.00     0.282 C 
ATOM      2  O   UNL     1      23.243  60.076  38.735  1.00  0.00    -0.341 OA
ATOM      3  C   UNL     1      22.339  60.988  38.141  1.00  0.00     0.178 C 
ATOM      4  C   UNL     1      22.932  61.659  36.850  1.00  0.00     0.184 C 
ATOM      5  C   UNL     1      24.456  61.402  36.738  1.00  0.00     0.180 C 
ATOM      6  C   UNL     1      25.098  61.631  38.116  1.00  0.00     0.202 C 
ENDROOT
BRANCH   1   7
ATOM      7  O   UNL     1      25.343  59.646  39.462  1.00  0.00    -0.346 OA
BRANCH   7   8
ATOM      8  C   UNL     1      25.871  59.653  40.780  1.00  0.00     0.128 C 
ATOM      9  C   UNL     1      32.424  53.848  51.501  1.00  0.00     0.012 C 
ATOM     10  C   UNL     1      32.830  53.525  50.042  1.00  0.00     0.011 C 
ATOM     11  C   UNL     1      30.955  54.346  51.573  1.00  0.00     0.167 C 
ATOM     12  C   UNL     1      31.580  53.291  49.203  1.00  0.00     0.066 C 
ATOM     13  O   UNL     1      30.652  55.241  50.520  1.00  0.00    -0.349 OA
ATOM     14  C   UNL     1      30.755  54.625  49.222  1.00  0.00     0.171 C 
ATOM     15  O   UNL     1      31.414  55.550  48.372  1.00  0.00    -0.346 OA
ATOM     16  C   UNL     1      29.377  54.416  48.584  1.00  0.00     0.052 C 
ATOM     17  C   UNL     1      30.407  56.399  47.853  1.00  0.00     0.126 C 
ATOM     18  C   UNL     1      29.014  55.841  48.172  1.00  0.00     0.033 C 
ATOM     19  C   UNL     1      30.445  56.564  46.330  1.00  0.00     0.037 C 
ATOM     20  C   UNL     1      28.158  56.079  46.869  1.00  0.00    -0.024 C 
ATOM     21  C   UNL     1      29.030  57.099  46.106  1.00  0.00     0.002 C 
ATOM     22  C   UNL     1      26.800  56.783  47.107  1.00  0.00     0.008 C 
ATOM     23  C   UNL     1      28.506  57.345  44.680  1.00  0.00     0.000 C 
ATOM     24  C   UNL     1      26.118  57.103  45.753  1.00  0.00     0.005 C 
ATOM     25  C   UNL     1      29.377  58.373  43.940  1.00  0.00     0.031 C 
ATOM     26  C   UNL     1      27.040  57.881  44.731  1.00  0.00     0.005 C 
ATOM     27  C   UNL     1      28.812  58.694  42.588  1.00  0.00    -0.027 C 
ATOM     28  C   UNL     1      26.463  57.942  43.246  1.00  0.00     0.018 C 
ATOM     29  C   UNL     1      27.524  58.463  42.249  1.00  0.00    -0.063 C 
ATOM     30  C   UNL     1      25.269  58.962  43.168  1.00  0.00     0.127 C 
ATOM     31  C   UNL     1      27.081  58.716  40.819  1.00  0.00     0.063 C 
ATOM     32  C   UNL     1      24.753  59.168  41.720  1.00  0.00     0.065 C 
ATOM     33  C   UNL     1      32.584  52.622  52.411  1.00  0.00     0.010 C 
ATOM     34  C   UNL     1      28.317  53.728  49.452  1.00  0.00     0.014 C 
ATOM     35  C   UNL     1      27.945  54.738  46.065  1.00  0.00     0.012 C 
ATOM     36  C   UNL     1      26.026  56.524  42.758  1.00  0.00     0.019 C 
BRANCH  30  37
ATOM     37  O   UNL     1      24.202  58.616  44.013  1.00  0.00    -0.392 OA
ATOM     38  H   UNL     1      24.230  57.638  44.167  1.00  0.00     0.210 HD
ENDBRANCH  30  37
ENDBRANCH   7   8
ENDBRANCH   1   7
BRANCH   6  39
ATOM     39  O   UNL     1      25.018  62.992  38.477  1.00  0.00    -0.385 OA
ATOM     40  H   UNL     1      25.931  63.342  38.635  1.00  0.00     0.211 HD
ENDBRANCH   6  39
BRANCH   3  41
ATOM     41  C   UNL     1      21.014  60.252  37.898  1.00  0.00     0.191 C 
BRANCH  41  42
ATOM     42  O   UNL     1      19.990  61.180  37.643  1.00  0.00    -0.394 OA
ATOM     43  H   UNL     1      20.267  62.042  38.048  1.00  0.00     0.210 HD
ENDBRANCH  41  42
ENDBRANCH   3  41
BRANCH   5  44
ATOM     44  O   UNL     1      24.763  60.108  36.262  1.00  0.00    -0.387 OA
ATOM     45  H   UNL     1      24.129  59.847  35.549  1.00  0.00     0.211 HD
ENDBRANCH   5  44
BRANCH   4  46
ATOM     46  O   UNL     1      22.295  61.238  35.644  1.00  0.00    -0.341 OA
BRANCH  46  47
ATOM     47  C   UNL     1      21.784  62.314  34.861  1.00  0.00     0.282 C 
ATOM     48  O   UNL     1      20.730  62.955  35.552  1.00  0.00    -0.341 OA
ATOM     49  C   UNL     1      21.262  61.759  33.510  1.00  0.00     0.202 C 
ATOM     50  C   UNL     1      20.366  64.198  34.932  1.00  0.00     0.178 C 
ATOM     51  C   UNL     1      20.248  62.752  32.842  1.00  0.00     0.179 C 
ATOM     52  C   UNL     1      20.493  64.187  33.360  1.00  0.00     0.177 C 
BRANCH  49  53
ATOM     53  O   UNL     1      22.348  61.467  32.666  1.00  0.00    -0.385 OA
ATOM     54  H   UNL     1      22.833  60.691  33.048  1.00  0.00     0.211 HD
ENDBRANCH  49  53
BRANCH  50  55
ATOM     55  C   UNL     1      18.935  64.545  35.393  1.00  0.00     0.191 C 
BRANCH  55  56
ATOM     56  O   UNL     1      18.344  63.462  36.062  1.00  0.00    -0.394 OA
ATOM     57  H   UNL     1      17.390  63.445  35.790  1.00  0.00     0.210 HD
ENDBRANCH  55  56
ENDBRANCH  50  55
BRANCH  51  58
ATOM     58  O   UNL     1      18.910  62.386  33.093  1.00  0.00    -0.387 OA
ATOM     59  H   UNL     1      18.335  63.194  33.077  1.00  0.00     0.211 HD
ENDBRANCH  51  58
BRANCH  52  60
ATOM     60  O   UNL     1      21.787  64.603  32.997  1.00  0.00    -0.387 OA
ATOM     61  H   UNL     1      21.814  65.591  33.092  1.00  0.00     0.211 HD
ENDBRANCH  52  60
ENDBRANCH  46  47
ENDBRANCH   4  46
TORSDOF 14
ENDMDL
MODEL 6
REMARK VINA RESULT:   -12.760      2.742      4.253
REMARK INTER + INTRA:         -21.826
REMARK INTER:                 -20.859
REMARK INTRA:                  -0.967
REMARK UNBOUND:                -1.607
REMARK SMILES C[C@H]1CC[C@@]2(OC1)O[C@H]1C[C@H]3[C@@H]4CC=C5C[C@@H](O[C@@H]6O[C@H](CO)[C@H](O[C@@H]7O[C@H](CO)[C@@H](O)[C@H](O)[C@H]7O)[C@H](O)[C@H]6O)C[C@@H](O)[C@]5(C)[C@H]4CC[C@]3(C)[C@H]1[C@@H]2C
REMARK SMILES IDX 19 1 20 2 21 3 24 4 37 5 39 6 18 7 17 8 2 9 3 10 7 11 4 12
REMARK SMILES IDX 6 13 5 14 8 15 52 16 9 17 51 18 10 19 49 20 11 21 48 22
REMARK SMILES IDX 12 23 47 24 13 25 46 26 14 27 44 28 15 29 42 30 16 31 41 32
REMARK SMILES IDX 1 33 53 34 50 35 45 36 43 37 40 39 22 41 23 42 38 44 25 46
REMARK SMILES IDX 26 47 27 48 35 49 28 50 33 51 31 52 36 53 29 55 30 56 34 58
REMARK SMILES IDX 32 60
REMARK H PARENT 43 38 40 40 23 43 38 45 36 54 30 57 34 59 32 61
ROOT
ATOM      1  C   UNL     1      23.594  61.297  39.306  1.00  0.00     0.282 C 
ATOM      2  O   UNL     1      24.075  60.917  38.020  1.00  0.00    -0.341 OA
ATOM      3  C   UNL     1      23.038  60.544  37.133  1.00  0.00     0.178 C 
ATOM      4  C   UNL     1      22.056  61.732  36.831  1.00  0.00     0.184 C 
ATOM      5  C   UNL     1      22.278  62.903  37.820  1.00  0.00     0.180 C 
ATOM      6  C   UNL     1      22.417  62.332  39.240  1.00  0.00     0.202 C 
ENDROOT
BRANCH   1   7
ATOM      7  O   UNL     1      24.684  61.926  39.953  1.00  0.00    -0.346 OA
BRANCH   7   8
ATOM      8  C   UNL     1      25.638  61.025  40.496  1.00  0.00     0.128 C 
ATOM      9  C   UNL     1      29.588  50.876  49.038  1.00  0.00     0.012 C 
ATOM     10  C   UNL     1      28.167  50.901  48.424  1.00  0.00     0.011 C 
ATOM     11  C   UNL     1      30.206  52.300  49.070  1.00  0.00     0.167 C 
ATOM     12  C   UNL     1      27.597  52.310  48.510  1.00  0.00     0.066 C 
ATOM     13  O   UNL     1      29.942  53.013  47.876  1.00  0.00    -0.349 OA
ATOM     14  C   UNL     1      28.535  53.241  47.666  1.00  0.00     0.171 C 
ATOM     15  O   UNL     1      28.272  52.986  46.295  1.00  0.00    -0.346 OA
ATOM     16  C   UNL     1      28.163  54.714  47.871  1.00  0.00     0.052 C 
ATOM     17  C   UNL     1      28.537  54.195  45.608  1.00  0.00     0.126 C 
ATOM     18  C   UNL     1      28.727  55.349  46.603  1.00  0.00     0.033 C 
ATOM     19  C   UNL     1      27.415  54.645  44.667  1.00  0.00     0.037 C 
ATOM     20  C   UNL     1      27.988  56.584  45.958  1.00  0.00    -0.024 C 
ATOM     21  C   UNL     1      27.809  56.113  44.499  1.00  0.00     0.002 C 
ATOM     22  C   UNL     1      28.835  57.877  45.880  1.00  0.00     0.008 C 
ATOM     23  C   UNL     1      26.915  57.073  43.694  1.00  0.00     0.000 C 
ATOM     24  C   UNL     1      28.071  58.973  45.096  1.00  0.00     0.005 C 
ATOM     25  C   UNL     1      26.759  56.596  42.241  1.00  0.00     0.031 C 
ATOM     26  C   UNL     1      27.537  58.505  43.683  1.00  0.00     0.005 C 
ATOM     27  C   UNL     1      25.974  57.581  41.425  1.00  0.00    -0.027 C 
ATOM     28  C   UNL     1      26.499  59.511  43.011  1.00  0.00     0.018 C 
ATOM     29  C   UNL     1      25.810  58.874  41.781  1.00  0.00    -0.063 C 
ATOM     30  C   UNL     1      27.248  60.783  42.468  1.00  0.00     0.127 C 
ATOM     31  C   UNL     1      24.902  59.760  40.946  1.00  0.00     0.063 C 
ATOM     32  C   UNL     1      26.311  61.737  41.682  1.00  0.00     0.065 C 
ATOM     33  C   UNL     1      29.573  50.303  50.462  1.00  0.00     0.010 C 
ATOM     34  C   UNL     1      28.653  55.369  49.168  1.00  0.00     0.014 C 
ATOM     35  C   UNL     1      26.614  56.874  46.677  1.00  0.00     0.012 C 
ATOM     36  C   UNL     1      25.373  59.908  44.018  1.00  0.00     0.019 C 
BRANCH  30  37
ATOM     37  O   UNL     1      27.918  61.492  43.479  1.00  0.00    -0.392 OA
ATOM     38  H   UNL     1      28.133  60.862  44.212  1.00  0.00     0.210 HD
ENDBRANCH  30  37
ENDBRANCH   7   8
ENDBRANCH   1   7
BRANCH   6  39
ATOM     39  O   UNL     1      21.197  61.767  39.666  1.00  0.00    -0.385 OA
ATOM     40  H   UNL     1      20.709  62.425  40.222  1.00  0.00     0.211 HD
ENDBRANCH   6  39
BRANCH   3  41
ATOM     41  C   UNL     1      23.683  59.945  35.875  1.00  0.00     0.191 C 
BRANCH  41  42
ATOM     42  O   UNL     1      25.026  59.621  36.131  1.00  0.00    -0.394 OA
ATOM     43  H   UNL     1      25.289  60.096  36.962  1.00  0.00     0.210 HD
ENDBRANCH  41  42
ENDBRANCH   3  41
BRANCH   5  44
ATOM     44  O   UNL     1      23.405  63.692  37.497  1.00  0.00    -0.387 OA
ATOM     45  H   UNL     1      24.037  63.172  36.940  1.00  0.00     0.211 HD
ENDBRANCH   5  44
BRANCH   4  46
ATOM     46  O   UNL     1      22.147  62.223  35.494  1.00  0.00    -0.341 OA
BRANCH  46  47
ATOM     47  C   UNL     1      21.072  63.083  35.125  1.00  0.00     0.282 C 
ATOM     48  O   UNL     1      19.837  62.477  35.450  1.00  0.00    -0.341 OA
ATOM     49  C   UNL     1      21.136  63.354  33.599  1.00  0.00     0.202 C 
ATOM     50  C   UNL     1      18.745  63.405  35.348  1.00  0.00     0.178 C 
ATOM     51  C   UNL     1      19.748  63.836  33.050  1.00  0.00     0.179 C 
ATOM     52  C   UNL     1      18.916  64.463  34.191  1.00  0.00     0.177 C 
BRANCH  49  53
ATOM     53  O   UNL     1      22.162  64.275  33.323  1.00  0.00    -0.385 OA
ATOM     54  H   UNL     1      22.806  63.842  32.706  1.00  0.00     0.211 HD
ENDBRANCH  49  53
BRANCH  50  55
ATOM     55  C   UNL     1      17.450  62.583  35.193  1.00  0.00     0.191 C 
BRANCH  55  56
ATOM     56  O   UNL     1      17.236  61.764  36.312  1.00  0.00    -0.394 OA
ATOM     57  H   UNL     1      17.844  60.985  36.215  1.00  0.00     0.210 HD
ENDBRANCH  55  56
ENDBRANCH  50  55
BRANCH  51  58
ATOM     58  O   UNL     1      19.019  62.782  32.463  1.00  0.00    -0.387 OA
ATOM     59  H   UNL     1      19.612  61.997  32.336  1.00  0.00     0.211 HD
ENDBRANCH  51  58
BRANCH  52  60
ATOM     60  O   UNL     1      19.584  65.595  34.692  1.00  0.00    -0.387 OA
ATOM     61  H   UNL     1      18.994  66.002  35.380  1.00  0.00     0.211 HD
ENDBRANCH  52  60
ENDBRANCH  46  47
ENDBRANCH   4  46
TORSDOF 14
ENDMDL
MODEL 7
REMARK VINA RESULT:   -12.737      3.842      5.631
REMARK INTER + INTRA:         -21.790
REMARK INTER:                 -20.778
REMARK INTRA:                  -1.012
REMARK UNBOUND:                -1.607
REMARK SMILES C[C@H]1CC[C@@]2(OC1)O[C@H]1C[C@H]3[C@@H]4CC=C5C[C@@H](O[C@@H]6O[C@H](CO)[C@H](O[C@@H]7O[C@H](CO)[C@@H](O)[C@H](O)[C@H]7O)[C@H](O)[C@H]6O)C[C@@H](O)[C@]5(C)[C@H]4CC[C@]3(C)[C@H]1[C@@H]2C
REMARK SMILES IDX 19 1 20 2 21 3 24 4 37 5 39 6 18 7 17 8 2 9 3 10 7 11 4 12
REMARK SMILES IDX 6 13 5 14 8 15 52 16 9 17 51 18 10 19 49 20 11 21 48 22
REMARK SMILES IDX 12 23 47 24 13 25 46 26 14 27 44 28 15 29 42 30 16 31 41 32
REMARK SMILES IDX 1 33 53 34 50 35 45 36 43 37 40 39 22 41 23 42 38 44 25 46
REMARK SMILES IDX 26 47 27 48 35 49 28 50 33 51 31 52 36 53 29 55 30 56 34 58
REMARK SMILES IDX 32 60
REMARK H PARENT 43 38 40 40 23 43 38 45 36 54 30 57 34 59 32 61
ROOT
ATOM      1  C   UNL     1      24.579  60.584  40.405  1.00  0.00     0.282 C 
ATOM      2  O   UNL     1      24.734  60.213  39.038  1.00  0.00    -0.341 OA
ATOM      3  C   UNL     1      23.527  60.298  38.305  1.00  0.00     0.178 C 
ATOM      4  C   UNL     1      22.975  61.767  38.236  1.00  0.00     0.184 C 
ATOM      5  C   UNL     1      23.705  62.685  39.247  1.00  0.00     0.180 C 
ATOM      6  C   UNL     1      23.823  61.946  40.589  1.00  0.00     0.202 C 
ENDROOT
BRANCH   1   7
ATOM      7  O   UNL     1      25.891  60.748  40.909  1.00  0.00    -0.346 OA
BRANCH   7   8
ATOM      8  C   UNL     1      26.667  59.560  40.911  1.00  0.00     0.128 C 
ATOM      9  C   UNL     1      32.929  48.897  47.130  1.00  0.00     0.012 C 
ATOM     10  C   UNL     1      31.588  49.462  47.662  1.00  0.00     0.011 C 
ATOM     11  C   UNL     1      33.694  49.964  46.302  1.00  0.00     0.167 C 
ATOM     12  C   UNL     1      31.643  50.984  47.672  1.00  0.00     0.066 C 
ATOM     13  O   UNL     1      32.825  50.693  45.455  1.00  0.00    -0.349 OA
ATOM     14  C   UNL     1      31.842  51.449  46.188  1.00  0.00     0.171 C 
ATOM     15  O   UNL     1      30.603  51.283  45.516  1.00  0.00    -0.346 OA
ATOM     16  C   UNL     1      32.125  52.954  46.126  1.00  0.00     0.052 C 
ATOM     17  C   UNL     1      30.564  52.273  44.505  1.00  0.00     0.126 C 
ATOM     18  C   UNL     1      31.702  53.285  44.697  1.00  0.00     0.033 C 
ATOM     19  C   UNL     1      29.276  53.103  44.485  1.00  0.00     0.037 C 
ATOM     20  C   UNL     1      31.069  54.694  44.381  1.00  0.00    -0.024 C 
ATOM     21  C   UNL     1      29.764  54.294  43.658  1.00  0.00     0.002 C 
ATOM     22  C   UNL     1      31.865  55.547  43.364  1.00  0.00     0.008 C 
ATOM     23  C   UNL     1      28.847  55.507  43.422  1.00  0.00     0.000 C 
ATOM     24  C   UNL     1      31.078  56.835  43.012  1.00  0.00     0.005 C 
ATOM     25  C   UNL     1      27.559  55.092  42.690  1.00  0.00     0.031 C 
ATOM     26  C   UNL     1      29.586  56.579  42.559  1.00  0.00     0.005 C 
ATOM     27  C   UNL     1      26.709  56.285  42.365  1.00  0.00    -0.027 C 
ATOM     28  C   UNL     1      28.687  57.894  42.494  1.00  0.00     0.018 C 
ATOM     29  C   UNL     1      27.189  57.548  42.320  1.00  0.00    -0.063 C 
ATOM     30  C   UNL     1      29.073  58.756  41.236  1.00  0.00     0.127 C 
ATOM     31  C   UNL     1      26.223  58.697  42.095  1.00  0.00     0.063 C 
ATOM     32  C   UNL     1      28.142  59.980  41.042  1.00  0.00     0.065 C 
ATOM     33  C   UNL     1      33.826  48.412  48.277  1.00  0.00     0.010 C 
ATOM     34  C   UNL     1      33.551  53.398  46.473  1.00  0.00     0.014 C 
ATOM     35  C   UNL     1      30.806  55.519  45.699  1.00  0.00     0.012 C 
ATOM     36  C   UNL     1      28.819  58.727  43.809  1.00  0.00     0.019 C 
BRANCH  30  37
ATOM     37  O   UNL     1      30.415  59.170  41.253  1.00  0.00    -0.392 OA
ATOM     38  H   UNL     1      30.672  59.436  40.335  1.00  0.00     0.210 HD
ENDBRANCH  30  37
ENDBRANCH   7   8
ENDBRANCH   1   7
BRANCH   6  39
ATOM     39  O   UNL     1      22.550  61.766  41.167  1.00  0.00    -0.385 OA
ATOM     40  H   UNL     1      22.566  62.090  42.103  1.00  0.00     0.211 HD
ENDBRANCH   6  39
BRANCH   3  41
ATOM     41  C   UNL     1      23.764  59.665  36.927  1.00  0.00     0.191 C 
BRANCH  41  42
ATOM     42  O   UNL     1      25.068  59.945  36.487  1.00  0.00    -0.394 OA
ATOM     43  H   UNL     1      25.018  60.755  35.917  1.00  0.00     0.210 HD
ENDBRANCH  41  42
ENDBRANCH   3  41
BRANCH   5  44
ATOM     44  O   UNL     1      24.981  63.095  38.799  1.00  0.00    -0.387 OA
ATOM     45  H   UNL     1      25.077  62.911  37.831  1.00  0.00     0.211 HD
ENDBRANCH   5  44
BRANCH   4  46
ATOM     46  O   UNL     1      23.054  62.346  36.933  1.00  0.00    -0.341 OA
BRANCH  46  47
ATOM     47  C   UNL     1      21.798  62.428  36.265  1.00  0.00     0.282 C 
ATOM     48  O   UNL     1      21.998  62.715  34.896  1.00  0.00    -0.341 OA
ATOM     49  C   UNL     1      20.945  63.548  36.916  1.00  0.00     0.202 C 
ATOM     50  C   UNL     1      20.792  62.542  34.134  1.00  0.00     0.178 C 
ATOM     51  C   UNL     1      19.814  64.036  35.945  1.00  0.00     0.179 C 
ATOM     52  C   UNL     1      19.481  62.929  34.920  1.00  0.00     0.177 C 
BRANCH  49  53
ATOM     53  O   UNL     1      20.429  63.099  38.145  1.00  0.00    -0.385 OA
ATOM     54  H   UNL     1      19.838  62.323  37.964  1.00  0.00     0.211 HD
ENDBRANCH  49  53
BRANCH  50  55
ATOM     55  C   UNL     1      20.946  63.353  32.831  1.00  0.00     0.191 C 
BRANCH  55  56
ATOM     56  O   UNL     1      21.845  64.417  33.003  1.00  0.00    -0.394 OA
ATOM     57  H   UNL     1      22.481  64.141  33.714  1.00  0.00     0.210 HD
ENDBRANCH  55  56
ENDBRANCH  50  55
BRANCH  51  58
ATOM     58  O   UNL     1      20.179  65.214  35.262  1.00  0.00    -0.387 OA
ATOM     59  H   UNL     1      20.224  65.033  34.288  1.00  0.00     0.211 HD
ENDBRANCH  51  58
BRANCH  52  60
ATOM     60  O   UNL     1      18.993  61.795  35.595  1.00  0.00    -0.387 OA
ATOM     61  H   UNL     1      19.540  61.021  35.300  1.00  0.00     0.211 HD
ENDBRANCH  52  60
ENDBRANCH  46  47
ENDBRANCH   4  46
TORSDOF 14
ENDMDL
MODEL 8
REMARK VINA RESULT:   -12.710      3.670      5.062
REMARK INTER + INTRA:         -21.747
REMARK INTER:                 -20.318
REMARK INTRA:                  -1.429
REMARK UNBOUND:                -1.607
REMARK SMILES C[C@H]1CC[C@@]2(OC1)O[C@H]1C[C@H]3[C@@H]4CC=C5C[C@@H](O[C@@H]6O[C@H](CO)[C@H](O[C@@H]7O[C@H](CO)[C@@H](O)[C@H](O)[C@H]7O)[C@H](O)[C@H]6O)C[C@@H](O)[C@]5(C)[C@H]4CC[C@]3(C)[C@H]1[C@@H]2C
REMARK SMILES IDX 19 1 20 2 21 3 24 4 37 5 39 6 18 7 17 8 2 9 3 10 7 11 4 12
REMARK SMILES IDX 6 13 5 14 8 15 52 16 9 17 51 18 10 19 49 20 11 21 48 22
REMARK SMILES IDX 12 23 47 24 13 25 46 26 14 27 44 28 15 29 42 30 16 31 41 32
REMARK SMILES IDX 1 33 53 34 50 35 45 36 43 37 40 39 22 41 23 42 38 44 25 46
REMARK SMILES IDX 26 47 27 48 35 49 28 50 33 51 31 52 36 53 29 55 30 56 34 58
REMARK SMILES IDX 32 60
REMARK H PARENT 43 38 40 40 23 43 38 45 36 54 30 57 34 59 32 61
ROOT
ATOM      1  C   UNL     1      22.747  60.015  39.710  1.00  0.00     0.282 C 
ATOM      2  O   UNL     1      23.581  60.103  38.559  1.00  0.00    -0.341 OA
ATOM      3  C   UNL     1      22.850  60.103  37.348  1.00  0.00     0.178 C 
ATOM      4  C   UNL     1      21.903  61.349  37.223  1.00  0.00     0.184 C 
ATOM      5  C   UNL     1      21.767  62.084  38.580  1.00  0.00     0.180 C 
ATOM      6  C   UNL     1      21.560  61.040  39.689  1.00  0.00     0.202 C 
ENDROOT
BRANCH   1   7
ATOM      7  O   UNL     1      23.575  60.338  40.811  1.00  0.00    -0.346 OA
BRANCH   7   8
ATOM      8  C   UNL     1      24.902  59.845  40.706  1.00  0.00     0.128 C 
ATOM      9  C   UNL     1      36.122  53.417  45.643  1.00  0.00     0.012 C 
ATOM     10  C   UNL     1      34.697  52.966  46.045  1.00  0.00     0.011 C 
ATOM     11  C   UNL     1      36.128  54.900  45.183  1.00  0.00     0.167 C 
ATOM     12  C   UNL     1      33.845  54.187  46.366  1.00  0.00     0.066 C 
ATOM     13  O   UNL     1      35.013  55.199  44.364  1.00  0.00    -0.349 OA
ATOM     14  C   UNL     1      33.760  55.047  45.058  1.00  0.00     0.171 C 
ATOM     15  O   UNL     1      32.869  54.391  44.170  1.00  0.00    -0.346 OA
ATOM     16  C   UNL     1      33.103  56.403  45.343  1.00  0.00     0.052 C 
ATOM     17  C   UNL     1      32.273  55.406  43.383  1.00  0.00     0.126 C 
ATOM     18  C   UNL     1      32.594  56.792  43.958  1.00  0.00     0.033 C 
ATOM     19  C   UNL     1      30.744  55.334  43.313  1.00  0.00     0.037 C 
ATOM     20  C   UNL     1      31.259  57.620  43.827  1.00  0.00    -0.024 C 
ATOM     21  C   UNL     1      30.453  56.757  42.832  1.00  0.00     0.002 C 
ATOM     22  C   UNL     1      31.419  59.002  43.147  1.00  0.00     0.008 C 
ATOM     23  C   UNL     1      29.002  57.250  42.691  1.00  0.00     0.000 C 
ATOM     24  C   UNL     1      30.031  59.658  42.931  1.00  0.00     0.005 C 
ATOM     25  C   UNL     1      28.219  56.387  41.688  1.00  0.00     0.031 C 
ATOM     26  C   UNL     1      28.985  58.731  42.193  1.00  0.00     0.005 C 
ATOM     27  C   UNL     1      26.836  56.926  41.469  1.00  0.00    -0.027 C 
ATOM     28  C   UNL     1      27.485  59.271  42.242  1.00  0.00     0.018 C 
ATOM     29  C   UNL     1      26.482  58.199  41.756  1.00  0.00    -0.063 C 
ATOM     30  C   UNL     1      27.314  60.489  41.262  1.00  0.00     0.127 C 
ATOM     31  C   UNL     1      25.029  58.612  41.605  1.00  0.00     0.063 C 
ATOM     32  C   UNL     1      25.844  60.973  41.162  1.00  0.00     0.065 C 
ATOM     33  C   UNL     1      37.112  53.248  46.805  1.00  0.00     0.010 C 
ATOM     34  C   UNL     1      33.989  57.466  46.005  1.00  0.00     0.014 C 
ATOM     35  C   UNL     1      30.536  57.778  45.220  1.00  0.00     0.012 C 
ATOM     36  C   UNL     1      27.078  59.659  43.700  1.00  0.00     0.019 C 
BRANCH  30  37
ATOM     37  O   UNL     1      28.154  61.568  41.584  1.00  0.00    -0.392 OA
ATOM     38  H   UNL     1      28.809  61.262  42.261  1.00  0.00     0.210 HD
ENDBRANCH  30  37
ENDBRANCH   7   8
ENDBRANCH   1   7
BRANCH   6  39
ATOM     39  O   UNL     1      20.314  60.398  39.535  1.00  0.00    -0.385 OA
ATOM     40  H   UNL     1      20.458  59.421  39.453  1.00  0.00     0.211 HD
ENDBRANCH   6  39
BRANCH   3  41
ATOM     41  C   UNL     1      23.850  59.972  36.191  1.00  0.00     0.191 C 
BRANCH  41  42
ATOM     42  O   UNL     1      25.158  59.876  36.694  1.00  0.00    -0.394 OA
ATOM     43  H   UNL     1      25.155  60.283  37.599  1.00  0.00     0.210 HD
ENDBRANCH  41  42
ENDBRANCH   3  41
BRANCH   5  44
ATOM     44  O   UNL     1      22.880  62.902  38.878  1.00  0.00    -0.387 OA
ATOM     45  H   UNL     1      23.048  63.534  38.135  1.00  0.00     0.211 HD
ENDBRANCH   5  44
BRANCH   4  46
ATOM     46  O   UNL     1      22.314  62.282  36.224  1.00  0.00    -0.341 OA
BRANCH  46  47
ATOM     47  C   UNL     1      21.326  62.526  35.227  1.00  0.00     0.282 C 
ATOM     48  O   UNL     1      20.048  62.608  35.825  1.00  0.00    -0.341 OA
ATOM     49  C   UNL     1      21.346  61.370  34.193  1.00  0.00     0.202 C 
ATOM     50  C   UNL     1      19.063  63.116  34.910  1.00  0.00     0.178 C 
ATOM     51  C   UNL     1      19.996  61.296  33.398  1.00  0.00     0.179 C 
ATOM     52  C   UNL     1      19.295  62.672  33.414  1.00  0.00     0.177 C 
BRANCH  49  53
ATOM     53  O   UNL     1      22.454  61.516  33.340  1.00  0.00    -0.385 OA
ATOM     54  H   UNL     1      22.980  62.298  33.650  1.00  0.00     0.211 HD
ENDBRANCH  49  53
BRANCH  50  55
ATOM     55  C   UNL     1      17.678  62.684  35.433  1.00  0.00     0.191 C 
BRANCH  55  56
ATOM     56  O   UNL     1      17.794  61.659  36.384  1.00  0.00    -0.394 OA
ATOM     57  H   UNL     1      17.664  62.080  37.274  1.00  0.00     0.210 HD
ENDBRANCH  55  56
ENDBRANCH  50  55
BRANCH  51  58
ATOM     58  O   UNL     1      19.126  60.320  33.927  1.00  0.00    -0.387 OA
ATOM     59  H   UNL     1      19.641  59.682  34.485  1.00  0.00     0.211 HD
ENDBRANCH  51  58
BRANCH  52  60
ATOM     60  O   UNL     1      20.109  63.622  32.770  1.00  0.00    -0.387 OA
ATOM     61  H   UNL     1      21.050  63.406  33.003  1.00  0.00     0.211 HD
ENDBRANCH  52  60
ENDBRANCH  46  47
ENDBRANCH   4  46
TORSDOF 14
ENDMDL
MODEL 9
REMARK VINA RESULT:   -12.446      1.368      2.573
REMARK INTER + INTRA:         -21.329
REMARK INTER:                 -19.773
REMARK INTRA:                  -1.556
REMARK UNBOUND:                -1.607
REMARK SMILES C[C@H]1CC[C@@]2(OC1)O[C@H]1C[C@H]3[C@@H]4CC=C5C[C@@H](O[C@@H]6O[C@H](CO)[C@H](O[C@@H]7O[C@H](CO)[C@@H](O)[C@H](O)[C@H]7O)[C@H](O)[C@H]6O)C[C@@H](O)[C@]5(C)[C@H]4CC[C@]3(C)[C@H]1[C@@H]2C
REMARK SMILES IDX 19 1 20 2 21 3 24 4 37 5 39 6 18 7 17 8 2 9 3 10 7 11 4 12
REMARK SMILES IDX 6 13 5 14 8 15 52 16 9 17 51 18 10 19 49 20 11 21 48 22
REMARK SMILES IDX 12 23 47 24 13 25 46 26 14 27 44 28 15 29 42 30 16 31 41 32
REMARK SMILES IDX 1 33 53 34 50 35 45 36 43 37 40 39 22 41 23 42 38 44 25 46
REMARK SMILES IDX 26 47 27 48 35 49 28 50 33 51 31 52 36 53 29 55 30 56 34 58
REMARK SMILES IDX 32 60
REMARK H PARENT 43 38 40 40 23 43 38 45 36 54 30 57 34 59 32 61
ROOT
ATOM      1  C   UNL     1      24.677  59.595  39.878  1.00  0.00     0.282 C 
ATOM      2  O   UNL     1      24.976  59.872  38.513  1.00  0.00    -0.341 OA
ATOM      3  C   UNL     1      23.818  59.985  37.707  1.00  0.00     0.178 C 
ATOM      4  C   UNL     1      22.904  61.185  38.144  1.00  0.00     0.184 C 
ATOM      5  C   UNL     1      23.328  61.734  39.528  1.00  0.00     0.180 C 
ATOM      6  C   UNL     1      23.584  60.549  40.473  1.00  0.00     0.202 C 
ENDROOT
BRANCH   1   7
ATOM      7  O   UNL     1      25.879  59.820  40.588  1.00  0.00    -0.346 OA
BRANCH   7   8
ATOM      8  C   UNL     1      25.783  59.591  41.985  1.00  0.00     0.128 C 
ATOM      9  C   UNL     1      31.147  57.910  54.634  1.00  0.00     0.012 C 
ATOM     10  C   UNL     1      31.787  58.883  53.613  1.00  0.00     0.011 C 
ATOM     11  C   UNL     1      30.314  56.816  53.913  1.00  0.00     0.167 C 
ATOM     12  C   UNL     1      31.855  58.217  52.245  1.00  0.00     0.066 C 
ATOM     13  O   UNL     1      29.555  57.352  52.845  1.00  0.00    -0.349 OA
ATOM     14  C   UNL     1      30.380  57.913  51.806  1.00  0.00     0.171 C 
ATOM     15  O   UNL     1      29.785  59.140  51.418  1.00  0.00    -0.346 OA
ATOM     16  C   UNL     1      30.361  57.048  50.540  1.00  0.00     0.052 C 
ATOM     17  C   UNL     1      28.819  58.820  50.434  1.00  0.00     0.126 C 
ATOM     18  C   UNL     1      28.977  57.363  49.978  1.00  0.00     0.033 C 
ATOM     19  C   UNL     1      28.916  59.663  49.157  1.00  0.00     0.037 C 
ATOM     20  C   UNL     1      28.759  57.386  48.417  1.00  0.00    -0.024 C 
ATOM     21  C   UNL     1      28.108  58.771  48.213  1.00  0.00     0.002 C 
ATOM     22  C   UNL     1      27.728  56.358  47.892  1.00  0.00     0.008 C 
ATOM     23  C   UNL     1      27.981  59.129  46.722  1.00  0.00     0.000 C 
ATOM     24  C   UNL     1      27.480  56.571  46.377  1.00  0.00     0.005 C 
ATOM     25  C   UNL     1      27.319  60.505  46.538  1.00  0.00     0.031 C 
ATOM     26  C   UNL     1      27.116  58.058  45.984  1.00  0.00     0.005 C 
ATOM     27  C   UNL     1      27.098  60.813  45.086  1.00  0.00    -0.027 C 
ATOM     28  C   UNL     1      27.163  58.350  44.417  1.00  0.00     0.018 C 
ATOM     29  C   UNL     1      27.073  59.866  44.122  1.00  0.00    -0.063 C 
ATOM     30  C   UNL     1      25.918  57.704  43.706  1.00  0.00     0.127 C 
ATOM     31  C   UNL     1      26.958  60.294  42.670  1.00  0.00     0.063 C 
ATOM     32  C   UNL     1      25.835  58.069  42.201  1.00  0.00     0.065 C 
ATOM     33  C   UNL     1      32.212  57.236  55.509  1.00  0.00     0.010 C 
ATOM     34  C   UNL     1      30.632  55.551  50.729  1.00  0.00     0.014 C 
ATOM     35  C   UNL     1      30.125  57.235  47.641  1.00  0.00     0.012 C 
ATOM     36  C   UNL     1      28.499  57.836  43.793  1.00  0.00     0.019 C 
BRANCH  30  37
ATOM     37  O   UNL     1      25.864  56.309  43.867  1.00  0.00    -0.392 OA
ATOM     38  H   UNL     1      25.204  55.946  43.224  1.00  0.00     0.210 HD
ENDBRANCH  30  37
ENDBRANCH   7   8
ENDBRANCH   1   7
BRANCH   6  39
ATOM     39  O   UNL     1      22.380  59.866  40.744  1.00  0.00    -0.385 OA
ATOM     40  H   UNL     1      22.526  59.231  41.490  1.00  0.00     0.211 HD
ENDBRANCH   6  39
BRANCH   3  41
ATOM     41  C   UNL     1      24.266  60.054  36.241  1.00  0.00     0.191 C 
BRANCH  41  42
ATOM     42  O   UNL     1      23.222  59.633  35.400  1.00  0.00    -0.394 OA
ATOM     43  H   UNL     1      22.537  59.203  35.974  1.00  0.00     0.210 HD
ENDBRANCH  41  42
ENDBRANCH   3  41
BRANCH   5  44
ATOM     44  O   UNL     1      24.469  62.566  39.466  1.00  0.00    -0.387 OA
ATOM     45  H   UNL     1      24.261  63.458  39.841  1.00  0.00     0.211 HD
ENDBRANCH   5  44
BRANCH   4  46
ATOM     46  O   UNL     1      22.879  62.256  37.201  1.00  0.00    -0.341 OA
BRANCH  46  47
ATOM     47  C   UNL     1      21.662  62.344  36.465  1.00  0.00     0.282 C 
ATOM     48  O   UNL     1      21.941  62.492  35.087  1.00  0.00    -0.341 OA
ATOM     49  C   UNL     1      20.847  63.564  36.968  1.00  0.00     0.202 C 
ATOM     50  C   UNL     1      20.763  62.315  34.284  1.00  0.00     0.178 C 
ATOM     51  C   UNL     1      19.792  64.021  35.902  1.00  0.00     0.179 C 
ATOM     52  C   UNL     1      19.442  62.844  34.964  1.00  0.00     0.177 C 
BRANCH  49  53
ATOM     53  O   UNL     1      20.250  63.259  38.204  1.00  0.00    -0.385 OA
ATOM     54  H   UNL     1      20.272  64.076  38.766  1.00  0.00     0.211 HD
ENDBRANCH  49  53
BRANCH  50  55
ATOM     55  C   UNL     1      21.023  62.993  32.923  1.00  0.00     0.191 C 
BRANCH  55  56
ATOM     56  O   UNL     1      21.861  64.109  33.068  1.00  0.00    -0.394 OA
ATOM     57  H   UNL     1      22.253  64.290  32.174  1.00  0.00     0.210 HD
ENDBRANCH  55  56
ENDBRANCH  50  55
BRANCH  51  58
ATOM     58  O   UNL     1      20.257  65.109  35.134  1.00  0.00    -0.387 OA
ATOM     59  H   UNL     1      21.201  65.302  35.367  1.00  0.00     0.211 HD
ENDBRANCH  51  58
BRANCH  52  60
ATOM     60  O   UNL     1      18.858  61.806  35.713  1.00  0.00    -0.387 OA
ATOM     61  H   UNL     1      19.225  60.952  35.363  1.00  0.00     0.211 HD
ENDBRANCH  52  60
ENDBRANCH  46  47
ENDBRANCH   4  46
TORSDOF 14
ENDMDL
