REMARK  Name = 
REMARK  23 active torsions:
REMARK  status: ('A' for Active; 'I' for Inactive)
REMARK    1  A    between atoms: C_1  and  O_2
REMARK    2  A    between atoms: O_2  and  C_3
REMARK    3  A    between atoms: C_5  and  O_6
REMARK    4  A    between atoms: O_6  and  C_7
REMARK    5  A    between atoms: C_8  and  O_9
REMARK    6  A    between atoms: C_11  and  O_12
REMARK    7  A    between atoms: O_12  and  C_13
REMARK    8  A    between atoms: C_14  and  O_15
REMARK    9  A    between atoms: C_17  and  O_18
REMARK   10  A    between atoms: O_18  and  C_19
REMARK   11  A    between atoms: C_31  and  C_32
REMARK   12  A    between atoms: C_39  and  C_40
REMARK   13  A    between atoms: C_42  and  O_43
REMARK   14  A    between atoms: C_46  and  C_47
REMARK   15  A    between atoms: C_49  and  C_50
REMARK   16  A    between atoms: C_52  and  C_53
REMARK   17  A    between atoms: C_54  and  O_55
REMARK   18  A    between atoms: O_55  and  C_56
REMARK   19  A    between atoms: C_58  and  C_59
REMARK   20  A    between atoms: C_59  and  O_60
REMARK   21  A    between atoms: C_61  and  O_62
REMARK   22  A    between atoms: C_63  and  O_64
REMARK   23  A    between atoms: C_65  and  O_66
REMARK                            x       y       z     vdW  Elec       q    Type
REMARK                         _______ _______ _______ _____ _____    ______ ____
ROOT
ATOM      1  C   UNL     1      29.340  58.305  43.606  0.00  0.00    +0.000 C 
ATOM      2  C   UNL     1      30.459  58.897  42.706  0.00  0.00    +0.000 C 
ATOM      3  C   UNL     1      31.822  58.415  43.215  0.00  0.00    +0.000 C 
ATOM      4  C   UNL     1      31.958  58.782  44.701  0.00  0.00    +0.000 C 
ATOM      5  O   UNL     1      30.955  58.108  45.449  0.00  0.00    +0.000 OA
ATOM      6  C   UNL     1      29.660  58.581  45.105  0.00  0.00    +0.000 C 
ATOM      7  C   UNL     1      28.640  57.873  45.998  0.00  0.00    +0.000 C 
ENDROOT
BRANCH   2   8
ATOM      8  O   UNL     1      30.459  60.308  42.650  0.00  0.00    +0.000 OA
ATOM      9  H   UNL     1      31.231  60.673  43.146  0.00  0.00    +0.000 HD
ENDBRANCH   2   8
BRANCH   1  10
ATOM     10  O   UNL     1      28.081  58.890  43.296  0.00  0.00    +0.000 OA
BRANCH  10  14
ATOM     11  C   UNL     1      25.169  60.250  41.945  0.00  0.00    +0.000 C 
ATOM     12  C   UNL     1      25.227  58.941  42.754  0.00  0.00    +0.000 C 
ATOM     13  C   UNL     1      26.197  57.950  42.099  0.00  0.00    +0.000 C 
ATOM     14  C   UNL     1      27.586  58.599  41.994  0.00  0.00    +0.000 C 
ATOM     15  O   UNL     1      27.535  59.768  41.186  0.00  0.00    +0.000 OA
ATOM     16  C   UNL     1      26.621  60.767  41.646  0.00  0.00    +0.000 C 
ATOM     17  C   UNL     1      27.177  61.602  42.802  0.00  0.00    +0.000 C 
BRANCH  12  18
ATOM     18  O   UNL     1      23.947  58.387  42.928  0.00  0.00    +0.000 OA
ATOM     19  H   UNL     1      23.320  59.128  43.137  0.00  0.00    +0.000 HD
ENDBRANCH  12  18
BRANCH  11  20
ATOM     20  O   UNL     1      24.413  60.088  40.742  0.00  0.00    +0.000 OA
BRANCH  20  23
ATOM     21  C   UNL     1      23.580  61.549  37.936  0.00  0.00    +0.000 C 
ATOM     22  C   UNL     1      24.215  62.045  39.235  0.00  0.00    +0.000 C 
ATOM     23  C   UNL     1      23.695  61.295  40.480  0.00  0.00    +0.000 C 
ATOM     24  O   UNL     1      22.279  61.097  40.521  0.00  0.00    +0.000 OA
ATOM     25  C   UNL     1      21.702  60.651  39.299  0.00  0.00    +0.000 C 
ATOM     26  C   UNL     1      20.185  60.598  39.495  0.00  0.00    +0.000 C 
ATOM     27  C   UNL     1      22.062  61.622  38.153  0.00  0.00    +0.000 C 
BRANCH  21  29
ATOM     28  C   UNL     1      24.443  60.105  36.326  0.00  0.00    +0.000 C 
ATOM     29  O   UNL     1      23.962  60.215  37.645  0.00  0.00    +0.000 OA
ENDBRANCH  21  29
BRANCH  27  30
ATOM     30  O   UNL     1      21.362  61.321  36.945  0.00  0.00    +0.000 OA
BRANCH  30  31
ATOM     31  C   UNL     1      21.183  62.480  36.121  0.00  0.00    +0.000 C 
ATOM     32  O   UNL     1      19.802  62.858  36.196  0.00  0.00    +0.000 OA
ATOM     33  C   UNL     1      19.422  63.628  35.073  0.00  0.00    +0.000 C 
ATOM     34  C   UNL     1      19.359  62.720  33.810  0.00  0.00    +0.000 C 
ATOM     35  C   UNL     1      20.499  61.648  33.835  0.00  0.00    +0.000 C 
ATOM     36  C   UNL     1      21.684  62.164  34.666  0.00  0.00    +0.000 C 
BRANCH  34  37
ATOM     37  O   UNL     1      19.404  63.512  32.647  0.00  0.00    +0.000 OA
ATOM     38  H   UNL     1      20.169  63.208  32.094  0.00  0.00    +0.000 HD
ENDBRANCH  34  37
BRANCH  35  39
ATOM     39  O   UNL     1      20.052  60.423  34.375  0.00  0.00    +0.000 OA
ATOM     40  H   UNL     1      20.014  60.492  35.364  0.00  0.00    +0.000 HD
ENDBRANCH  35  39
BRANCH  36  41
ATOM     41  O   UNL     1      22.195  63.323  34.055  0.00  0.00    +0.000 OA
ATOM     42  H   UNL     1      23.130  63.428  34.375  0.00  0.00    +0.000 HD
ENDBRANCH  36  41
BRANCH  33  43
ATOM     43  C   UNL     1      18.084  64.331  35.326  0.00  0.00    +0.000 C 
BRANCH  43  44
ATOM     44  O   UNL     1      17.980  64.718  36.671  0.00  0.00    +0.000 OA
ATOM     45  H   UNL     1      18.882  64.605  37.071  0.00  0.00    +0.000 HD
ENDBRANCH  43  44
ENDBRANCH  33  43
ENDBRANCH  30  31
ENDBRANCH  27  30
ENDBRANCH  20  23
ENDBRANCH  11  20
ENDBRANCH  10  14
ENDBRANCH   1  10
BRANCH   4  46
ATOM     46  O   UNL     1      33.228  58.355  45.153  0.00  0.00    +0.000 OA
BRANCH  46  47
ATOM     47  C   UNL     1      33.682  57.194  44.465  0.00  0.00    +0.000 C 
ATOM     48  C   UNL     1      33.260  55.961  45.314  0.00  0.00    +0.000 C 
ATOM     49  C   UNL     1      34.287  54.867  45.192  0.00  0.00    +0.000 C 
ATOM     50  C   UNL     1      33.954  53.733  44.551  0.00  0.00    +0.000 C 
ATOM     51  C   UNL     1      34.927  52.642  44.238  0.00  0.00    +0.000 C 
ATOM     52  C   UNL     1      36.283  52.780  44.950  0.00  0.00    +0.000 C 
ATOM     53  C   UNL     1      37.223  51.819  44.298  0.00  0.00    +0.000 C 
ATOM     54  O   UNL     1      37.632  50.846  44.912  0.00  0.00    +0.000 OA
ATOM     55  O   UNL     1      37.653  52.111  43.045  0.00  0.00    +0.000 OA
ATOM     56  C   UNL     1      38.795  51.687  42.382  0.00  0.00    +0.000 C 
ATOM     57  C   UNL     1      38.872  50.184  42.198  0.00  0.00    +0.000 C 
ATOM     58  O   UNL     1      39.488  49.656  43.351  0.00  0.00    +0.000 OA
ATOM     59  C   UNL     1      40.494  50.595  43.694  0.00  0.00    +0.000 C 
ATOM     60  C   UNL     1      41.859  50.142  43.157  0.00  0.00    +0.000 C 
ATOM     61  O   UNL     1      40.562  50.737  45.066  0.00  0.00    +0.000 OA
ATOM     62  C   UNL     1      40.235  51.977  45.459  0.00  0.00    +0.000 C 
ATOM     63  C   UNL     1      39.906  52.752  44.440  0.00  0.00    +0.000 C 
ATOM     64  C   UNL     1      39.472  54.185  44.576  0.00  0.00    +0.000 C 
ATOM     65  C   UNL     1      38.249  54.464  45.498  0.00  0.00    +0.000 C 
ATOM     66  C   UNL     1      36.790  54.267  44.921  0.00  0.00    +0.000 C 
ATOM     67  C   UNL     1      35.720  55.181  45.686  0.00  0.00    +0.000 C 
ATOM     68  C   UNL     1      35.767  54.923  47.219  0.00  0.00    +0.000 C 
ATOM     69  C   UNL     1      35.960  56.740  45.482  0.00  0.00    +0.000 C 
ATOM     70  C   UNL     1      35.231  57.295  44.251  0.00  0.00    +0.000 C 
ATOM     71  C   UNL     1      40.071  51.978  43.161  0.00  0.00    +0.000 C 
BRANCH  70  72
ATOM     72  O   UNL     1      35.674  56.634  43.085  0.00  0.00    +0.000 OA
ATOM     73  H   UNL     1      36.664  56.560  43.098  0.00  0.00    +0.000 HD
ENDBRANCH  70  72
ENDBRANCH  46  47
ENDBRANCH   4  46
TORSDOF 17
