REMARK  Name = 
REMARK  18 active torsions:
REMARK  status: ('A' for Active; 'I' for Inactive)
REMARK    1  A    between atoms: C_1  and  C_2
REMARK    2  A    between atoms: C_7  and  O_8
REMARK    3  A    between atoms: C_18  and  O_19
REMARK    4  A    between atoms: O_19  and  C_20
REMARK    5  A    between atoms: C_22  and  C_23
REMARK    6  A    between atoms: C_23  and  O_24
REMARK    7  A    between atoms: C_25  and  O_26
REMARK    8  A    between atoms: O_26  and  C_27
REMARK    9  A    between atoms: C_29  and  C_30
REMARK   10  A    between atoms: C_30  and  O_31
REMARK   11  A    between atoms: C_32  and  O_33
REMARK   12  A    between atoms: C_34  and  O_35
REMARK   13  A    between atoms: C_36  and  O_37
REMARK   14  A    between atoms: C_38  and  O_39
REMARK   15  A    between atoms: C_40  and  O_41
REMARK   16  A    between atoms: C_44  and  C_45
REMARK   17  A    between atoms: C_50  and  C_51
REMARK   18  A    between atoms: C_53  and  C_54
REMARK                            x       y       z     vdW  Elec       q    Type
REMARK                         _______ _______ _______ _____ _____    ______ ____
ROOT
ATOM      1  C   UNL     1      31.117  44.225  49.661  0.00  0.00    +0.000 C 
ATOM      2  C   UNL     1      31.201  45.641  49.073  0.00  0.00    +0.000 C 
ATOM      3  C   UNL     1      31.733  45.656  47.633  0.00  0.00    +0.000 C 
ATOM      4  O   UNL     1      31.566  46.937  47.026  0.00  0.00    +0.000 OA
ATOM      5  C   UNL     1      31.857  48.071  47.864  0.00  0.00    +0.000 C 
ATOM      6  C   UNL     1      32.718  47.701  49.095  0.00  0.00    +0.000 C 
ATOM      7  C   UNL     1      32.018  46.630  49.956  0.00  0.00    +0.000 C 
ATOM      8  O   UNL     1      30.643  48.669  48.289  0.00  0.00    +0.000 OA
ATOM      9  C   UNL     1      30.235  49.501  47.216  0.00  0.00    +0.000 C 
ATOM     10  C   UNL     1      29.834  50.935  47.599  0.00  0.00    +0.000 C 
ATOM     11  C   UNL     1      29.916  51.575  46.208  0.00  0.00    +0.000 C 
ATOM     12  C   UNL     1      29.608  53.077  45.958  0.00  0.00    +0.000 C 
ATOM     13  C   UNL     1      28.189  53.398  46.457  0.00  0.00    +0.000 C 
ATOM     14  C   UNL     1      27.662  54.710  45.949  0.00  0.00    +0.000 C 
ATOM     15  C   UNL     1      28.204  55.403  44.919  0.00  0.00    +0.000 C 
ATOM     16  C   UNL     1      27.545  56.719  44.509  0.00  0.00    +0.000 C 
ATOM     17  C   UNL     1      27.475  56.909  42.974  0.00  0.00    +0.000 C 
ATOM     18  C   UNL     1      27.667  55.573  42.250  0.00  0.00    +0.000 C 
ATOM     19  C   UNL     1      29.062  54.996  42.553  0.00  0.00    +0.000 C 
ATOM     20  C   UNL     1      29.390  54.873  44.093  0.00  0.00    +0.000 C 
ATOM     21  C   UNL     1      30.589  55.797  44.437  0.00  0.00    +0.000 C 
ATOM     22  C   UNL     1      29.686  53.352  44.422  0.00  0.00    +0.000 C 
ATOM     23  C   UNL     1      31.017  52.822  43.778  0.00  0.00    +0.000 C 
ATOM     24  C   UNL     1      31.313  51.409  44.237  0.00  0.00    +0.000 C 
ATOM     25  O   UNL     1      31.463  50.504  43.430  0.00  0.00    +0.000 OA
ATOM     26  C   UNL     1      31.322  51.162  45.729  0.00  0.00    +0.000 C 
ATOM     27  C   UNL     1      32.461  52.023  46.378  0.00  0.00    +0.000 C 
ATOM     28  C   UNL     1      31.376  49.656  46.197  0.00  0.00    +0.000 C 
ATOM     29  C   UNL     1      32.551  49.151  47.025  0.00  0.00    +0.000 C 
ATOM     30  C   UNL     1      33.747  48.687  46.184  0.00  0.00    +0.000 C 
ENDROOT
BRANCH   7  31
ATOM     31  O   UNL     1      32.972  45.991  50.770  0.00  0.00    +0.000 OA
ATOM     32  H   UNL     1      33.012  46.482  51.632  0.00  0.00    +0.000 HD
ENDBRANCH   7  31
BRANCH  17  33
ATOM     33  O   UNL     1      28.481  57.826  42.548  0.00  0.00    +0.000 OA
BRANCH  33  34
ATOM     34  C   UNL     1      27.953  59.123  42.289  0.00  0.00    +0.000 C 
ATOM     35  O   UNL     1      26.527  59.027  42.374  0.00  0.00    +0.000 OA
ATOM     36  C   UNL     1      25.901  60.189  41.868  0.00  0.00    +0.000 C 
ATOM     37  C   UNL     1      26.098  60.319  40.316  0.00  0.00    +0.000 C 
ATOM     38  C   UNL     1      27.326  59.485  39.849  0.00  0.00    +0.000 C 
ATOM     39  C   UNL     1      28.455  59.601  40.883  0.00  0.00    +0.000 C 
BRANCH  38  40
ATOM     40  O   UNL     1      27.011  58.122  39.651  0.00  0.00    +0.000 OA
ATOM     41  H   UNL     1      26.587  57.996  38.764  0.00  0.00    +0.000 HD
ENDBRANCH  38  40
BRANCH  39  42
ATOM     42  O   UNL     1      28.957  60.919  40.914  0.00  0.00    +0.000 OA
ATOM     43  H   UNL     1      28.517  61.424  41.643  0.00  0.00    +0.000 HD
ENDBRANCH  39  42
BRANCH  36  44
ATOM     44  C   UNL     1      24.429  60.206  42.303  0.00  0.00    +0.000 C 
BRANCH  44  45
ATOM     45  O   UNL     1      23.760  59.051  41.875  0.00  0.00    +0.000 OA
ATOM     46  H   UNL     1      24.035  58.895  40.935  0.00  0.00    +0.000 HD
ENDBRANCH  44  45
ENDBRANCH  36  44
BRANCH  37  47
ATOM     47  O   UNL     1      24.947  59.916  39.572  0.00  0.00    +0.000 OA
BRANCH  47  48
ATOM     48  C   UNL     1      24.482  60.916  38.668  0.00  0.00    +0.000 C 
ATOM     49  O   UNL     1      23.459  61.698  39.298  0.00  0.00    +0.000 OA
ATOM     50  C   UNL     1      22.146  61.520  38.785  0.00  0.00    +0.000 C 
ATOM     51  C   UNL     1      22.057  61.719  37.234  0.00  0.00    +0.000 C 
ATOM     52  C   UNL     1      23.357  61.330  36.494  0.00  0.00    +0.000 C 
ATOM     53  C   UNL     1      24.113  60.270  37.296  0.00  0.00    +0.000 C 
BRANCH  51  54
ATOM     54  O   UNL     1      21.715  63.041  36.900  0.00  0.00    +0.000 OA
ATOM     55  H   UNL     1      22.483  63.620  37.150  0.00  0.00    +0.000 HD
ENDBRANCH  51  54
BRANCH  52  56
ATOM     56  O   UNL     1      23.091  60.935  35.172  0.00  0.00    +0.000 OA
ATOM     57  H   UNL     1      23.400  59.997  35.074  0.00  0.00    +0.000 HD
ENDBRANCH  52  56
BRANCH  53  58
ATOM     58  O   UNL     1      25.267  59.829  36.624  0.00  0.00    +0.000 OA
ATOM     59  H   UNL     1      25.346  60.343  35.777  0.00  0.00    +0.000 HD
ENDBRANCH  53  58
BRANCH  50  60
ATOM     60  C   UNL     1      21.519  60.201  39.300  0.00  0.00    +0.000 C 
BRANCH  60  61
ATOM     61  O   UNL     1      21.445  60.213  40.700  0.00  0.00    +0.000 OA
ATOM     62  H   UNL     1      21.235  61.145  40.964  0.00  0.00    +0.000 HD
ENDBRANCH  60  61
ENDBRANCH  50  60
ENDBRANCH  47  48
ENDBRANCH  37  47
ENDBRANCH  33  34
ENDBRANCH  17  33
TORSDOF 14
