MODEL 1
REMARK VINA RESULT:   -12.902      0.000      0.000
REMARK INTER + INTRA:         -23.327
REMARK INTER:                 -22.330
REMARK INTRA:                  -0.997
REMARK UNBOUND:                -0.997
REMARK SMILES C[C@@H]1CC[C@@]2(C[C@@H]3[C@@H](C[C@H]4[C@@H]5CC=C6C[C@@H](O[C@H]7O[C@@H](CO[C@H]8O[C@@H](CO[C@H]9O[C@H](C)[C@@H](O)[C@H](O)[C@@H]9O)[C@H](O)[C@@H](O)[C@@H]8O)[C@H](O)[C@@H](O)[C@@H]7O)CC[C@]6(C)[C@@H]5CC[C@]34C)O2)OC1
REMARK SMILES IDX 23 1 24 2 25 3 38 4 40 5 42 6 22 7 21 8 20 9 18 10 19 11
REMARK SMILES IDX 48 12 46 13 44 14 17 15 16 16 2 17 3 18 61 19 4 20 60 21
REMARK SMILES IDX 5 22 6 23 59 24 7 25 8 26 57 27 9 28 56 29 10 30 55 31 11 32
REMARK SMILES IDX 54 33 12 34 52 35 13 36 51 37 14 38 50 39 15 40 1 41 58 42
REMARK SMILES IDX 53 43 49 44 47 46 45 48 43 50 26 52 27 53 28 54 29 55 36 56
REMARK SMILES IDX 30 57 34 58 32 59 31 60 37 61 35 63 33 65 41 67 39 69
REMARK H PARENT 49 45 47 47 45 49 43 51 37 62 35 64 33 66 41 68 39 70
ROOT
ATOM      1  C   UNL     1      24.848  60.741  40.382  1.00  0.00     0.282 C 
ATOM      2  O   UNL     1      24.688  62.135  40.094  1.00  0.00    -0.341 OA
ATOM      3  C   UNL     1      23.528  62.499  39.359  1.00  0.00     0.178 C 
ATOM      4  C   UNL     1      22.228  61.851  39.940  1.00  0.00     0.177 C 
ATOM      5  C   UNL     1      22.381  60.345  40.287  1.00  0.00     0.179 C 
ATOM      6  C   UNL     1      23.740  59.796  39.833  1.00  0.00     0.202 C 
ENDROOT
BRANCH   1   7
ATOM      7  O   UNL     1      26.114  60.337  39.892  1.00  0.00    -0.347 OA
BRANCH   7   8
ATOM      8  C   UNL     1      26.576  59.116  40.453  1.00  0.00     0.198 C 
BRANCH   8   9
ATOM      9  C   UNL     1      27.264  59.331  41.824  1.00  0.00     0.178 C 
ATOM     10  C   UNL     1      27.817  57.323  43.114  1.00  0.00     0.282 C 
ATOM     11  O   UNL     1      28.185  58.263  42.097  1.00  0.00    -0.341 OA
ATOM     12  C   UNL     1      26.303  57.056  43.113  1.00  0.00     0.202 C 
ATOM     13  C   UNL     1      25.525  58.356  43.445  1.00  0.00     0.179 C 
ATOM     14  C   UNL     1      26.309  59.627  43.010  1.00  0.00     0.177 C 
BRANCH  10  15
ATOM     15  O   UNL     1      28.498  56.109  42.826  1.00  0.00    -0.346 OA
BRANCH  15  16
ATOM     16  C   UNL     1      29.622  55.887  43.670  1.00  0.00     0.125 C 
ATOM     17  C   UNL     1      39.153  53.683  44.523  1.00  0.00     0.012 C 
ATOM     18  C   UNL     1      39.528  53.391  45.960  1.00  0.00     0.011 C 
ATOM     19  C   UNL     1      37.606  53.892  44.508  1.00  0.00     0.167 C 
ATOM     20  C   UNL     1      39.158  54.598  46.834  1.00  0.00     0.066 C 
ATOM     21  O   UNL     1      37.057  54.720  45.550  1.00  0.00    -0.350 OA
ATOM     22  C   UNL     1      38.019  55.501  46.245  1.00  0.00     0.169 C 
ATOM     23  C   UNL     1      38.527  56.641  45.340  1.00  0.00     0.072 C 
ATOM     24  O   UNL     1      37.391  56.136  47.351  1.00  0.00    -0.346 OA
ATOM     25  C   UNL     1      37.644  57.814  45.668  1.00  0.00     0.030 C 
ATOM     26  C   UNL     1      37.397  57.548  47.161  1.00  0.00     0.126 C 
ATOM     27  C   UNL     1      36.197  58.017  45.049  1.00  0.00    -0.024 C 
ATOM     28  C   UNL     1      35.988  58.097  47.443  1.00  0.00     0.037 C 
ATOM     29  C   UNL     1      35.760  57.149  43.801  1.00  0.00     0.008 C 
ATOM     30  C   UNL     1      35.264  57.641  46.187  1.00  0.00     0.002 C 
ATOM     31  C   UNL     1      34.230  56.706  43.810  1.00  0.00     0.005 C 
ATOM     32  C   UNL     1      33.770  58.041  45.923  1.00  0.00     0.000 C 
ATOM     33  C   UNL     1      33.385  57.854  44.397  1.00  0.00     0.003 C 
ATOM     34  C   UNL     1      32.906  57.168  46.872  1.00  0.00     0.031 C 
ATOM     35  C   UNL     1      31.826  57.979  44.165  1.00  0.00    -0.008 C 
ATOM     36  C   UNL     1      31.488  56.938  46.448  1.00  0.00    -0.027 C 
ATOM     37  C   UNL     1      31.377  57.477  42.740  1.00  0.00     0.014 C 
ATOM     38  C   UNL     1      31.003  57.273  45.243  1.00  0.00    -0.065 C 
ATOM     39  C   UNL     1      30.924  56.011  42.815  1.00  0.00     0.033 C 
ATOM     40  C   UNL     1      29.600  56.892  44.863  1.00  0.00     0.063 C 
ATOM     41  C   UNL     1      39.566  52.552  43.577  1.00  0.00     0.010 C 
ATOM     42  C   UNL     1      36.112  59.556  44.725  1.00  0.00     0.012 C 
ATOM     43  C   UNL     1      31.462  59.491  44.239  1.00  0.00     0.016 C 
ENDBRANCH  15  16
ENDBRANCH  10  15
BRANCH  12  44
ATOM     44  O   UNL     1      25.930  56.013  43.976  1.00  0.00    -0.385 OA
ATOM     45  H   UNL     1      25.602  55.265  43.410  1.00  0.00     0.211 HD
ENDBRANCH  12  44
BRANCH  13  46
ATOM     46  O   UNL     1      24.210  58.322  42.941  1.00  0.00    -0.387 OA
ATOM     47  H   UNL     1      23.680  57.662  43.456  1.00  0.00     0.211 HD
ENDBRANCH  13  46
BRANCH  14  48
ATOM     48  O   UNL     1      27.128  60.044  44.078  1.00  0.00    -0.387 OA
ATOM     49  H   UNL     1      27.779  60.700  43.713  1.00  0.00     0.211 HD
ENDBRANCH  14  48
ENDBRANCH   8   9
ENDBRANCH   7   8
ENDBRANCH   1   7
BRANCH   6  50
ATOM     50  O   UNL     1      23.927  58.474  40.278  1.00  0.00    -0.385 OA
ATOM     51  H   UNL     1      23.538  58.398  41.187  1.00  0.00     0.211 HD
ENDBRANCH   6  50
BRANCH   3  52
ATOM     52  C   UNL     1      23.783  62.364  37.830  1.00  0.00     0.198 C 
BRANCH  52  53
ATOM     53  O   UNL     1      22.685  61.765  37.160  1.00  0.00    -0.347 OA
BRANCH  53  54
ATOM     54  C   UNL     1      22.127  62.596  36.156  1.00  0.00     0.281 C 
ATOM     55  O   UNL     1      22.170  61.856  34.929  1.00  0.00    -0.344 OA
ATOM     56  C   UNL     1      20.683  62.970  36.551  1.00  0.00     0.202 C 
ATOM     57  C   UNL     1      21.123  62.120  33.989  1.00  0.00     0.150 C 
ATOM     58  C   UNL     1      20.033  63.874  35.473  1.00  0.00     0.179 C 
ATOM     59  C   UNL     1      20.627  63.582  34.075  1.00  0.00     0.174 C 
ATOM     60  C   UNL     1      21.676  61.819  32.594  1.00  0.00     0.041 C 
BRANCH  56  61
ATOM     61  O   UNL     1      20.575  63.528  37.837  1.00  0.00    -0.385 OA
ATOM     62  H   UNL     1      19.749  64.073  37.860  1.00  0.00     0.211 HD
ENDBRANCH  56  61
BRANCH  58  63
ATOM     63  O   UNL     1      20.153  65.247  35.759  1.00  0.00    -0.387 OA
ATOM     64  H   UNL     1      19.926  65.378  36.717  1.00  0.00     0.211 HD
ENDBRANCH  58  63
BRANCH  59  65
ATOM     65  O   UNL     1      19.714  63.923  33.063  1.00  0.00    -0.388 OA
ATOM     66  H   UNL     1      19.431  63.078  32.626  1.00  0.00     0.211 HD
ENDBRANCH  59  65
ENDBRANCH  53  54
ENDBRANCH  52  53
ENDBRANCH   3  52
BRANCH   5  67
ATOM     67  O   UNL     1      21.301  59.583  39.812  1.00  0.00    -0.387 OA
ATOM     68  H   UNL     1      21.653  58.686  39.576  1.00  0.00     0.211 HD
ENDBRANCH   5  67
BRANCH   4  69
ATOM     69  O   UNL     1      21.810  62.545  41.092  1.00  0.00    -0.387 OA
ATOM     70  H   UNL     1      22.573  63.100  41.404  1.00  0.00     0.211 HD
ENDBRANCH   4  69
TORSDOF 17
ENDMDL
MODEL 2
REMARK VINA RESULT:   -11.958      3.629      4.972
REMARK INTER + INTRA:         -21.693
REMARK INTER:                 -19.979
REMARK INTRA:                  -1.714
REMARK UNBOUND:                -0.997
REMARK SMILES C[C@@H]1CC[C@@]2(C[C@@H]3[C@@H](C[C@H]4[C@@H]5CC=C6C[C@@H](O[C@H]7O[C@@H](CO[C@H]8O[C@@H](CO[C@H]9O[C@H](C)[C@@H](O)[C@H](O)[C@@H]9O)[C@H](O)[C@@H](O)[C@@H]8O)[C@H](O)[C@@H](O)[C@@H]7O)CC[C@]6(C)[C@@H]5CC[C@]34C)O2)OC1
REMARK SMILES IDX 23 1 24 2 25 3 38 4 40 5 42 6 22 7 21 8 20 9 18 10 19 11
REMARK SMILES IDX 48 12 46 13 44 14 17 15 16 16 2 17 3 18 61 19 4 20 60 21
REMARK SMILES IDX 5 22 6 23 59 24 7 25 8 26 57 27 9 28 56 29 10 30 55 31 11 32
REMARK SMILES IDX 54 33 12 34 52 35 13 36 51 37 14 38 50 39 15 40 1 41 58 42
REMARK SMILES IDX 53 43 49 44 47 46 45 48 43 50 26 52 27 53 28 54 29 55 36 56
REMARK SMILES IDX 30 57 34 58 32 59 31 60 37 61 35 63 33 65 41 67 39 69
REMARK H PARENT 49 45 47 47 45 49 43 51 37 62 35 64 33 66 41 68 39 70
ROOT
ATOM      1  C   UNL     1      25.125  60.398  40.641  1.00  0.00     0.282 C 
ATOM      2  O   UNL     1      25.089  61.820  40.464  1.00  0.00    -0.341 OA
ATOM      3  C   UNL     1      24.032  62.330  39.662  1.00  0.00     0.178 C 
ATOM      4  C   UNL     1      22.641  61.736  40.064  1.00  0.00     0.177 C 
ATOM      5  C   UNL     1      22.658  60.200  40.288  1.00  0.00     0.179 C 
ATOM      6  C   UNL     1      24.013  59.589  39.912  1.00  0.00     0.202 C 
ENDROOT
BRANCH   1   7
ATOM      7  O   UNL     1      26.402  59.941  40.233  1.00  0.00    -0.347 OA
BRANCH   7   8
ATOM      8  C   UNL     1      26.880  58.840  40.995  1.00  0.00     0.198 C 
BRANCH   8   9
ATOM      9  C   UNL     1      28.388  58.971  41.320  1.00  0.00     0.178 C 
ATOM     10  C   UNL     1      28.992  59.284  43.673  1.00  0.00     0.282 C 
ATOM     11  O   UNL     1      28.679  58.388  42.600  1.00  0.00    -0.341 OA
ATOM     12  C   UNL     1      28.171  60.580  43.582  1.00  0.00     0.202 C 
ATOM     13  C   UNL     1      28.517  61.350  42.281  1.00  0.00     0.179 C 
ATOM     14  C   UNL     1      28.987  60.391  41.150  1.00  0.00     0.177 C 
BRANCH  10  15
ATOM     15  O   UNL     1      28.665  58.616  44.885  1.00  0.00    -0.346 OA
BRANCH  15  16
ATOM     16  C   UNL     1      28.877  57.211  44.821  1.00  0.00     0.125 C 
ATOM     17  C   UNL     1      35.192  49.692  44.713  1.00  0.00     0.012 C 
ATOM     18  C   UNL     1      34.504  48.395  44.346  1.00  0.00     0.011 C 
ATOM     19  C   UNL     1      34.116  50.813  44.572  1.00  0.00     0.167 C 
ATOM     20  C   UNL     1      33.352  48.138  45.328  1.00  0.00     0.066 C 
ATOM     21  O   UNL     1      32.817  50.536  45.129  1.00  0.00    -0.350 OA
ATOM     22  C   UNL     1      32.787  49.428  46.017  1.00  0.00     0.169 C 
ATOM     23  C   UNL     1      33.490  49.792  47.340  1.00  0.00     0.072 C 
ATOM     24  O   UNL     1      31.437  49.146  46.362  1.00  0.00    -0.346 OA
ATOM     25  C   UNL     1      32.387  50.278  48.239  1.00  0.00     0.030 C 
ATOM     26  C   UNL     1      31.236  49.385  47.751  1.00  0.00     0.126 C 
ATOM     27  C   UNL     1      31.804  51.752  48.186  1.00  0.00    -0.024 C 
ATOM     28  C   UNL     1      29.962  50.227  47.936  1.00  0.00     0.037 C 
ATOM     29  C   UNL     1      32.596  52.871  47.395  1.00  0.00     0.008 C 
ATOM     30  C   UNL     1      30.469  51.586  47.480  1.00  0.00     0.002 C 
ATOM     31  C   UNL     1      31.670  53.913  46.625  1.00  0.00     0.005 C 
ATOM     32  C   UNL     1      29.558  52.860  47.566  1.00  0.00     0.000 C 
ATOM     33  C   UNL     1      30.417  54.189  47.478  1.00  0.00     0.003 C 
ATOM     34  C   UNL     1      28.521  52.737  46.417  1.00  0.00     0.031 C 
ATOM     35  C   UNL     1      29.505  55.466  47.279  1.00  0.00    -0.008 C 
ATOM     36  C   UNL     1      27.925  54.022  45.928  1.00  0.00    -0.027 C 
ATOM     37  C   UNL     1      30.326  56.744  46.861  1.00  0.00     0.014 C 
ATOM     38  C   UNL     1      28.366  55.236  46.285  1.00  0.00    -0.065 C 
ATOM     39  C   UNL     1      30.321  56.899  45.332  1.00  0.00     0.033 C 
ATOM     40  C   UNL     1      27.783  56.467  45.649  1.00  0.00     0.063 C 
ATOM     41  C   UNL     1      36.405  49.975  43.821  1.00  0.00     0.010 C 
ATOM     42  C   UNL     1      31.605  52.160  49.695  1.00  0.00     0.012 C 
ATOM     43  C   UNL     1      28.847  55.789  48.652  1.00  0.00     0.016 C 
ENDBRANCH  15  16
ENDBRANCH  10  15
BRANCH  12  44
ATOM     44  O   UNL     1      28.322  61.405  44.709  1.00  0.00    -0.385 OA
ATOM     45  H   UNL     1      29.130  61.963  44.561  1.00  0.00     0.211 HD
ENDBRANCH  12  44
BRANCH  13  46
ATOM     46  O   UNL     1      27.467  62.200  41.881  1.00  0.00    -0.387 OA
ATOM     47  H   UNL     1      27.536  63.057  42.373  1.00  0.00     0.211 HD
ENDBRANCH  13  46
BRANCH  14  48
ATOM     48  O   UNL     1      30.385  60.240  41.234  1.00  0.00    -0.387 OA
ATOM     49  H   UNL     1      30.781  61.152  41.231  1.00  0.00     0.211 HD
ENDBRANCH  14  48
ENDBRANCH   8   9
ENDBRANCH   7   8
ENDBRANCH   1   7
BRANCH   6  50
ATOM     50  O   UNL     1      24.066  58.224  40.253  1.00  0.00    -0.385 OA
ATOM     51  H   UNL     1      23.542  57.719  39.579  1.00  0.00     0.211 HD
ENDBRANCH   6  50
BRANCH   3  52
ATOM     52  C   UNL     1      24.425  62.301  38.156  1.00  0.00     0.198 C 
BRANCH  52  53
ATOM     53  O   UNL     1      23.755  63.309  37.415  1.00  0.00    -0.347 OA
BRANCH  53  54
ATOM     54  C   UNL     1      22.834  62.785  36.473  1.00  0.00     0.281 C 
ATOM     55  O   UNL     1      22.808  61.365  36.659  1.00  0.00    -0.344 OA
ATOM     56  C   UNL     1      21.448  63.421  36.710  1.00  0.00     0.202 C 
ATOM     57  C   UNL     1      21.566  60.709  36.383  1.00  0.00     0.150 C 
ATOM     58  C   UNL     1      20.407  62.868  35.703  1.00  0.00     0.179 C 
ATOM     59  C   UNL     1      20.769  61.428  35.270  1.00  0.00     0.174 C 
ATOM     60  C   UNL     1      21.890  59.271  35.970  1.00  0.00     0.041 C 
BRANCH  56  61
ATOM     61  O   UNL     1      21.466  64.827  36.727  1.00  0.00    -0.385 OA
ATOM     62  H   UNL     1      22.413  65.116  36.692  1.00  0.00     0.211 HD
ENDBRANCH  56  61
BRANCH  58  63
ATOM     63  O   UNL     1      20.258  63.680  34.564  1.00  0.00    -0.387 OA
ATOM     64  H   UNL     1      19.924  64.566  34.864  1.00  0.00     0.211 HD
ENDBRANCH  58  63
BRANCH  59  65
ATOM     65  O   UNL     1      19.622  60.728  34.861  1.00  0.00    -0.388 OA
ATOM     66  H   UNL     1      19.398  60.084  35.583  1.00  0.00     0.211 HD
ENDBRANCH  59  65
ENDBRANCH  53  54
ENDBRANCH  52  53
ENDBRANCH   3  52
BRANCH   5  67
ATOM     67  O   UNL     1      21.579  59.564  39.652  1.00  0.00    -0.387 OA
ATOM     68  H   UNL     1      21.031  59.133  40.358  1.00  0.00     0.211 HD
ENDBRANCH   5  67
BRANCH   4  69
ATOM     69  O   UNL     1      22.162  62.364  41.230  1.00  0.00    -0.387 OA
ATOM     70  H   UNL     1      22.891  62.344  41.905  1.00  0.00     0.211 HD
ENDBRANCH   4  69
TORSDOF 17
ENDMDL
MODEL 3
REMARK VINA RESULT:   -11.905      3.021      4.076
REMARK INTER + INTRA:         -21.601
REMARK INTER:                 -20.857
REMARK INTRA:                  -0.745
REMARK UNBOUND:                -0.997
REMARK SMILES C[C@@H]1CC[C@@]2(C[C@@H]3[C@@H](C[C@H]4[C@@H]5CC=C6C[C@@H](O[C@H]7O[C@@H](CO[C@H]8O[C@@H](CO[C@H]9O[C@H](C)[C@@H](O)[C@H](O)[C@@H]9O)[C@H](O)[C@@H](O)[C@@H]8O)[C@H](O)[C@@H](O)[C@@H]7O)CC[C@]6(C)[C@@H]5CC[C@]34C)O2)OC1
REMARK SMILES IDX 23 1 24 2 25 3 38 4 40 5 42 6 22 7 21 8 20 9 18 10 19 11
REMARK SMILES IDX 48 12 46 13 44 14 17 15 16 16 2 17 3 18 61 19 4 20 60 21
REMARK SMILES IDX 5 22 6 23 59 24 7 25 8 26 57 27 9 28 56 29 10 30 55 31 11 32
REMARK SMILES IDX 54 33 12 34 52 35 13 36 51 37 14 38 50 39 15 40 1 41 58 42
REMARK SMILES IDX 53 43 49 44 47 46 45 48 43 50 26 52 27 53 28 54 29 55 36 56
REMARK SMILES IDX 30 57 34 58 32 59 31 60 37 61 35 63 33 65 41 67 39 69
REMARK H PARENT 49 45 47 47 45 49 43 51 37 62 35 64 33 66 41 68 39 70
ROOT
ATOM      1  C   UNL     1      25.026  60.615  40.630  1.00  0.00     0.282 C 
ATOM      2  O   UNL     1      24.957  62.020  40.359  1.00  0.00    -0.341 OA
ATOM      3  C   UNL     1      23.871  62.454  39.550  1.00  0.00     0.178 C 
ATOM      4  C   UNL     1      22.503  61.864  40.026  1.00  0.00     0.177 C 
ATOM      5  C   UNL     1      22.556  60.347  40.353  1.00  0.00     0.179 C 
ATOM      6  C   UNL     1      23.914  59.737  39.986  1.00  0.00     0.202 C 
ENDROOT
BRANCH   1   7
ATOM      7  O   UNL     1      26.302  60.155  40.223  1.00  0.00    -0.347 OA
BRANCH   7   8
ATOM      8  C   UNL     1      27.352  60.548  41.098  1.00  0.00     0.198 C 
BRANCH   8   9
ATOM      9  C   UNL     1      27.407  59.666  42.370  1.00  0.00     0.178 C 
ATOM     10  C   UNL     1      29.237  58.044  42.514  1.00  0.00     0.282 C 
ATOM     11  O   UNL     1      28.770  59.382  42.724  1.00  0.00    -0.341 OA
ATOM     12  C   UNL     1      28.623  57.425  41.248  1.00  0.00     0.202 C 
ATOM     13  C   UNL     1      27.083  57.311  41.394  1.00  0.00     0.179 C 
ATOM     14  C   UNL     1      26.511  58.402  42.345  1.00  0.00     0.177 C 
BRANCH  10  15
ATOM     15  O   UNL     1      30.648  58.114  42.354  1.00  0.00    -0.346 OA
BRANCH  15  16
ATOM     16  C   UNL     1      31.357  57.937  43.574  1.00  0.00     0.125 C 
ATOM     17  C   UNL     1      38.893  60.489  49.330  1.00  0.00     0.012 C 
ATOM     18  C   UNL     1      39.057  59.528  50.488  1.00  0.00     0.011 C 
ATOM     19  C   UNL     1      37.756  59.905  48.435  1.00  0.00     0.167 C 
ATOM     20  C   UNL     1      37.746  59.468  51.285  1.00  0.00     0.066 C 
ATOM     21  O   UNL     1      36.577  59.431  49.114  1.00  0.00    -0.350 OA
ATOM     22  C   UNL     1      36.468  59.861  50.464  1.00  0.00     0.169 C 
ATOM     23  C   UNL     1      36.128  61.363  50.514  1.00  0.00     0.072 C 
ATOM     24  O   UNL     1      35.371  59.195  51.076  1.00  0.00    -0.346 OA
ATOM     25  C   UNL     1      34.627  61.414  50.594  1.00  0.00     0.030 C 
ATOM     26  C   UNL     1      34.364  60.143  51.416  1.00  0.00     0.126 C 
ATOM     27  C   UNL     1      33.681  61.280  49.328  1.00  0.00    -0.024 C 
ATOM     28  C   UNL     1      33.001  59.621  50.931  1.00  0.00     0.037 C 
ATOM     29  C   UNL     1      34.301  61.414  47.879  1.00  0.00     0.008 C 
ATOM     30  C   UNL     1      33.134  59.867  49.436  1.00  0.00     0.002 C 
ATOM     31  C   UNL     1      33.654  60.445  46.794  1.00  0.00     0.005 C 
ATOM     32  C   UNL     1      31.939  59.586  48.460  1.00  0.00     0.000 C 
ATOM     33  C   UNL     1      32.143  60.325  47.073  1.00  0.00     0.003 C 
ATOM     34  C   UNL     1      31.845  58.044  48.311  1.00  0.00     0.031 C 
ATOM     35  C   UNL     1      31.104  59.834  45.987  1.00  0.00    -0.008 C 
ATOM     36  C   UNL     1      31.200  57.541  47.056  1.00  0.00    -0.027 C 
ATOM     37  C   UNL     1      31.481  60.293  44.528  1.00  0.00     0.014 C 
ATOM     38  C   UNL     1      30.887  58.320  46.011  1.00  0.00    -0.065 C 
ATOM     39  C   UNL     1      32.268  59.185  43.811  1.00  0.00     0.033 C 
ATOM     40  C   UNL     1      30.353  57.707  44.746  1.00  0.00     0.063 C 
ATOM     41  C   UNL     1      40.190  60.660  48.534  1.00  0.00     0.010 C 
ATOM     42  C   UNL     1      32.547  62.349  49.560  1.00  0.00     0.012 C 
ATOM     43  C   UNL     1      29.733  60.491  46.320  1.00  0.00     0.016 C 
ENDBRANCH  15  16
ENDBRANCH  10  15
BRANCH  12  44
ATOM     44  O   UNL     1      29.189  56.184  40.914  1.00  0.00    -0.385 OA
ATOM     45  H   UNL     1      30.139  56.347  40.673  1.00  0.00     0.211 HD
ENDBRANCH  12  44
BRANCH  13  46
ATOM     46  O   UNL     1      26.440  57.281  40.141  1.00  0.00    -0.387 OA
ATOM     47  H   UNL     1      26.814  57.995  39.566  1.00  0.00     0.211 HD
ENDBRANCH  13  46
BRANCH  14  48
ATOM     48  O   UNL     1      26.504  57.899  43.661  1.00  0.00    -0.387 OA
ATOM     49  H   UNL     1      26.035  58.566  44.230  1.00  0.00     0.211 HD
ENDBRANCH  14  48
ENDBRANCH   8   9
ENDBRANCH   7   8
ENDBRANCH   1   7
BRANCH   6  50
ATOM     50  O   UNL     1      24.003  58.400  40.417  1.00  0.00    -0.385 OA
ATOM     51  H   UNL     1      24.354  58.399  41.346  1.00  0.00     0.211 HD
ENDBRANCH   6  50
BRANCH   3  52
ATOM     52  C   UNL     1      24.229  62.330  38.041  1.00  0.00     0.198 C 
BRANCH  52  53
ATOM     53  O   UNL     1      23.407  63.158  37.232  1.00  0.00    -0.347 OA
BRANCH  53  54
ATOM     54  C   UNL     1      22.204  62.522  36.832  1.00  0.00     0.281 C 
ATOM     55  O   UNL     1      21.250  63.559  36.572  1.00  0.00    -0.344 OA
ATOM     56  C   UNL     1      22.477  61.665  35.578  1.00  0.00     0.202 C 
ATOM     57  C   UNL     1      20.278  63.290  35.557  1.00  0.00     0.150 C 
ATOM     58  C   UNL     1      21.183  60.958  35.101  1.00  0.00     0.179 C 
ATOM     59  C   UNL     1      19.931  61.785  35.475  1.00  0.00     0.174 C 
ATOM     60  C   UNL     1      19.031  64.114  35.888  1.00  0.00     0.041 C 
BRANCH  56  61
ATOM     61  O   UNL     1      23.543  60.761  35.732  1.00  0.00    -0.385 OA
ATOM     62  H   UNL     1      23.619  60.548  36.696  1.00  0.00     0.211 HD
ENDBRANCH  56  61
BRANCH  58  63
ATOM     63  O   UNL     1      21.052  59.650  35.606  1.00  0.00    -0.387 OA
ATOM     64  H   UNL     1      21.630  59.577  36.410  1.00  0.00     0.211 HD
ENDBRANCH  58  63
BRANCH  59  65
ATOM     65  O   UNL     1      18.867  61.503  34.603  1.00  0.00    -0.388 OA
ATOM     66  H   UNL     1      19.262  61.308  33.713  1.00  0.00     0.211 HD
ENDBRANCH  59  65
ENDBRANCH  53  54
ENDBRANCH  52  53
ENDBRANCH   3  52
BRANCH   5  67
ATOM     67  O   UNL     1      21.476  59.649  39.788  1.00  0.00    -0.387 OA
ATOM     68  H   UNL     1      21.727  58.689  39.760  1.00  0.00     0.211 HD
ENDBRANCH   5  67
BRANCH   4  69
ATOM     69  O   UNL     1      22.038  62.561  41.158  1.00  0.00    -0.387 OA
ATOM     70  H   UNL     1      22.751  63.196  41.436  1.00  0.00     0.211 HD
ENDBRANCH   4  69
TORSDOF 17
ENDMDL
MODEL 4
REMARK VINA RESULT:   -11.722      1.821      3.359
REMARK INTER + INTRA:         -21.286
REMARK INTER:                 -19.318
REMARK INTRA:                  -1.968
REMARK UNBOUND:                -0.997
REMARK SMILES C[C@@H]1CC[C@@]2(C[C@@H]3[C@@H](C[C@H]4[C@@H]5CC=C6C[C@@H](O[C@H]7O[C@@H](CO[C@H]8O[C@@H](CO[C@H]9O[C@H](C)[C@@H](O)[C@H](O)[C@@H]9O)[C@H](O)[C@@H](O)[C@@H]8O)[C@H](O)[C@@H](O)[C@@H]7O)CC[C@]6(C)[C@@H]5CC[C@]34C)O2)OC1
REMARK SMILES IDX 23 1 24 2 25 3 38 4 40 5 42 6 22 7 21 8 20 9 18 10 19 11
REMARK SMILES IDX 48 12 46 13 44 14 17 15 16 16 2 17 3 18 61 19 4 20 60 21
REMARK SMILES IDX 5 22 6 23 59 24 7 25 8 26 57 27 9 28 56 29 10 30 55 31 11 32
REMARK SMILES IDX 54 33 12 34 52 35 13 36 51 37 14 38 50 39 15 40 1 41 58 42
REMARK SMILES IDX 53 43 49 44 47 46 45 48 43 50 26 52 27 53 28 54 29 55 36 56
REMARK SMILES IDX 30 57 34 58 32 59 31 60 37 61 35 63 33 65 41 67 39 69
REMARK H PARENT 49 45 47 47 45 49 43 51 37 62 35 64 33 66 41 68 39 70
ROOT
ATOM      1  C   UNL     1      26.349  59.445  42.810  1.00  0.00     0.282 C 
ATOM      2  O   UNL     1      24.939  59.520  42.570  1.00  0.00    -0.341 OA
ATOM      3  C   UNL     1      24.526  59.455  41.211  1.00  0.00     0.178 C 
ATOM      4  C   UNL     1      25.208  58.278  40.438  1.00  0.00     0.177 C 
ATOM      5  C   UNL     1      26.733  58.157  40.703  1.00  0.00     0.179 C 
ATOM      6  C   UNL     1      27.254  59.324  41.550  1.00  0.00     0.202 C 
ENDROOT
BRANCH   1   7
ATOM      7  O   UNL     1      26.723  60.583  43.567  1.00  0.00    -0.347 OA
BRANCH   7   8
ATOM      8  C   UNL     1      26.065  60.669  44.824  1.00  0.00     0.198 C 
BRANCH   8   9
ATOM      9  C   UNL     1      27.009  60.312  45.998  1.00  0.00     0.178 C 
ATOM     10  C   UNL     1      28.491  58.387  45.682  1.00  0.00     0.282 C 
ATOM     11  O   UNL     1      28.251  59.788  45.503  1.00  0.00    -0.341 OA
ATOM     12  C   UNL     1      27.196  57.571  45.538  1.00  0.00     0.202 C 
ATOM     13  C   UNL     1      26.182  57.966  46.644  1.00  0.00     0.179 C 
ATOM     14  C   UNL     1      26.383  59.436  47.114  1.00  0.00     0.177 C 
BRANCH  10  15
ATOM     15  O   UNL     1      29.402  57.985  44.667  1.00  0.00    -0.346 OA
BRANCH  15  16
ATOM     16  C   UNL     1      30.521  57.269  45.175  1.00  0.00     0.125 C 
ATOM     17  C   UNL     1      38.990  52.619  43.420  1.00  0.00     0.012 C 
ATOM     18  C   UNL     1      39.470  51.861  44.639  1.00  0.00     0.011 C 
ATOM     19  C   UNL     1      37.590  53.201  43.790  1.00  0.00     0.167 C 
ATOM     20  C   UNL     1      39.606  52.835  45.819  1.00  0.00     0.066 C 
ATOM     21  O   UNL     1      37.470  53.822  45.084  1.00  0.00    -0.350 OA
ATOM     22  C   UNL     1      38.711  54.118  45.708  1.00  0.00     0.169 C 
ATOM     23  C   UNL     1      39.395  55.299  44.990  1.00  0.00     0.072 C 
ATOM     24  O   UNL     1      38.469  54.561  47.037  1.00  0.00    -0.346 OA
ATOM     25  C   UNL     1      38.956  56.518  45.755  1.00  0.00     0.030 C 
ATOM     26  C   UNL     1      38.865  55.923  47.168  1.00  0.00     0.126 C 
ATOM     27  C   UNL     1      37.561  57.235  45.527  1.00  0.00    -0.024 C 
ATOM     28  C   UNL     1      37.739  56.706  47.866  1.00  0.00     0.037 C 
ATOM     29  C   UNL     1      36.707  56.880  44.243  1.00  0.00     0.008 C 
ATOM     30  C   UNL     1      36.736  56.807  46.728  1.00  0.00     0.002 C 
ATOM     31  C   UNL     1      35.134  56.846  44.487  1.00  0.00     0.005 C 
ATOM     32  C   UNL     1      35.406  57.622  46.892  1.00  0.00     0.000 C 
ATOM     33  C   UNL     1      34.762  57.962  45.483  1.00  0.00     0.003 C 
ATOM     34  C   UNL     1      34.472  56.765  47.788  1.00  0.00     0.031 C 
ATOM     35  C   UNL     1      33.293  58.529  45.631  1.00  0.00    -0.008 C 
ATOM     36  C   UNL     1      33.003  57.020  47.642  1.00  0.00    -0.027 C 
ATOM     37  C   UNL     1      32.512  58.565  44.263  1.00  0.00     0.014 C 
ATOM     38  C   UNL     1      32.467  57.782  46.678  1.00  0.00    -0.065 C 
ATOM     39  C   UNL     1      31.661  57.295  44.107  1.00  0.00     0.033 C 
ATOM     40  C   UNL     1      30.973  57.881  46.538  1.00  0.00     0.063 C 
ATOM     41  C   UNL     1      38.907  51.725  42.180  1.00  0.00     0.010 C 
ATOM     42  C   UNL     1      37.888  58.776  45.580  1.00  0.00     0.012 C 
ATOM     43  C   UNL     1      33.408  60.004  46.116  1.00  0.00     0.016 C 
ENDBRANCH  15  16
ENDBRANCH  10  15
BRANCH  12  44
ATOM     44  O   UNL     1      27.419  56.184  45.534  1.00  0.00    -0.385 OA
ATOM     45  H   UNL     1      27.241  55.853  46.453  1.00  0.00     0.211 HD
ENDBRANCH  12  44
BRANCH  13  46
ATOM     46  O   UNL     1      24.856  57.688  46.261  1.00  0.00    -0.387 OA
ATOM     47  H   UNL     1      24.847  57.372  45.322  1.00  0.00     0.211 HD
ENDBRANCH  13  46
BRANCH  14  48
ATOM     48  O   UNL     1      27.300  59.449  48.184  1.00  0.00    -0.387 OA
ATOM     49  H   UNL     1      27.861  60.263  48.083  1.00  0.00     0.211 HD
ENDBRANCH  14  48
ENDBRANCH   8   9
ENDBRANCH   7   8
ENDBRANCH   1   7
BRANCH   6  50
ATOM     50  O   UNL     1      28.603  59.132  41.905  1.00  0.00    -0.385 OA
ATOM     51  H   UNL     1      28.837  59.805  42.595  1.00  0.00     0.211 HD
ENDBRANCH   6  50
BRANCH   3  52
ATOM     52  C   UNL     1      24.563  60.868  40.559  1.00  0.00     0.198 C 
BRANCH  52  53
ATOM     53  O   UNL     1      24.948  60.811  39.194  1.00  0.00    -0.347 OA
BRANCH  53  54
ATOM     54  C   UNL     1      23.842  60.752  38.308  1.00  0.00     0.281 C 
ATOM     55  O   UNL     1      22.987  61.855  38.632  1.00  0.00    -0.344 OA
ATOM     56  C   UNL     1      24.353  60.829  36.854  1.00  0.00     0.202 C 
ATOM     57  C   UNL     1      22.244  62.425  37.549  1.00  0.00     0.150 C 
ATOM     58  C   UNL     1      23.172  60.775  35.851  1.00  0.00     0.179 C 
ATOM     59  C   UNL     1      21.889  61.370  36.477  1.00  0.00     0.174 C 
ATOM     60  C   UNL     1      20.975  63.042  38.141  1.00  0.00     0.041 C 
BRANCH  56  61
ATOM     61  O   UNL     1      25.342  59.875  36.551  1.00  0.00    -0.385 OA
ATOM     62  H   UNL     1      25.530  59.365  37.378  1.00  0.00     0.211 HD
ENDBRANCH  56  61
BRANCH  58  63
ATOM     63  O   UNL     1      22.909  59.476  35.379  1.00  0.00    -0.387 OA
ATOM     64  H   UNL     1      22.025  59.197  35.736  1.00  0.00     0.211 HD
ENDBRANCH  58  63
BRANCH  59  65
ATOM     65  O   UNL     1      21.026  61.854  35.480  1.00  0.00    -0.388 OA
ATOM     66  H   UNL     1      20.181  62.121  35.927  1.00  0.00     0.211 HD
ENDBRANCH  59  65
ENDBRANCH  53  54
ENDBRANCH  52  53
ENDBRANCH   3  52
BRANCH   5  67
ATOM     67  O   UNL     1      27.461  57.981  39.514  1.00  0.00    -0.387 OA
ATOM     68  H   UNL     1      27.023  58.533  38.815  1.00  0.00     0.211 HD
ENDBRANCH   5  67
BRANCH   4  69
ATOM     69  O   UNL     1      24.589  57.056  40.766  1.00  0.00    -0.387 OA
ATOM     70  H   UNL     1      25.286  56.348  40.744  1.00  0.00     0.211 HD
ENDBRANCH   4  69
TORSDOF 17
ENDMDL
MODEL 5
REMARK VINA RESULT:   -11.600      5.784      7.593
REMARK INTER + INTRA:         -21.074
REMARK INTER:                 -19.562
REMARK INTRA:                  -1.512
REMARK UNBOUND:                -0.997
REMARK SMILES C[C@@H]1CC[C@@]2(C[C@@H]3[C@@H](C[C@H]4[C@@H]5CC=C6C[C@@H](O[C@H]7O[C@@H](CO[C@H]8O[C@@H](CO[C@H]9O[C@H](C)[C@@H](O)[C@H](O)[C@@H]9O)[C@H](O)[C@@H](O)[C@@H]8O)[C@H](O)[C@@H](O)[C@@H]7O)CC[C@]6(C)[C@@H]5CC[C@]34C)O2)OC1
REMARK SMILES IDX 23 1 24 2 25 3 38 4 40 5 42 6 22 7 21 8 20 9 18 10 19 11
REMARK SMILES IDX 48 12 46 13 44 14 17 15 16 16 2 17 3 18 61 19 4 20 60 21
REMARK SMILES IDX 5 22 6 23 59 24 7 25 8 26 57 27 9 28 56 29 10 30 55 31 11 32
REMARK SMILES IDX 54 33 12 34 52 35 13 36 51 37 14 38 50 39 15 40 1 41 58 42
REMARK SMILES IDX 53 43 49 44 47 46 45 48 43 50 26 52 27 53 28 54 29 55 36 56
REMARK SMILES IDX 30 57 34 58 32 59 31 60 37 61 35 63 33 65 41 67 39 69
REMARK H PARENT 49 45 47 47 45 49 43 51 37 62 35 64 33 66 41 68 39 70
ROOT
ATOM      1  C   UNL     1      26.362  59.315  43.100  1.00  0.00     0.282 C 
ATOM      2  O   UNL     1      25.238  58.710  42.449  1.00  0.00    -0.341 OA
ATOM      3  C   UNL     1      24.973  59.137  41.119  1.00  0.00     0.178 C 
ATOM      4  C   UNL     1      26.259  59.136  40.228  1.00  0.00     0.177 C 
ATOM      5  C   UNL     1      27.500  59.761  40.919  1.00  0.00     0.179 C 
ATOM      6  C   UNL     1      27.140  60.381  42.275  1.00  0.00     0.202 C 
ENDROOT
BRANCH   1   7
ATOM      7  O   UNL     1      25.908  59.882  44.316  1.00  0.00    -0.347 OA
BRANCH   7   8
ATOM      8  C   UNL     1      25.966  58.983  45.416  1.00  0.00     0.198 C 
BRANCH   8   9
ATOM      9  C   UNL     1      27.328  58.251  45.495  1.00  0.00     0.178 C 
ATOM     10  C   UNL     1      27.999  57.392  47.689  1.00  0.00     0.282 C 
ATOM     11  O   UNL     1      27.275  57.196  46.469  1.00  0.00    -0.341 OA
ATOM     12  C   UNL     1      27.957  58.862  48.139  1.00  0.00     0.202 C 
ATOM     13  C   UNL     1      28.653  59.768  47.090  1.00  0.00     0.179 C 
ATOM     14  C   UNL     1      28.569  59.165  45.659  1.00  0.00     0.177 C 
BRANCH  10  15
ATOM     15  O   UNL     1      27.372  56.589  48.681  1.00  0.00    -0.346 OA
BRANCH  15  16
ATOM     16  C   UNL     1      28.139  55.446  49.040  1.00  0.00     0.125 C 
ATOM     17  C   UNL     1      28.513  45.757  50.589  1.00  0.00     0.012 C 
ATOM     18  C   UNL     1      29.815  45.350  51.246  1.00  0.00     0.011 C 
ATOM     19  C   UNL     1      28.529  47.316  50.515  1.00  0.00     0.167 C 
ATOM     20  C   UNL     1      30.989  45.818  50.375  1.00  0.00     0.066 C 
ATOM     21  O   UNL     1      29.753  47.929  50.067  1.00  0.00    -0.350 OA
ATOM     22  C   UNL     1      30.660  47.034  49.439  1.00  0.00     0.169 C 
ATOM     23  C   UNL     1      30.127  46.630  48.051  1.00  0.00     0.072 C 
ATOM     24  O   UNL     1      31.888  47.708  49.202  1.00  0.00    -0.346 OA
ATOM     25  C   UNL     1      30.758  47.609  47.099  1.00  0.00     0.030 C 
ATOM     26  C   UNL     1      32.108  47.823  47.799  1.00  0.00     0.126 C 
ATOM     27  C   UNL     1      30.195  49.070  46.849  1.00  0.00    -0.024 C 
ATOM     28  C   UNL     1      32.508  49.273  47.473  1.00  0.00     0.037 C 
ATOM     29  C   UNL     1      28.743  49.439  47.358  1.00  0.00     0.008 C 
ATOM     30  C   UNL     1      31.160  49.962  47.611  1.00  0.00     0.002 C 
ATOM     31  C   UNL     1      28.596  50.924  47.911  1.00  0.00     0.005 C 
ATOM     32  C   UNL     1      30.993  51.486  47.278  1.00  0.00     0.000 C 
ATOM     33  C   UNL     1      29.469  51.862  47.054  1.00  0.00     0.003 C 
ATOM     34  C   UNL     1      31.637  52.267  48.455  1.00  0.00     0.031 C 
ATOM     35  C   UNL     1      29.252  53.427  46.999  1.00  0.00    -0.008 C 
ATOM     36  C   UNL     1      31.137  53.662  48.672  1.00  0.00    -0.027 C 
ATOM     37  C   UNL     1      27.735  53.839  47.109  1.00  0.00     0.014 C 
ATOM     38  C   UNL     1      30.069  54.180  48.050  1.00  0.00    -0.065 C 
ATOM     39  C   UNL     1      27.380  54.164  48.568  1.00  0.00     0.033 C 
ATOM     40  C   UNL     1      29.569  55.548  48.423  1.00  0.00     0.063 C 
ATOM     41  C   UNL     1      27.292  45.253  51.364  1.00  0.00     0.010 C 
ATOM     42  C   UNL     1      30.322  49.289  45.294  1.00  0.00     0.012 C 
ATOM     43  C   UNL     1      29.747  53.919  45.607  1.00  0.00     0.016 C 
ENDBRANCH  15  16
ENDBRANCH  10  15
BRANCH  12  44
ATOM     44  O   UNL     1      28.504  59.060  49.417  1.00  0.00    -0.385 OA
ATOM     45  H   UNL     1      27.755  59.027  50.068  1.00  0.00     0.211 HD
ENDBRANCH  12  44
BRANCH  13  46
ATOM     46  O   UNL     1      28.186  61.096  47.156  1.00  0.00    -0.387 OA
ATOM     47  H   UNL     1      28.483  61.586  46.348  1.00  0.00     0.211 HD
ENDBRANCH  13  46
BRANCH  14  48
ATOM     48  O   UNL     1      29.694  58.343  45.446  1.00  0.00    -0.387 OA
ATOM     49  H   UNL     1      30.026  58.529  44.528  1.00  0.00     0.211 HD
ENDBRANCH  14  48
ENDBRANCH   8   9
ENDBRANCH   7   8
ENDBRANCH   1   7
BRANCH   6  50
ATOM     50  O   UNL     1      28.291  60.816  42.957  1.00  0.00    -0.385 OA
ATOM     51  H   UNL     1      28.000  61.321  43.760  1.00  0.00     0.211 HD
ENDBRANCH   6  50
BRANCH   3  52
ATOM     52  C   UNL     1      24.094  60.421  41.121  1.00  0.00     0.198 C 
BRANCH  52  53
ATOM     53  O   UNL     1      22.906  60.250  40.364  1.00  0.00    -0.347 OA
BRANCH  53  54
ATOM     54  C   UNL     1      22.678  61.304  39.444  1.00  0.00     0.281 C 
ATOM     55  O   UNL     1      23.719  61.237  38.463  1.00  0.00    -0.344 OA
ATOM     56  C   UNL     1      21.281  61.131  38.810  1.00  0.00     0.202 C 
ATOM     57  C   UNL     1      23.379  61.666  37.141  1.00  0.00     0.150 C 
ATOM     58  C   UNL     1      20.994  62.262  37.789  1.00  0.00     0.179 C 
ATOM     59  C   UNL     1      22.306  62.779  37.155  1.00  0.00     0.174 C 
ATOM     60  C   UNL     1      24.665  62.165  36.477  1.00  0.00     0.041 C 
BRANCH  56  61
ATOM     61  O   UNL     1      20.245  61.000  39.752  1.00  0.00    -0.385 OA
ATOM     62  H   UNL     1      19.956  60.053  39.752  1.00  0.00     0.211 HD
ENDBRANCH  56  61
BRANCH  58  63
ATOM     63  O   UNL     1      20.283  63.341  38.348  1.00  0.00    -0.387 OA
ATOM     64  H   UNL     1      19.426  62.987  38.703  1.00  0.00     0.211 HD
ENDBRANCH  58  63
BRANCH  59  65
ATOM     65  O   UNL     1      22.062  63.337  35.889  1.00  0.00    -0.388 OA
ATOM     66  H   UNL     1      22.753  64.033  35.736  1.00  0.00     0.211 HD
ENDBRANCH  59  65
ENDBRANCH  53  54
ENDBRANCH  52  53
ENDBRANCH   3  52
BRANCH   5  67
ATOM     67  O   UNL     1      28.177  60.657  40.075  1.00  0.00    -0.387 OA
ATOM     68  H   UNL     1      27.973  60.395  39.140  1.00  0.00     0.211 HD
ENDBRANCH   5  67
BRANCH   4  69
ATOM     69  O   UNL     1      26.572  57.823  39.826  1.00  0.00    -0.387 OA
ATOM     70  H   UNL     1      25.787  57.248  40.031  1.00  0.00     0.211 HD
ENDBRANCH   4  69
TORSDOF 17
ENDMDL
MODEL 6
REMARK VINA RESULT:   -11.520      3.504      6.027
REMARK INTER + INTRA:         -20.935
REMARK INTER:                 -18.844
REMARK INTRA:                  -2.092
REMARK UNBOUND:                -0.997
REMARK SMILES C[C@@H]1CC[C@@]2(C[C@@H]3[C@@H](C[C@H]4[C@@H]5CC=C6C[C@@H](O[C@H]7O[C@@H](CO[C@H]8O[C@@H](CO[C@H]9O[C@H](C)[C@@H](O)[C@H](O)[C@@H]9O)[C@H](O)[C@@H](O)[C@@H]8O)[C@H](O)[C@@H](O)[C@@H]7O)CC[C@]6(C)[C@@H]5CC[C@]34C)O2)OC1
REMARK SMILES IDX 23 1 24 2 25 3 38 4 40 5 42 6 22 7 21 8 20 9 18 10 19 11
REMARK SMILES IDX 48 12 46 13 44 14 17 15 16 16 2 17 3 18 61 19 4 20 60 21
REMARK SMILES IDX 5 22 6 23 59 24 7 25 8 26 57 27 9 28 56 29 10 30 55 31 11 32
REMARK SMILES IDX 54 33 12 34 52 35 13 36 51 37 14 38 50 39 15 40 1 41 58 42
REMARK SMILES IDX 53 43 49 44 47 46 45 48 43 50 26 52 27 53 28 54 29 55 36 56
REMARK SMILES IDX 30 57 34 58 32 59 31 60 37 61 35 63 33 65 41 67 39 69
REMARK H PARENT 49 45 47 47 45 49 43 51 37 62 35 64 33 66 41 68 39 70
ROOT
ATOM      1  C   UNL     1      26.036  59.274  42.693  1.00  0.00     0.282 C 
ATOM      2  O   UNL     1      25.105  58.757  41.734  1.00  0.00    -0.341 OA
ATOM      3  C   UNL     1      25.193  59.288  40.419  1.00  0.00     0.178 C 
ATOM      4  C   UNL     1      26.662  59.307  39.882  1.00  0.00     0.177 C 
ATOM      5  C   UNL     1      27.696  59.838  40.911  1.00  0.00     0.179 C 
ATOM      6  C   UNL     1      27.013  60.370  42.177  1.00  0.00     0.202 C 
ENDROOT
BRANCH   1   7
ATOM      7  O   UNL     1      25.297  59.766  43.797  1.00  0.00    -0.347 OA
BRANCH   7   8
ATOM      8  C   UNL     1      25.159  58.824  44.852  1.00  0.00     0.198 C 
BRANCH   8   9
ATOM      9  C   UNL     1      26.099  59.143  46.041  1.00  0.00     0.178 C 
ATOM     10  C   UNL     1      28.436  58.441  45.827  1.00  0.00     0.282 C 
ATOM     11  O   UNL     1      27.426  59.425  45.570  1.00  0.00    -0.341 OA
ATOM     12  C   UNL     1      27.869  57.015  45.734  1.00  0.00     0.202 C 
ATOM     13  C   UNL     1      26.784  56.793  46.820  1.00  0.00     0.179 C 
ATOM     14  C   UNL     1      26.072  58.121  47.206  1.00  0.00     0.177 C 
BRANCH  10  15
ATOM     15  O   UNL     1      29.439  58.603  44.832  1.00  0.00    -0.346 OA
BRANCH  15  16
ATOM     16  C   UNL     1      30.571  59.328  45.297  1.00  0.00     0.125 C 
ATOM     17  C   UNL     1      35.044  64.077  52.637  1.00  0.00     0.012 C 
ATOM     18  C   UNL     1      36.262  64.832  52.148  1.00  0.00     0.011 C 
ATOM     19  C   UNL     1      34.362  63.478  51.367  1.00  0.00     0.167 C 
ATOM     20  C   UNL     1      37.220  63.852  51.456  1.00  0.00     0.066 C 
ATOM     21  O   UNL     1      35.229  62.847  50.405  1.00  0.00    -0.350 OA
ATOM     22  C   UNL     1      36.533  62.560  50.892  1.00  0.00     0.169 C 
ATOM     23  C   UNL     1      36.475  61.391  51.896  1.00  0.00     0.072 C 
ATOM     24  O   UNL     1      37.342  62.106  49.815  1.00  0.00    -0.346 OA
ATOM     25  C   UNL     1      36.739  60.163  51.069  1.00  0.00     0.030 C 
ATOM     26  C   UNL     1      37.710  60.748  50.032  1.00  0.00     0.126 C 
ATOM     27  C   UNL     1      35.623  59.432  50.211  1.00  0.00    -0.024 C 
ATOM     28  C   UNL     1      37.456  59.948  48.742  1.00  0.00     0.037 C 
ATOM     29  C   UNL     1      34.101  59.787  50.456  1.00  0.00     0.008 C 
ATOM     30  C   UNL     1      35.940  59.845  48.783  1.00  0.00     0.002 C 
ATOM     31  C   UNL     1      33.208  59.803  49.138  1.00  0.00     0.005 C 
ATOM     32  C   UNL     1      35.156  59.014  47.708  1.00  0.00     0.000 C 
ATOM     33  C   UNL     1      33.687  58.677  48.200  1.00  0.00     0.003 C 
ATOM     34  C   UNL     1      35.174  59.855  46.403  1.00  0.00     0.031 C 
ATOM     35  C   UNL     1      32.796  58.093  47.032  1.00  0.00    -0.008 C 
ATOM     36  C   UNL     1      34.067  59.586  45.431  1.00  0.00    -0.027 C 
ATOM     37  C   UNL     1      31.262  58.059  47.391  1.00  0.00     0.014 C 
ATOM     38  C   UNL     1      32.998  58.826  45.704  1.00  0.00    -0.065 C 
ATOM     39  C   UNL     1      30.565  59.321  46.860  1.00  0.00     0.033 C 
ATOM     40  C   UNL     1      31.878  58.712  44.708  1.00  0.00     0.063 C 
ATOM     41  C   UNL     1      34.077  64.978  53.409  1.00  0.00     0.010 C 
ATOM     42  C   UNL     1      35.889  57.895  50.433  1.00  0.00     0.012 C 
ATOM     43  C   UNL     1      33.233  56.617  46.803  1.00  0.00     0.016 C 
ENDBRANCH  15  16
ENDBRANCH  10  15
BRANCH  12  44
ATOM     44  O   UNL     1      28.862  56.024  45.805  1.00  0.00    -0.385 OA
ATOM     45  H   UNL     1      29.199  55.876  44.883  1.00  0.00     0.211 HD
ENDBRANCH  12  44
BRANCH  13  46
ATOM     46  O   UNL     1      25.884  55.771  46.457  1.00  0.00    -0.387 OA
ATOM     47  H   UNL     1      26.395  54.968  46.184  1.00  0.00     0.211 HD
ENDBRANCH  13  46
BRANCH  14  48
ATOM     48  O   UNL     1      26.775  58.720  48.270  1.00  0.00    -0.387 OA
ATOM     49  H   UNL     1      26.317  58.456  49.112  1.00  0.00     0.211 HD
ENDBRANCH  14  48
ENDBRANCH   8   9
ENDBRANCH   7   8
ENDBRANCH   1   7
BRANCH   6  50
ATOM     50  O   UNL     1      27.961  60.715  43.159  1.00  0.00    -0.385 OA
ATOM     51  H   UNL     1      28.863  60.511  42.800  1.00  0.00     0.211 HD
ENDBRANCH   6  50
BRANCH   3  52
ATOM     52  C   UNL     1      24.361  60.598  40.300  1.00  0.00     0.198 C 
BRANCH  52  53
ATOM     53  O   UNL     1      24.655  61.305  39.105  1.00  0.00    -0.347 OA
BRANCH  53  54
ATOM     54  C   UNL     1      23.657  61.150  38.110  1.00  0.00     0.281 C 
ATOM     55  O   UNL     1      22.847  62.331  38.141  1.00  0.00    -0.344 OA
ATOM     56  C   UNL     1      24.336  60.957  36.737  1.00  0.00     0.202 C 
ATOM     57  C   UNL     1      22.274  62.744  36.897  1.00  0.00     0.150 C 
ATOM     58  C   UNL     1      23.279  60.791  35.617  1.00  0.00     0.179 C 
ATOM     59  C   UNL     1      21.974  61.541  35.973  1.00  0.00     0.174 C 
ATOM     60  C   UNL     1      20.989  63.512  37.217  1.00  0.00     0.041 C 
BRANCH  56  61
ATOM     61  O   UNL     1      25.287  59.920  36.718  1.00  0.00    -0.385 OA
ATOM     62  H   UNL     1      25.569  59.789  35.778  1.00  0.00     0.211 HD
ENDBRANCH  56  61
BRANCH  58  63
ATOM     63  O   UNL     1      22.985  59.444  35.331  1.00  0.00    -0.387 OA
ATOM     64  H   UNL     1      23.099  58.925  36.170  1.00  0.00     0.211 HD
ENDBRANCH  58  63
BRANCH  59  65
ATOM     65  O   UNL     1      21.267  61.891  34.810  1.00  0.00    -0.388 OA
ATOM     66  H   UNL     1      21.781  61.540  34.037  1.00  0.00     0.211 HD
ENDBRANCH  59  65
ENDBRANCH  53  54
ENDBRANCH  52  53
ENDBRANCH   3  52
BRANCH   5  67
ATOM     67  O   UNL     1      28.579  60.769  40.339  1.00  0.00    -0.387 OA
ATOM     68  H   UNL     1      28.825  61.418  41.047  1.00  0.00     0.211 HD
ENDBRANCH   5  67
BRANCH   4  69
ATOM     69  O   UNL     1      27.047  58.017  39.470  1.00  0.00    -0.387 OA
ATOM     70  H   UNL     1      27.044  58.003  38.477  1.00  0.00     0.211 HD
ENDBRANCH   4  69
TORSDOF 17
ENDMDL
MODEL 7
REMARK VINA RESULT:   -11.429      4.203      9.381
REMARK INTER + INTRA:         -20.778
REMARK INTER:                 -17.048
REMARK INTRA:                  -3.729
REMARK UNBOUND:                -0.997
REMARK SMILES C[C@@H]1CC[C@@]2(C[C@@H]3[C@@H](C[C@H]4[C@@H]5CC=C6C[C@@H](O[C@H]7O[C@@H](CO[C@H]8O[C@@H](CO[C@H]9O[C@H](C)[C@@H](O)[C@H](O)[C@@H]9O)[C@H](O)[C@@H](O)[C@@H]8O)[C@H](O)[C@@H](O)[C@@H]7O)CC[C@]6(C)[C@@H]5CC[C@]34C)O2)OC1
REMARK SMILES IDX 23 1 24 2 25 3 38 4 40 5 42 6 22 7 21 8 20 9 18 10 19 11
REMARK SMILES IDX 48 12 46 13 44 14 17 15 16 16 2 17 3 18 61 19 4 20 60 21
REMARK SMILES IDX 5 22 6 23 59 24 7 25 8 26 57 27 9 28 56 29 10 30 55 31 11 32
REMARK SMILES IDX 54 33 12 34 52 35 13 36 51 37 14 38 50 39 15 40 1 41 58 42
REMARK SMILES IDX 53 43 49 44 47 46 45 48 43 50 26 52 27 53 28 54 29 55 36 56
REMARK SMILES IDX 30 57 34 58 32 59 31 60 37 61 35 63 33 65 41 67 39 69
REMARK H PARENT 49 45 47 47 45 49 43 51 37 62 35 64 33 66 41 68 39 70
ROOT
ATOM      1  C   UNL     1      28.058  55.923  42.111  1.00  0.00     0.282 C 
ATOM      2  O   UNL     1      29.443  56.065  41.773  1.00  0.00    -0.341 OA
ATOM      3  C   UNL     1      30.370  55.934  42.843  1.00  0.00     0.178 C 
ATOM      4  C   UNL     1      30.090  54.669  43.720  1.00  0.00     0.177 C 
ATOM      5  C   UNL     1      28.592  54.475  44.078  1.00  0.00     0.179 C 
ATOM      6  C   UNL     1      27.741  55.663  43.612  1.00  0.00     0.202 C 
ENDROOT
BRANCH   1   7
ATOM      7  O   UNL     1      27.379  57.084  41.667  1.00  0.00    -0.347 OA
BRANCH   7   8
ATOM      8  C   UNL     1      28.175  57.925  40.842  1.00  0.00     0.198 C 
BRANCH   8   9
ATOM      9  C   UNL     1      27.582  59.351  40.725  1.00  0.00     0.178 C 
ATOM     10  C   UNL     1      26.108  60.091  42.536  1.00  0.00     0.282 C 
ATOM     11  O   UNL     1      27.438  59.944  42.026  1.00  0.00    -0.341 OA
ATOM     12  C   UNL     1      25.211  58.913  42.119  1.00  0.00     0.202 C 
ATOM     13  C   UNL     1      25.064  58.866  40.576  1.00  0.00     0.179 C 
ATOM     14  C   UNL     1      26.303  59.473  39.858  1.00  0.00     0.177 C 
BRANCH  10  15
ATOM     15  O   UNL     1      26.204  60.116  43.954  1.00  0.00    -0.346 OA
BRANCH  15  16
ATOM     16  C   UNL     1      26.505  58.844  44.515  1.00  0.00     0.125 C 
ATOM     17  C   UNL     1      33.228  52.026  46.693  1.00  0.00     0.012 C 
ATOM     18  C   UNL     1      32.582  50.725  47.119  1.00  0.00     0.011 C 
ATOM     19  C   UNL     1      32.065  52.972  46.259  1.00  0.00     0.167 C 
ATOM     20  C   UNL     1      31.652  50.989  48.312  1.00  0.00     0.066 C 
ATOM     21  O   UNL     1      30.915  53.020  47.125  1.00  0.00    -0.350 OA
ATOM     22  C   UNL     1      31.130  52.465  48.415  1.00  0.00     0.169 C 
ATOM     23  C   UNL     1      32.035  53.395  49.245  1.00  0.00     0.072 C 
ATOM     24  O   UNL     1      29.891  52.410  49.109  1.00  0.00    -0.346 OA
ATOM     25  C   UNL     1      31.084  54.274  50.010  1.00  0.00     0.030 C 
ATOM     26  C   UNL     1      29.933  53.282  50.234  1.00  0.00     0.126 C 
ATOM     27  C   UNL     1      30.394  55.560  49.390  1.00  0.00    -0.024 C 
ATOM     28  C   UNL     1      28.656  54.140  50.251  1.00  0.00     0.037 C 
ATOM     29  C   UNL     1      30.942  56.153  48.030  1.00  0.00     0.008 C 
ATOM     30  C   UNL     1      28.968  55.110  49.123  1.00  0.00     0.002 C 
ATOM     31  C   UNL     1      29.817  56.728  47.061  1.00  0.00     0.005 C 
ATOM     32  C   UNL     1      27.997  56.293  48.780  1.00  0.00     0.000 C 
ATOM     33  C   UNL     1      28.725  57.403  47.914  1.00  0.00     0.003 C 
ATOM     34  C   UNL     1      26.778  55.665  48.052  1.00  0.00     0.031 C 
ATOM     35  C   UNL     1      27.701  58.454  47.325  1.00  0.00    -0.008 C 
ATOM     36  C   UNL     1      26.009  56.579  47.148  1.00  0.00    -0.027 C 
ATOM     37  C   UNL     1      28.334  59.364  46.205  1.00  0.00     0.014 C 
ATOM     38  C   UNL     1      26.418  57.808  46.800  1.00  0.00    -0.065 C 
ATOM     39  C   UNL     1      28.037  58.777  44.816  1.00  0.00     0.033 C 
ATOM     40  C   UNL     1      25.640  58.604  45.791  1.00  0.00     0.063 C 
ATOM     41  C   UNL     1      34.232  51.827  45.554  1.00  0.00     0.010 C 
ATOM     42  C   UNL     1      30.447  56.637  50.539  1.00  0.00     0.012 C 
ATOM     43  C   UNL     1      27.285  59.403  48.487  1.00  0.00     0.016 C 
ENDBRANCH  15  16
ENDBRANCH  10  15
BRANCH  12  44
ATOM     44  O   UNL     1      23.953  58.934  42.744  1.00  0.00    -0.385 OA
ATOM     45  H   UNL     1      23.938  59.720  43.351  1.00  0.00     0.211 HD
ENDBRANCH  12  44
BRANCH  13  46
ATOM     46  O   UNL     1      24.744  57.571  40.121  1.00  0.00    -0.387 OA
ATOM     47  H   UNL     1      24.011  57.631  39.458  1.00  0.00     0.211 HD
ENDBRANCH  13  46
BRANCH  14  48
ATOM     48  O   UNL     1      26.087  60.852  39.668  1.00  0.00    -0.387 OA
ATOM     49  H   UNL     1      26.454  61.321  40.464  1.00  0.00     0.211 HD
ENDBRANCH  14  48
ENDBRANCH   8   9
ENDBRANCH   7   8
ENDBRANCH   1   7
BRANCH   6  50
ATOM     50  O   UNL     1      26.370  55.414  43.811  1.00  0.00    -0.385 OA
ATOM     51  H   UNL     1      26.227  55.241  44.778  1.00  0.00     0.211 HD
ENDBRANCH   6  50
BRANCH   3  52
ATOM     52  C   UNL     1      30.560  57.296  43.573  1.00  0.00     0.198 C 
BRANCH  52  53
ATOM     53  O   UNL     1      31.546  58.100  42.945  1.00  0.00    -0.347 OA
BRANCH  53  54
ATOM     54  C   UNL     1      32.433  58.710  43.867  1.00  0.00     0.281 C 
ATOM     55  O   UNL     1      31.631  59.263  44.918  1.00  0.00    -0.344 OA
ATOM     56  C   UNL     1      33.421  57.650  44.398  1.00  0.00     0.202 C 
ATOM     57  C   UNL     1      32.221  59.297  46.221  1.00  0.00     0.150 C 
ATOM     58  C   UNL     1      34.407  58.275  45.418  1.00  0.00     0.179 C 
ATOM     59  C   UNL     1      33.756  59.470  46.153  1.00  0.00     0.174 C 
ATOM     60  C   UNL     1      31.580  60.460  46.983  1.00  0.00     0.041 C 
BRANCH  56  61
ATOM     61  O   UNL     1      34.094  56.946  43.383  1.00  0.00    -0.385 OA
ATOM     62  H   UNL     1      33.411  56.473  42.842  1.00  0.00     0.211 HD
ENDBRANCH  56  61
BRANCH  58  63
ATOM     63  O   UNL     1      35.619  58.685  44.832  1.00  0.00    -0.387 OA
ATOM     64  H   UNL     1      35.884  59.544  45.253  1.00  0.00     0.211 HD
ENDBRANCH  58  63
BRANCH  59  65
ATOM     65  O   UNL     1      34.353  59.667  47.409  1.00  0.00    -0.388 OA
ATOM     66  H   UNL     1      35.235  59.212  47.390  1.00  0.00     0.211 HD
ENDBRANCH  59  65
ENDBRANCH  53  54
ENDBRANCH  52  53
ENDBRANCH   3  52
BRANCH   5  67
ATOM     67  O   UNL     1      28.410  54.177  45.438  1.00  0.00    -0.387 OA
ATOM     68  H   UNL     1      29.306  53.993  45.823  1.00  0.00     0.211 HD
ENDBRANCH   5  67
BRANCH   4  69
ATOM     69  O   UNL     1      30.560  53.512  43.069  1.00  0.00    -0.387 OA
ATOM     70  H   UNL     1      31.128  53.012  43.713  1.00  0.00     0.211 HD
ENDBRANCH   4  69
TORSDOF 17
ENDMDL
MODEL 8
REMARK VINA RESULT:   -11.405     18.016     24.738
REMARK INTER + INTRA:         -20.737
REMARK INTER:                 -17.761
REMARK INTRA:                  -2.976
REMARK UNBOUND:                -0.997
REMARK SMILES C[C@@H]1CC[C@@]2(C[C@@H]3[C@@H](C[C@H]4[C@@H]5CC=C6C[C@@H](O[C@H]7O[C@@H](CO[C@H]8O[C@@H](CO[C@H]9O[C@H](C)[C@@H](O)[C@H](O)[C@@H]9O)[C@H](O)[C@@H](O)[C@@H]8O)[C@H](O)[C@@H](O)[C@@H]7O)CC[C@]6(C)[C@@H]5CC[C@]34C)O2)OC1
REMARK SMILES IDX 23 1 24 2 25 3 38 4 40 5 42 6 22 7 21 8 20 9 18 10 19 11
REMARK SMILES IDX 48 12 46 13 44 14 17 15 16 16 2 17 3 18 61 19 4 20 60 21
REMARK SMILES IDX 5 22 6 23 59 24 7 25 8 26 57 27 9 28 56 29 10 30 55 31 11 32
REMARK SMILES IDX 54 33 12 34 52 35 13 36 51 37 14 38 50 39 15 40 1 41 58 42
REMARK SMILES IDX 53 43 49 44 47 46 45 48 43 50 26 52 27 53 28 54 29 55 36 56
REMARK SMILES IDX 30 57 34 58 32 59 31 60 37 61 35 63 33 65 41 67 39 69
REMARK H PARENT 49 45 47 47 45 49 43 51 37 62 35 64 33 66 41 68 39 70
ROOT
ATOM      1  C   UNL     1      10.191  70.658  27.218  1.00  0.00     0.282 C 
ATOM      2  O   UNL     1      10.060  71.122  28.568  1.00  0.00    -0.341 OA
ATOM      3  C   UNL     1      11.227  71.047  29.377  1.00  0.00     0.178 C 
ATOM      4  C   UNL     1      12.487  71.631  28.657  1.00  0.00     0.177 C 
ATOM      5  C   UNL     1      12.638  71.166  27.184  1.00  0.00     0.179 C 
ATOM      6  C   UNL     1      11.590  70.110  26.814  1.00  0.00     0.202 C 
ENDROOT
BRANCH   1   7
ATOM      7  O   UNL     1       9.201  69.668  27.001  1.00  0.00    -0.347 OA
BRANCH   7   8
ATOM      8  C   UNL     1       7.881  70.191  26.934  1.00  0.00     0.198 C 
BRANCH   8   9
ATOM      9  C   UNL     1       7.099  69.960  28.250  1.00  0.00     0.178 C 
ATOM     10  C   UNL     1       6.316  67.681  28.690  1.00  0.00     0.282 C 
ATOM     11  O   UNL     1       7.369  68.650  28.772  1.00  0.00    -0.341 OA
ATOM     12  C   UNL     1       5.499  67.846  27.399  1.00  0.00     0.202 C 
ATOM     13  C   UNL     1       4.796  69.229  27.376  1.00  0.00     0.179 C 
ATOM     14  C   UNL     1       5.585  70.291  28.194  1.00  0.00     0.177 C 
BRANCH  10  15
ATOM     15  O   UNL     1       6.928  66.398  28.687  1.00  0.00    -0.346 OA
BRANCH  15  16
ATOM     16  C   UNL     1       8.326  66.448  28.428  1.00  0.00     0.125 C 
ATOM     17  C   UNL     1      17.432  63.898  31.074  1.00  0.00     0.012 C 
ATOM     18  C   UNL     1      18.474  64.657  30.281  1.00  0.00     0.011 C 
ATOM     19  C   UNL     1      16.048  64.481  30.651  1.00  0.00     0.167 C 
ATOM     20  C   UNL     1      18.243  64.416  28.782  1.00  0.00     0.066 C 
ATOM     21  O   UNL     1      15.835  64.681  29.240  1.00  0.00    -0.350 OA
ATOM     22  C   UNL     1      16.774  64.015  28.407  1.00  0.00     0.169 C 
ATOM     23  C   UNL     1      16.513  62.496  28.429  1.00  0.00     0.072 C 
ATOM     24  O   UNL     1      16.572  64.423  27.061  1.00  0.00    -0.346 OA
ATOM     25  C   UNL     1      15.607  62.246  27.254  1.00  0.00     0.030 C 
ATOM     26  C   UNL     1      16.134  63.313  26.283  1.00  0.00     0.126 C 
ATOM     27  C   UNL     1      14.039  62.478  27.298  1.00  0.00    -0.024 C 
ATOM     28  C   UNL     1      14.915  63.738  25.446  1.00  0.00     0.037 C 
ATOM     29  C   UNL     1      13.323  62.674  28.695  1.00  0.00     0.008 C 
ATOM     30  C   UNL     1      13.845  63.772  26.527  1.00  0.00     0.002 C 
ATOM     31  C   UNL     1      12.129  63.727  28.681  1.00  0.00     0.005 C 
ATOM     32  C   UNL     1      12.346  64.066  26.172  1.00  0.00     0.000 C 
ATOM     33  C   UNL     1      11.378  63.609  27.340  1.00  0.00     0.003 C 
ATOM     34  C   UNL     1      12.254  65.588  25.876  1.00  0.00     0.031 C 
ATOM     35  C   UNL     1       9.906  64.147  27.128  1.00  0.00    -0.008 C 
ATOM     36  C   UNL     1      10.907  66.215  26.064  1.00  0.00    -0.027 C 
ATOM     37  C   UNL     1       9.009  63.997  28.415  1.00  0.00     0.014 C 
ATOM     38  C   UNL     1       9.865  65.595  26.637  1.00  0.00    -0.065 C 
ATOM     39  C   UNL     1       9.025  65.301  29.227  1.00  0.00     0.033 C 
ATOM     40  C   UNL     1       8.589  66.346  26.894  1.00  0.00     0.063 C 
ATOM     41  C   UNL     1      17.648  64.029  32.585  1.00  0.00     0.010 C 
ATOM     42  C   UNL     1      13.430  61.252  26.517  1.00  0.00     0.012 C 
ATOM     43  C   UNL     1       9.245  63.277  26.020  1.00  0.00     0.016 C 
ENDBRANCH  15  16
ENDBRANCH  10  15
BRANCH  12  44
ATOM     44  O   UNL     1       4.573  66.808  27.200  1.00  0.00    -0.385 OA
ATOM     45  H   UNL     1       4.850  66.050  27.778  1.00  0.00     0.211 HD
ENDBRANCH  12  44
BRANCH  13  46
ATOM     46  O   UNL     1       4.510  69.648  26.061  1.00  0.00    -0.387 OA
ATOM     47  H   UNL     1       5.107  70.401  25.822  1.00  0.00     0.211 HD
ENDBRANCH  13  46
BRANCH  14  48
ATOM     48  O   UNL     1       5.128  70.269  29.526  1.00  0.00    -0.387 OA
ATOM     49  H   UNL     1       4.451  70.991  29.619  1.00  0.00     0.211 HD
ENDBRANCH  14  48
ENDBRANCH   8   9
ENDBRANCH   7   8
ENDBRANCH   1   7
BRANCH   6  50
ATOM     50  O   UNL     1      11.642  69.801  25.442  1.00  0.00    -0.385 OA
ATOM     51  H   UNL     1      11.959  70.607  24.958  1.00  0.00     0.211 HD
ENDBRANCH   6  50
BRANCH   3  52
ATOM     52  C   UNL     1      11.352  69.639  30.029  1.00  0.00     0.198 C 
BRANCH  52  53
ATOM     53  O   UNL     1      11.090  69.677  31.423  1.00  0.00    -0.347 OA
BRANCH  53  54
ATOM     54  C   UNL     1      12.046  68.961  32.186  1.00  0.00     0.281 C 
ATOM     55  O   UNL     1      11.780  67.567  31.990  1.00  0.00    -0.344 OA
ATOM     56  C   UNL     1      13.464  69.347  31.713  1.00  0.00     0.202 C 
ATOM     57  C   UNL     1      12.909  66.689  32.040  1.00  0.00     0.150 C 
ATOM     58  C   UNL     1      14.543  68.578  32.518  1.00  0.00     0.179 C 
ATOM     59  C   UNL     1      14.003  67.211  33.000  1.00  0.00     0.174 C 
ATOM     60  C   UNL     1      12.402  65.318  32.494  1.00  0.00     0.041 C 
BRANCH  56  61
ATOM     61  O   UNL     1      13.701  70.733  31.708  1.00  0.00    -0.385 OA
ATOM     62  H   UNL     1      13.372  71.097  32.569  1.00  0.00     0.211 HD
ENDBRANCH  56  61
BRANCH  58  63
ATOM     63  O   UNL     1      15.031  69.307  33.619  1.00  0.00    -0.387 OA
ATOM     64  H   UNL     1      14.339  69.282  34.331  1.00  0.00     0.211 HD
ENDBRANCH  58  63
BRANCH  59  65
ATOM     65  O   UNL     1      15.055  66.302  33.198  1.00  0.00    -0.388 OA
ATOM     66  H   UNL     1      15.443  66.104  32.306  1.00  0.00     0.211 HD
ENDBRANCH  59  65
ENDBRANCH  53  54
ENDBRANCH  52  53
ENDBRANCH   3  52
BRANCH   5  67
ATOM     67  O   UNL     1      13.949  70.755  26.893  1.00  0.00    -0.387 OA
ATOM     68  H   UNL     1      13.915  70.232  26.051  1.00  0.00     0.211 HD
ENDBRANCH   5  67
BRANCH   4  69
ATOM     69  O   UNL     1      12.459  73.039  28.692  1.00  0.00    -0.387 OA
ATOM     70  H   UNL     1      12.637  73.368  27.772  1.00  0.00     0.211 HD
ENDBRANCH   4  69
TORSDOF 17
ENDMDL
MODEL 9
REMARK VINA RESULT:   -11.355      3.258      5.027
REMARK INTER + INTRA:         -20.649
REMARK INTER:                 -18.694
REMARK INTRA:                  -1.955
REMARK UNBOUND:                -0.997
REMARK SMILES C[C@@H]1CC[C@@]2(C[C@@H]3[C@@H](C[C@H]4[C@@H]5CC=C6C[C@@H](O[C@H]7O[C@@H](CO[C@H]8O[C@@H](CO[C@H]9O[C@H](C)[C@@H](O)[C@H](O)[C@@H]9O)[C@H](O)[C@@H](O)[C@@H]8O)[C@H](O)[C@@H](O)[C@@H]7O)CC[C@]6(C)[C@@H]5CC[C@]34C)O2)OC1
REMARK SMILES IDX 23 1 24 2 25 3 38 4 40 5 42 6 22 7 21 8 20 9 18 10 19 11
REMARK SMILES IDX 48 12 46 13 44 14 17 15 16 16 2 17 3 18 61 19 4 20 60 21
REMARK SMILES IDX 5 22 6 23 59 24 7 25 8 26 57 27 9 28 56 29 10 30 55 31 11 32
REMARK SMILES IDX 54 33 12 34 52 35 13 36 51 37 14 38 50 39 15 40 1 41 58 42
REMARK SMILES IDX 53 43 49 44 47 46 45 48 43 50 26 52 27 53 28 54 29 55 36 56
REMARK SMILES IDX 30 57 34 58 32 59 31 60 37 61 35 63 33 65 41 67 39 69
REMARK H PARENT 49 45 47 47 45 49 43 51 37 62 35 64 33 66 41 68 39 70
ROOT
ATOM      1  C   UNL     1      27.393  59.267  41.689  1.00  0.00     0.282 C 
ATOM      2  O   UNL     1      26.539  60.402  41.882  1.00  0.00    -0.341 OA
ATOM      3  C   UNL     1      25.241  60.320  41.307  1.00  0.00     0.178 C 
ATOM      4  C   UNL     1      24.530  58.966  41.635  1.00  0.00     0.177 C 
ATOM      5  C   UNL     1      25.441  57.722  41.460  1.00  0.00     0.179 C 
ATOM      6  C   UNL     1      26.799  58.096  40.854  1.00  0.00     0.202 C 
ENDROOT
BRANCH   1   7
ATOM      7  O   UNL     1      28.595  59.724  41.095  1.00  0.00    -0.347 OA
BRANCH   7   8
ATOM      8  C   UNL     1      29.448  60.414  42.000  1.00  0.00     0.198 C 
BRANCH   8   9
ATOM      9  C   UNL     1      30.645  59.541  42.449  1.00  0.00     0.178 C 
ATOM     10  C   UNL     1      30.118  57.395  43.507  1.00  0.00     0.282 C 
ATOM     11  O   UNL     1      30.332  58.147  42.306  1.00  0.00    -0.341 OA
ATOM     12  C   UNL     1      29.413  58.239  44.581  1.00  0.00     0.202 C 
ATOM     13  C   UNL     1      30.302  59.442  44.994  1.00  0.00     0.179 C 
ATOM     14  C   UNL     1      31.242  59.890  43.837  1.00  0.00     0.177 C 
BRANCH  10  15
ATOM     15  O   UNL     1      29.286  56.294  43.168  1.00  0.00    -0.346 OA
BRANCH  15  16
ATOM     16  C   UNL     1      29.988  55.057  43.125  1.00  0.00     0.125 C 
ATOM     17  C   UNL     1      38.573  50.291  43.247  1.00  0.00     0.012 C 
ATOM     18  C   UNL     1      38.403  48.833  42.880  1.00  0.00     0.011 C 
ATOM     19  C   UNL     1      37.171  50.954  43.069  1.00  0.00     0.167 C 
ATOM     20  C   UNL     1      37.394  48.184  43.838  1.00  0.00     0.066 C 
ATOM     21  O   UNL     1      36.043  50.232  43.599  1.00  0.00    -0.350 OA
ATOM     22  C   UNL     1      36.388  49.188  44.500  1.00  0.00     0.169 C 
ATOM     23  C   UNL     1      36.881  49.783  45.833  1.00  0.00     0.072 C 
ATOM     24  O   UNL     1      35.219  48.443  44.817  1.00  0.00    -0.346 OA
ATOM     25  C   UNL     1      35.654  49.846  46.702  1.00  0.00     0.030 C 
ATOM     26  C   UNL     1      34.912  48.599  46.198  1.00  0.00     0.126 C 
ATOM     27  C   UNL     1      34.585  51.014  46.618  1.00  0.00    -0.024 C 
ATOM     28  C   UNL     1      33.416  48.930  46.344  1.00  0.00     0.037 C 
ATOM     29  C   UNL     1      34.944  52.339  45.833  1.00  0.00     0.008 C 
ATOM     30  C   UNL     1      33.416  50.380  45.885  1.00  0.00     0.002 C 
ATOM     31  C   UNL     1      33.728  52.980  45.030  1.00  0.00     0.005 C 
ATOM     32  C   UNL     1      32.108  51.244  45.935  1.00  0.00     0.000 C 
ATOM     33  C   UNL     1      32.437  52.792  45.851  1.00  0.00     0.003 C 
ATOM     34  C   UNL     1      31.212  50.756  44.764  1.00  0.00     0.031 C 
ATOM     35  C   UNL     1      31.135  53.658  45.617  1.00  0.00    -0.008 C 
ATOM     36  C   UNL     1      30.210  51.741  44.247  1.00  0.00    -0.027 C 
ATOM     37  C   UNL     1      31.455  55.144  45.203  1.00  0.00     0.014 C 
ATOM     38  C   UNL     1      30.178  53.034  44.600  1.00  0.00    -0.065 C 
ATOM     39  C   UNL     1      31.434  55.283  43.672  1.00  0.00     0.033 C 
ATOM     40  C   UNL     1      29.211  53.974  43.936  1.00  0.00     0.063 C 
ATOM     41  C   UNL     1      39.627  50.987  42.381  1.00  0.00     0.010 C 
ATOM     42  C   UNL     1      34.215  51.328  48.118  1.00  0.00     0.012 C 
ATOM     43  C   UNL     1      30.370  53.728  46.971  1.00  0.00     0.016 C 
ENDBRANCH  15  16
ENDBRANCH  10  15
BRANCH  12  44
ATOM     44  O   UNL     1      29.030  57.489  45.705  1.00  0.00    -0.385 OA
ATOM     45  H   UNL     1      29.341  56.557  45.557  1.00  0.00     0.211 HD
ENDBRANCH  12  44
BRANCH  13  46
ATOM     46  O   UNL     1      29.537  60.500  45.522  1.00  0.00    -0.387 OA
ATOM     47  H   UNL     1      28.575  60.300  45.398  1.00  0.00     0.211 HD
ENDBRANCH  13  46
BRANCH  14  48
ATOM     48  O   UNL     1      32.453  59.177  43.934  1.00  0.00    -0.387 OA
ATOM     49  H   UNL     1      32.489  58.778  44.844  1.00  0.00     0.211 HD
ENDBRANCH  14  48
ENDBRANCH   8   9
ENDBRANCH   7   8
ENDBRANCH   1   7
BRANCH   6  50
ATOM     50  O   UNL     1      27.668  56.990  40.832  1.00  0.00    -0.385 OA
ATOM     51  H   UNL     1      28.503  57.264  40.372  1.00  0.00     0.211 HD
ENDBRANCH   6  50
BRANCH   3  52
ATOM     52  C   UNL     1      25.272  60.782  39.820  1.00  0.00     0.198 C 
BRANCH  52  53
ATOM     53  O   UNL     1      24.764  62.098  39.665  1.00  0.00    -0.347 OA
BRANCH  53  54
ATOM     54  C   UNL     1      23.648  62.162  38.792  1.00  0.00     0.281 C 
ATOM     55  O   UNL     1      23.898  61.240  37.725  1.00  0.00    -0.344 OA
ATOM     56  C   UNL     1      22.370  61.799  39.576  1.00  0.00     0.202 C 
ATOM     57  C   UNL     1      22.751  60.612  37.143  1.00  0.00     0.150 C 
ATOM     58  C   UNL     1      21.124  61.849  38.655  1.00  0.00     0.179 C 
ATOM     59  C   UNL     1      21.507  61.528  37.191  1.00  0.00     0.174 C 
ATOM     60  C   UNL     1      23.107  60.261  35.696  1.00  0.00     0.041 C 
BRANCH  56  61
ATOM     61  O   UNL     1      22.188  62.559  40.746  1.00  0.00    -0.385 OA
ATOM     62  H   UNL     1      22.809  62.208  41.432  1.00  0.00     0.211 HD
ENDBRANCH  56  61
BRANCH  58  63
ATOM     63  O   UNL     1      20.451  63.084  38.706  1.00  0.00    -0.387 OA
ATOM     64  H   UNL     1      19.510  62.928  38.431  1.00  0.00     0.211 HD
ENDBRANCH  58  63
BRANCH  59  65
ATOM     65  O   UNL     1      20.404  61.011  36.490  1.00  0.00    -0.388 OA
ATOM     66  H   UNL     1      19.594  61.464  36.843  1.00  0.00     0.211 HD
ENDBRANCH  59  65
ENDBRANCH  53  54
ENDBRANCH  52  53
ENDBRANCH   3  52
BRANCH   5  67
ATOM     67  O   UNL     1      24.797  56.692  40.755  1.00  0.00    -0.387 OA
ATOM     68  H   UNL     1      25.035  55.837  41.198  1.00  0.00     0.211 HD
ENDBRANCH   5  67
BRANCH   4  69
ATOM     69  O   UNL     1      24.029  58.986  42.951  1.00  0.00    -0.387 OA
ATOM     70  H   UNL     1      23.318  58.295  43.015  1.00  0.00     0.211 HD
ENDBRANCH   4  69
TORSDOF 17
ENDMDL
