REMARK  Name = 
REMARK  22 active torsions:
REMARK  status: ('A' for Active; 'I' for Inactive)
REMARK    1  A    between atoms: C_1  and  C_2
REMARK    2  A    between atoms: C_3  and  C_4
REMARK    3  A    between atoms: C_8  and  C_9
REMARK    4  A    between atoms: C_9  and  C_10
REMARK    5  A    between atoms: C_9  and  C_11
REMARK    6  A    between atoms: C_12  and  O_13
REMARK    7  A    between atoms: C_20  and  O_21
REMARK    8  A    between atoms: C_23  and  O_24
REMARK    9  A    between atoms: O_24  and  C_25
REMARK   10  A    between atoms: C_27  and  C_28
REMARK   11  A    between atoms: C_28  and  O_29
REMARK   12  A    between atoms: C_30  and  O_31
REMARK   13  A    between atoms: O_31  and  C_32
REMARK   14  A    between atoms: C_34  and  C_35
REMARK   15  A    between atoms: C_36  and  O_37
REMARK   16  A    between atoms: C_38  and  O_39
REMARK   17  A    between atoms: C_40  and  O_41
REMARK   18  A    between atoms: C_42  and  O_43
REMARK   19  A    between atoms: C_44  and  O_45
REMARK   20  A    between atoms: C_47  and  O_48
REMARK   21  A    between atoms: C_49  and  C_50
REMARK   22  A    between atoms: C_54  and  C_55
REMARK                            x       y       z     vdW  Elec       q    Type
REMARK                         _______ _______ _______ _____ _____    ______ ____
ROOT
ATOM      1  C   UNL     1      31.680  60.143  46.498  0.00  0.00    +0.000 C 
ATOM      2  C   UNL     1      30.614  60.898  47.361  0.00  0.00    +0.000 C 
ATOM      3  C   UNL     1      29.280  60.225  47.014  0.00  0.00    +0.000 C 
ATOM      4  C   UNL     1      29.445  60.133  45.500  0.00  0.00    +0.000 C 
ATOM      5  C   UNL     1      28.363  59.480  44.617  0.00  0.00    +0.000 C 
ATOM      6  C   UNL     1      27.023  60.220  44.818  0.00  0.00    +0.000 C 
ATOM      7  O   UNL     1      25.941  59.411  45.201  0.00  0.00    +0.000 OA
ATOM      8  C   UNL     1      25.971  59.807  43.841  0.00  0.00    +0.000 C 
ATOM      9  C   UNL     1      26.337  58.637  42.879  0.00  0.00    +0.000 C 
ATOM     10  C   UNL     1      25.181  58.421  41.865  0.00  0.00    +0.000 C 
ATOM     11  C   UNL     1      25.012  59.554  40.822  0.00  0.00    +0.000 C 
ATOM     12  C   UNL     1      26.180  60.568  40.811  0.00  0.00    +0.000 C 
ATOM     13  C   UNL     1      27.509  59.791  40.800  0.00  0.00    +0.000 C 
ATOM     14  C   UNL     1      27.729  58.929  42.118  0.00  0.00    +0.000 C 
ATOM     15  C   UNL     1      28.296  57.559  41.624  0.00  0.00    +0.000 C 
ATOM     16  C   UNL     1      28.776  59.645  43.115  0.00  0.00    +0.000 C 
ATOM     17  C   UNL     1      30.290  59.276  42.838  0.00  0.00    +0.000 C 
ATOM     18  C   UNL     1      31.289  59.822  43.894  0.00  0.00    +0.000 C 
ATOM     19  C   UNL     1      30.828  59.464  45.337  0.00  0.00    +0.000 C 
ATOM     20  C   UNL     1      30.748  57.913  45.503  0.00  0.00    +0.000 C 
ENDROOT
BRANCH   1  21
ATOM     21  C   UNL     1      32.830  59.314  47.238  0.00  0.00    +0.000 C 
ATOM     22  C   UNL     1      32.197  58.138  48.016  0.00  0.00    +0.000 C 
BRANCH  21  30
ATOM     23  C   UNL     1      36.986  60.101  44.366  0.00  0.00    +0.000 C 
ATOM     24  C   UNL     1      36.278  59.158  45.311  0.00  0.00    +0.000 C 
ATOM     25  C   UNL     1      36.520  57.812  45.406  0.00  0.00    +0.000 C 
ATOM     26  C   UNL     1      37.571  57.044  44.630  0.00  0.00    +0.000 C 
ATOM     27  C   UNL     1      35.647  57.026  46.321  0.00  0.00    +0.000 C 
ATOM     28  O   UNL     1      35.895  55.859  46.580  0.00  0.00    +0.000 OA
ATOM     29  O   UNL     1      34.533  57.603  46.839  0.00  0.00    +0.000 OA
ATOM     30  C   UNL     1      34.039  58.802  46.361  0.00  0.00    +0.000 C 
ATOM     31  C   UNL     1      35.225  59.774  46.232  0.00  0.00    +0.000 C 
ENDBRANCH  21  30
ENDBRANCH   1  21
BRANCH   2  32
ATOM     32  O   UNL     1      30.873  60.983  48.732  0.00  0.00    +0.000 OA
ATOM     33  H   UNL     1      31.042  60.057  49.049  0.00  0.00    +0.000 HD
ENDBRANCH   2  32
BRANCH   9  34
ATOM     34  O   UNL     1      26.473  57.452  43.643  0.00  0.00    +0.000 OA
ATOM     35  H   UNL     1      27.394  57.413  44.013  0.00  0.00    +0.000 HD
ENDBRANCH   9  34
BRANCH  13  36
ATOM     36  O   UNL     1      28.616  60.606  40.490  0.00  0.00    +0.000 OA
ATOM     37  H   UNL     1      29.445  60.128  40.759  0.00  0.00    +0.000 HD
ENDBRANCH  13  36
BRANCH  11  38
ATOM     38  O   UNL     1      23.772  60.240  40.996  0.00  0.00    +0.000 OA
BRANCH  38  39
ATOM     39  C   UNL     1      23.454  61.026  39.855  0.00  0.00    +0.000 C 
ATOM     40  O   UNL     1      23.561  60.189  38.695  0.00  0.00    +0.000 OA
ATOM     41  C   UNL     1      22.993  60.805  37.552  0.00  0.00    +0.000 C 
ATOM     42  C   UNL     1      21.442  60.944  37.680  0.00  0.00    +0.000 C 
ATOM     43  C   UNL     1      21.014  60.861  39.176  0.00  0.00    +0.000 C 
ATOM     44  C   UNL     1      22.019  61.635  40.040  0.00  0.00    +0.000 C 
BRANCH  43  45
ATOM     45  O   UNL     1      20.933  59.530  39.647  0.00  0.00    +0.000 OA
ATOM     46  H   UNL     1      20.095  59.102  39.331  0.00  0.00    +0.000 HD
ENDBRANCH  43  45
BRANCH  44  47
ATOM     47  O   UNL     1      21.967  63.012  39.734  0.00  0.00    +0.000 OA
ATOM     48  H   UNL     1      21.372  63.478  40.373  0.00  0.00    +0.000 HD
ENDBRANCH  44  47
BRANCH  41  49
ATOM     49  C   UNL     1      23.385  60.028  36.287  0.00  0.00    +0.000 C 
BRANCH  49  50
ATOM     50  O   UNL     1      24.750  59.702  36.295  0.00  0.00    +0.000 OA
ATOM     51  H   UNL     1      25.216  60.398  35.764  0.00  0.00    +0.000 HD
ENDBRANCH  49  50
ENDBRANCH  41  49
BRANCH  42  52
ATOM     52  O   UNL     1      21.077  62.223  37.175  0.00  0.00    +0.000 OA
BRANCH  52  53
ATOM     53  C   UNL     1      20.314  62.207  35.983  0.00  0.00    +0.000 C 
ATOM     54  O   UNL     1      21.202  62.117  34.873  0.00  0.00    +0.000 OA
ATOM     55  C   UNL     1      20.487  62.084  33.641  0.00  0.00    +0.000 C 
ATOM     56  C   UNL     1      21.489  61.871  32.506  0.00  0.00    +0.000 C 
ATOM     57  C   UNL     1      19.698  63.404  33.425  0.00  0.00    +0.000 C 
ATOM     58  C   UNL     1      18.744  63.620  34.615  0.00  0.00    +0.000 C 
ATOM     59  C   UNL     1      19.527  63.538  35.936  0.00  0.00    +0.000 C 
BRANCH  57  60
ATOM     60  O   UNL     1      18.986  63.394  32.211  0.00  0.00    +0.000 OA
ATOM     61  H   UNL     1      18.066  63.077  32.406  0.00  0.00    +0.000 HD
ENDBRANCH  57  60
BRANCH  58  62
ATOM     62  O   UNL     1      18.033  64.829  34.508  0.00  0.00    +0.000 OA
ATOM     63  H   UNL     1      17.360  64.848  35.238  0.00  0.00    +0.000 HD
ENDBRANCH  58  62
BRANCH  59  64
ATOM     64  O   UNL     1      20.380  64.652  36.102  0.00  0.00    +0.000 OA
ATOM     65  H   UNL     1      20.212  65.057  36.989  0.00  0.00    +0.000 HD
ENDBRANCH  59  64
ENDBRANCH  52  53
ENDBRANCH  42  52
ENDBRANCH  38  39
ENDBRANCH  11  38
TORSDOF 16
