MODEL 1
REMARK VINA RESULT:   -12.980      0.000      0.000
REMARK INTER + INTRA:         -22.252
REMARK INTER:                 -20.569
REMARK INTRA:                  -1.684
REMARK UNBOUND:                -1.684
REMARK SMILES C[C@H]1O[C@@H](O[C@H]2[C@@H](O)C[C@H](O[C@H]3[C@@H](O)C[C@H](O[C@H]4CC[C@@]5(C)[C@H](CC[C@@H]6[C@H]5C[C@@H](O)[C@]5(C)[C@@H](C7=CC(=O)OC7)CC[C@]65O)C4)O[C@@H]3C)O[C@@H]2C)C[C@H](O)[C@@H]1O
REMARK SMILES IDX 11 1 10 2 6 3 7 4 49 5 9 6 48 7 50 8 5 9 4 10 2 11 3 12
REMARK SMILES IDX 54 13 52 14 51 15 1 16 55 17 53 19 8 21 12 23 13 24 46 25
REMARK SMILES IDX 15 26 45 27 16 28 47 29 14 30 17 32 18 33 19 34 44 35 20 36
REMARK SMILES IDX 23 37 21 38 24 39 27 40 25 41 28 42 26 43 29 44 42 45 31 46
REMARK SMILES IDX 41 47 33 48 40 49 22 50 32 51 30 52 43 54 34 56 35 57 39 58
REMARK SMILES IDX 36 59 38 60 37 61
REMARK H PARENT 55 18 53 20 8 22 14 31 30 53 43 55
ROOT
ATOM      1  O   UNL     1      25.063  60.896  39.945  1.00  0.00    -0.344 OA
ENDROOT
BRANCH   1   2
ATOM      2  C   UNL     1      23.839  61.601  40.089  1.00  0.00     0.253 C 
ATOM      3  C   UNL     1      22.295  61.758  37.613  1.00  0.00     0.179 C 
ATOM      4  C   UNL     1      23.659  62.502  37.762  1.00  0.00     0.151 C 
ATOM      5  C   UNL     1      21.771  61.275  39.001  1.00  0.00     0.150 C 
ATOM      6  C   UNL     1      23.898  62.894  39.221  1.00  0.00     0.096 C 
ATOM      7  O   UNL     1      22.810  60.682  39.741  1.00  0.00    -0.347 OA
ATOM      8  C   UNL     1      20.648  60.253  38.872  1.00  0.00     0.041 C 
BRANCH   3   9
ATOM      9  O   UNL     1      21.303  62.593  37.008  1.00  0.00    -0.344 OA
BRANCH   9  10
ATOM     10  C   UNL     1      21.128  62.338  35.616  1.00  0.00     0.253 C 
ATOM     11  C   UNL     1      21.034  63.578  33.522  1.00  0.00     0.149 C 
ATOM     12  O   UNL     1      21.534  63.494  34.876  1.00  0.00    -0.347 OA
ATOM     13  C   UNL     1      20.565  62.204  32.947  1.00  0.00     0.172 C 
ATOM     14  C   UNL     1      19.489  61.567  33.874  1.00  0.00     0.150 C 
ATOM     15  C   UNL     1      19.656  62.013  35.344  1.00  0.00     0.096 C 
ATOM     16  C   UNL     1      19.945  64.653  33.400  1.00  0.00     0.041 C 
BRANCH  13  17
ATOM     17  O   UNL     1      21.658  61.312  32.800  1.00  0.00    -0.388 OA
ATOM     18  H   UNL     1      21.710  60.959  31.873  1.00  0.00     0.211 HD
ENDBRANCH  13  17
BRANCH  14  19
ATOM     19  O   UNL     1      19.518  60.164  33.753  1.00  0.00    -0.390 OA
ATOM     20  H   UNL     1      18.667  59.802  34.111  1.00  0.00     0.211 HD
ENDBRANCH  14  19
ENDBRANCH   9  10
ENDBRANCH   3   9
BRANCH   4  21
ATOM     21  O   UNL     1      23.774  63.591  36.881  1.00  0.00    -0.390 OA
ATOM     22  H   UNL     1      24.244  63.271  36.067  1.00  0.00     0.211 HD
ENDBRANCH   4  21
ENDBRANCH   1   2
BRANCH   1  23
ATOM     23  C   UNL     1      25.257  59.911  40.949  1.00  0.00     0.179 C 
ATOM     24  C   UNL     1      25.740  58.580  40.319  1.00  0.00     0.151 C 
ATOM     25  C   UNL     1      26.228  60.448  42.043  1.00  0.00     0.150 C 
ATOM     26  C   UNL     1      26.250  57.717  41.468  1.00  0.00     0.096 C 
ATOM     27  O   UNL     1      27.501  59.827  42.004  1.00  0.00    -0.347 OA
ATOM     28  C   UNL     1      27.476  58.406  42.120  1.00  0.00     0.253 C 
ATOM     29  C   UNL     1      25.625  60.408  43.457  1.00  0.00     0.041 C 
BRANCH  24  30
ATOM     30  O   UNL     1      26.731  58.739  39.327  1.00  0.00    -0.390 OA
ATOM     31  H   UNL     1      26.563  58.102  38.588  1.00  0.00     0.211 HD
ENDBRANCH  24  30
BRANCH  28  32
ATOM     32  O   UNL     1      27.540  58.069  43.491  1.00  0.00    -0.349 OA
BRANCH  32  33
ATOM     33  C   UNL     1      26.825  56.905  43.852  1.00  0.00     0.121 C 
ATOM     34  C   UNL     1      27.809  55.713  43.862  1.00  0.00     0.033 C 
ATOM     35  C   UNL     1      26.236  57.129  45.246  1.00  0.00     0.036 C 
ATOM     36  C   UNL     1      28.243  55.278  45.281  1.00  0.00     0.010 C 
ATOM     37  C   UNL     1      27.371  57.481  46.275  1.00  0.00    -0.002 C 
ATOM     38  C   UNL     1      28.608  56.462  46.224  1.00  0.00    -0.026 C 
ATOM     39  C   UNL     1      26.749  57.660  47.672  1.00  0.00     0.005 C 
ATOM     40  C   UNL     1      29.055  55.948  47.678  1.00  0.00     0.004 C 
ATOM     41  C   UNL     1      26.550  56.312  48.344  1.00  0.00     0.007 C 
ATOM     42  C   UNL     1      30.105  54.806  47.673  1.00  0.00     0.037 C 
ATOM     43  C   UNL     1      27.918  55.730  48.760  1.00  0.00     0.025 C 
ATOM     44  C   UNL     1      29.434  53.418  47.743  1.00  0.00     0.124 C 
ATOM     45  C   UNL     1      27.832  54.365  49.592  1.00  0.00     0.076 C 
ATOM     46  C   UNL     1      28.796  53.173  49.140  1.00  0.00     0.029 C 
ATOM     47  C   UNL     1      26.430  53.699  49.604  1.00  0.00     0.037 C 
ATOM     48  C   UNL     1      27.835  51.930  49.063  1.00  0.00     0.030 C 
ATOM     49  C   UNL     1      26.719  52.270  50.031  1.00  0.00     0.012 C 
ATOM     50  C   UNL     1      29.829  57.217  45.599  1.00  0.00     0.012 C 
ATOM     51  C   UNL     1      29.922  52.951  50.202  1.00  0.00     0.018 C 
BRANCH  44  52
ATOM     52  O   UNL     1      30.323  52.378  47.401  1.00  0.00    -0.392 OA
ATOM     53  H   UNL     1      30.045  51.993  46.530  1.00  0.00     0.210 HD
ENDBRANCH  44  52
BRANCH  45  54
ATOM     54  O   UNL     1      28.116  54.668  50.951  1.00  0.00    -0.389 OA
ATOM     55  H   UNL     1      27.336  55.142  51.346  1.00  0.00     0.211 HD
ENDBRANCH  45  54
BRANCH  48  56
ATOM     56  C   UNL     1      28.375  50.519  49.220  1.00  0.00    -0.022 C 
ATOM     57  C   UNL     1      28.721  49.759  48.188  1.00  0.00     0.096 C 
ATOM     58  C   UNL     1      28.536  49.718  50.500  1.00  0.00     0.265 C 
ATOM     59  C   UNL     1      29.121  48.493  48.739  1.00  0.00     0.331 C 
ATOM     60  O   UNL     1      28.998  48.488  50.081  1.00  0.00    -0.458 OA
ATOM     61  O   UNL     1      29.505  47.534  48.092  1.00  0.00    -0.247 OA
ENDBRANCH  48  56
ENDBRANCH  32  33
ENDBRANCH  28  32
ENDBRANCH   1  23
TORSDOF 13
ENDMDL
MODEL 2
REMARK VINA RESULT:   -12.881      4.278      6.359
REMARK INTER + INTRA:         -22.094
REMARK INTER:                 -20.703
REMARK INTRA:                  -1.391
REMARK UNBOUND:                -1.684
REMARK SMILES C[C@H]1O[C@@H](O[C@H]2[C@@H](O)C[C@H](O[C@H]3[C@@H](O)C[C@H](O[C@H]4CC[C@@]5(C)[C@H](CC[C@@H]6[C@H]5C[C@@H](O)[C@]5(C)[C@@H](C7=CC(=O)OC7)CC[C@]65O)C4)O[C@@H]3C)O[C@@H]2C)C[C@H](O)[C@@H]1O
REMARK SMILES IDX 11 1 10 2 6 3 7 4 49 5 9 6 48 7 50 8 5 9 4 10 2 11 3 12
REMARK SMILES IDX 54 13 52 14 51 15 1 16 55 17 53 19 8 21 12 23 13 24 46 25
REMARK SMILES IDX 15 26 45 27 16 28 47 29 14 30 17 32 18 33 19 34 44 35 20 36
REMARK SMILES IDX 23 37 21 38 24 39 27 40 25 41 28 42 26 43 29 44 42 45 31 46
REMARK SMILES IDX 41 47 33 48 40 49 22 50 32 51 30 52 43 54 34 56 35 57 39 58
REMARK SMILES IDX 36 59 38 60 37 61
REMARK H PARENT 55 18 53 20 8 22 14 31 30 53 43 55
ROOT
ATOM      1  O   UNL     1      23.499  60.850  40.351  1.00  0.00    -0.344 OA
ENDROOT
BRANCH   1   2
ATOM      2  C   UNL     1      22.427  60.258  39.631  1.00  0.00     0.253 C 
ATOM      3  C   UNL     1      21.609  61.809  37.293  1.00  0.00     0.179 C 
ATOM      4  C   UNL     1      21.386  62.351  38.739  1.00  0.00     0.151 C 
ATOM      5  C   UNL     1      21.963  60.290  37.318  1.00  0.00     0.150 C 
ATOM      6  C   UNL     1      21.185  61.195  39.719  1.00  0.00     0.096 C 
ATOM      7  O   UNL     1      22.918  60.022  38.317  1.00  0.00    -0.347 OA
ATOM      8  C   UNL     1      22.530  59.806  35.989  1.00  0.00     0.041 C 
BRANCH   3   9
ATOM      9  O   UNL     1      20.451  62.001  36.474  1.00  0.00    -0.344 OA
BRANCH   9  10
ATOM     10  C   UNL     1      20.723  62.735  35.282  1.00  0.00     0.253 C 
ATOM     11  C   UNL     1      19.914  64.721  34.127  1.00  0.00     0.149 C 
ATOM     12  O   UNL     1      20.109  64.025  35.379  1.00  0.00    -0.347 OA
ATOM     13  C   UNL     1      20.825  64.191  32.974  1.00  0.00     0.172 C 
ATOM     14  C   UNL     1      20.610  62.663  32.773  1.00  0.00     0.150 C 
ATOM     15  C   UNL     1      20.171  61.964  34.079  1.00  0.00     0.096 C 
ATOM     16  C   UNL     1      18.433  64.737  33.727  1.00  0.00     0.041 C 
BRANCH  13  17
ATOM     17  O   UNL     1      22.193  64.450  33.243  1.00  0.00    -0.388 OA
ATOM     18  H   UNL     1      22.517  65.237  32.730  1.00  0.00     0.211 HD
ENDBRANCH  13  17
BRANCH  14  19
ATOM     19  O   UNL     1      21.777  62.078  32.241  1.00  0.00    -0.390 OA
ATOM     20  H   UNL     1      22.434  61.967  32.975  1.00  0.00     0.211 HD
ENDBRANCH  14  19
ENDBRANCH   9  10
ENDBRANCH   3   9
BRANCH   4  21
ATOM     21  O   UNL     1      20.352  63.302  38.801  1.00  0.00    -0.390 OA
ATOM     22  H   UNL     1      20.770  64.202  38.773  1.00  0.00     0.211 HD
ENDBRANCH   4  21
ENDBRANCH   1   2
BRANCH   1  23
ATOM     23  C   UNL     1      24.720  60.140  40.211  1.00  0.00     0.179 C 
ATOM     24  C   UNL     1      25.922  61.117  40.216  1.00  0.00     0.151 C 
ATOM     25  C   UNL     1      24.829  59.044  41.313  1.00  0.00     0.150 C 
ATOM     26  C   UNL     1      27.172  60.266  40.416  1.00  0.00     0.096 C 
ATOM     27  O   UNL     1      25.793  59.353  42.305  1.00  0.00    -0.347 OA
ATOM     28  C   UNL     1      27.110  59.585  41.806  1.00  0.00     0.253 C 
ATOM     29  C   UNL     1      25.041  57.632  40.742  1.00  0.00     0.041 C 
BRANCH  24  30
ATOM     30  O   UNL     1      25.837  62.129  41.196  1.00  0.00    -0.390 OA
ATOM     31  H   UNL     1      26.747  62.371  41.500  1.00  0.00     0.211 HD
ENDBRANCH  24  30
BRANCH  28  32
ATOM     32  O   UNL     1      27.794  58.349  41.763  1.00  0.00    -0.349 OA
BRANCH  32  33
ATOM     33  C   UNL     1      29.150  58.433  41.373  1.00  0.00     0.121 C 
ATOM     34  C   UNL     1      29.856  59.464  42.285  1.00  0.00     0.033 C 
ATOM     35  C   UNL     1      29.775  57.047  41.544  1.00  0.00     0.036 C 
ATOM     36  C   UNL     1      30.734  58.822  43.383  1.00  0.00     0.010 C 
ATOM     37  C   UNL     1      29.604  56.542  43.022  1.00  0.00    -0.002 C 
ATOM     38  C   UNL     1      30.061  57.624  44.114  1.00  0.00    -0.026 C 
ATOM     39  C   UNL     1      30.277  55.165  43.168  1.00  0.00     0.005 C 
ATOM     40  C   UNL     1      31.018  57.005  45.246  1.00  0.00     0.004 C 
ATOM     41  C   UNL     1      31.773  55.324  43.387  1.00  0.00     0.007 C 
ATOM     42  C   UNL     1      31.655  58.045  46.205  1.00  0.00     0.037 C 
ATOM     43  C   UNL     1      32.036  55.874  44.806  1.00  0.00     0.025 C 
ATOM     44  C   UNL     1      33.052  58.484  45.718  1.00  0.00     0.124 C 
ATOM     45  C   UNL     1      33.584  55.967  45.204  1.00  0.00     0.076 C 
ATOM     46  C   UNL     1      34.086  57.332  45.867  1.00  0.00     0.029 C 
ATOM     47  C   UNL     1      34.571  55.766  44.022  1.00  0.00     0.037 C 
ATOM     48  C   UNL     1      35.383  57.685  45.051  1.00  0.00     0.030 C 
ATOM     49  C   UNL     1      35.875  56.342  44.547  1.00  0.00     0.012 C 
ATOM     50  C   UNL     1      28.774  58.158  44.831  1.00  0.00     0.012 C 
ATOM     51  C   UNL     1      34.414  57.112  47.381  1.00  0.00     0.018 C 
BRANCH  44  52
ATOM     52  O   UNL     1      33.499  59.654  46.365  1.00  0.00    -0.392 OA
ATOM     53  H   UNL     1      33.499  59.499  47.344  1.00  0.00     0.210 HD
ENDBRANCH  44  52
BRANCH  45  54
ATOM     54  O   UNL     1      33.862  54.909  46.110  1.00  0.00    -0.389 OA
ATOM     55  H   UNL     1      34.482  55.239  46.813  1.00  0.00     0.211 HD
ENDBRANCH  45  54
BRANCH  48  56
ATOM     56  C   UNL     1      36.472  58.551  45.659  1.00  0.00    -0.022 C 
ATOM     57  C   UNL     1      37.395  58.075  46.485  1.00  0.00     0.096 C 
ATOM     58  C   UNL     1      36.658  60.052  45.519  1.00  0.00     0.265 C 
ATOM     59  C   UNL     1      38.195  59.202  46.883  1.00  0.00     0.331 C 
ATOM     60  O   UNL     1      37.746  60.339  46.318  1.00  0.00    -0.458 OA
ATOM     61  O   UNL     1      39.146  59.156  47.644  1.00  0.00    -0.247 OA
ENDBRANCH  48  56
ENDBRANCH  32  33
ENDBRANCH  28  32
ENDBRANCH   1  23
TORSDOF 13
ENDMDL
MODEL 3
REMARK VINA RESULT:   -12.865      4.557      6.918
REMARK INTER + INTRA:         -22.069
REMARK INTER:                 -20.465
REMARK INTRA:                  -1.604
REMARK UNBOUND:                -1.684
REMARK SMILES C[C@H]1O[C@@H](O[C@H]2[C@@H](O)C[C@H](O[C@H]3[C@@H](O)C[C@H](O[C@H]4CC[C@@]5(C)[C@H](CC[C@@H]6[C@H]5C[C@@H](O)[C@]5(C)[C@@H](C7=CC(=O)OC7)CC[C@]65O)C4)O[C@@H]3C)O[C@@H]2C)C[C@H](O)[C@@H]1O
REMARK SMILES IDX 11 1 10 2 6 3 7 4 49 5 9 6 48 7 50 8 5 9 4 10 2 11 3 12
REMARK SMILES IDX 54 13 52 14 51 15 1 16 55 17 53 19 8 21 12 23 13 24 46 25
REMARK SMILES IDX 15 26 45 27 16 28 47 29 14 30 17 32 18 33 19 34 44 35 20 36
REMARK SMILES IDX 23 37 21 38 24 39 27 40 25 41 28 42 26 43 29 44 42 45 31 46
REMARK SMILES IDX 41 47 33 48 40 49 22 50 32 51 30 52 43 54 34 56 35 57 39 58
REMARK SMILES IDX 36 59 38 60 37 61
REMARK H PARENT 55 18 53 20 8 22 14 31 30 53 43 55
ROOT
ATOM      1  O   UNL     1      24.382  58.762  40.048  1.00  0.00    -0.344 OA
ENDROOT
BRANCH   1   2
ATOM      2  C   UNL     1      23.930  60.108  40.026  1.00  0.00     0.253 C 
ATOM      3  C   UNL     1      22.430  60.785  37.610  1.00  0.00     0.179 C 
ATOM      4  C   UNL     1      23.955  60.462  37.549  1.00  0.00     0.151 C 
ATOM      5  C   UNL     1      21.972  61.028  39.082  1.00  0.00     0.150 C 
ATOM      6  C   UNL     1      24.639  60.858  38.859  1.00  0.00     0.096 C 
ATOM      7  O   UNL     1      22.511  60.046  39.935  1.00  0.00    -0.347 OA
ATOM      8  C   UNL     1      20.456  60.992  39.230  1.00  0.00     0.041 C 
BRANCH   3   9
ATOM      9  O   UNL     1      22.104  61.937  36.827  1.00  0.00    -0.344 OA
BRANCH   9  10
ATOM     10  C   UNL     1      21.144  61.668  35.807  1.00  0.00     0.253 C 
ATOM     11  C   UNL     1      20.925  61.896  33.392  1.00  0.00     0.149 C 
ATOM     12  O   UNL     1      21.795  61.717  34.532  1.00  0.00    -0.347 OA
ATOM     13  C   UNL     1      19.438  61.517  33.680  1.00  0.00     0.172 C 
ATOM     14  C   UNL     1      18.898  62.328  34.894  1.00  0.00     0.150 C 
ATOM     15  C   UNL     1      20.024  62.711  35.881  1.00  0.00     0.096 C 
ATOM     16  C   UNL     1      21.055  63.311  32.812  1.00  0.00     0.041 C 
BRANCH  13  17
ATOM     17  O   UNL     1      19.304  60.128  33.935  1.00  0.00    -0.388 OA
ATOM     18  H   UNL     1      20.017  59.805  34.547  1.00  0.00     0.211 HD
ENDBRANCH  13  17
BRANCH  14  19
ATOM     19  O   UNL     1      17.871  61.608  35.537  1.00  0.00    -0.390 OA
ATOM     20  H   UNL     1      17.444  62.202  36.206  1.00  0.00     0.211 HD
ENDBRANCH  14  19
ENDBRANCH   9  10
ENDBRANCH   3   9
BRANCH   4  21
ATOM     21  O   UNL     1      24.577  61.024  36.420  1.00  0.00    -0.390 OA
ATOM     22  H   UNL     1      25.248  60.372  36.090  1.00  0.00     0.211 HD
ENDBRANCH   4  21
ENDBRANCH   1   2
BRANCH   1  23
ATOM     23  C   UNL     1      25.260  58.489  41.129  1.00  0.00     0.179 C 
ATOM     24  C   UNL     1      26.551  57.800  40.621  1.00  0.00     0.151 C 
ATOM     25  C   UNL     1      25.548  59.797  41.926  1.00  0.00     0.150 C 
ATOM     26  C   UNL     1      27.557  57.866  41.765  1.00  0.00     0.096 C 
ATOM     27  O   UNL     1      26.867  60.280  41.735  1.00  0.00    -0.347 OA
ATOM     28  C   UNL     1      27.897  59.348  42.061  1.00  0.00     0.253 C 
ATOM     29  C   UNL     1      25.201  59.682  43.420  1.00  0.00     0.041 C 
BRANCH  24  30
ATOM     30  O   UNL     1      27.084  58.370  39.445  1.00  0.00    -0.390 OA
ATOM     31  H   UNL     1      26.346  58.607  38.829  1.00  0.00     0.211 HD
ENDBRANCH  24  30
BRANCH  28  32
ATOM     32  O   UNL     1      28.219  59.500  43.429  1.00  0.00    -0.349 OA
BRANCH  32  33
ATOM     33  C   UNL     1      29.101  60.565  43.718  1.00  0.00     0.121 C 
ATOM     34  C   UNL     1      28.913  60.964  45.201  1.00  0.00     0.033 C 
ATOM     35  C   UNL     1      30.528  60.074  43.470  1.00  0.00     0.036 C 
ATOM     36  C   UNL     1      30.035  60.447  46.130  1.00  0.00     0.010 C 
ATOM     37  C   UNL     1      30.829  58.793  44.330  1.00  0.00    -0.002 C 
ATOM     38  C   UNL     1      30.437  58.964  45.875  1.00  0.00    -0.026 C 
ATOM     39  C   UNL     1      32.283  58.350  44.086  1.00  0.00     0.005 C 
ATOM     40  C   UNL     1      31.600  58.484  46.873  1.00  0.00     0.004 C 
ATOM     41  C   UNL     1      33.239  59.160  44.947  1.00  0.00     0.007 C 
ATOM     42  C   UNL     1      31.359  58.819  48.368  1.00  0.00     0.037 C 
ATOM     43  C   UNL     1      33.099  58.733  46.424  1.00  0.00     0.025 C 
ATOM     44  C   UNL     1      32.015  60.159  48.763  1.00  0.00     0.124 C 
ATOM     45  C   UNL     1      34.146  59.428  47.416  1.00  0.00     0.076 C 
ATOM     46  C   UNL     1      33.567  60.041  48.774  1.00  0.00     0.029 C 
ATOM     47  C   UNL     1      34.933  60.616  46.801  1.00  0.00     0.037 C 
ATOM     48  C   UNL     1      34.198  61.481  48.828  1.00  0.00     0.030 C 
ATOM     49  C   UNL     1      35.472  61.352  48.016  1.00  0.00     0.012 C 
ATOM     50  C   UNL     1      29.182  58.070  46.156  1.00  0.00     0.012 C 
ATOM     51  C   UNL     1      34.021  59.179  49.997  1.00  0.00     0.018 C 
BRANCH  44  52
ATOM     52  O   UNL     1      31.535  60.647  49.995  1.00  0.00    -0.392 OA
ATOM     53  H   UNL     1      32.267  60.608  50.663  1.00  0.00     0.210 HD
ENDBRANCH  44  52
BRANCH  45  54
ATOM     54  O   UNL     1      35.129  58.460  47.755  1.00  0.00    -0.389 OA
ATOM     55  H   UNL     1      35.264  57.851  46.981  1.00  0.00     0.211 HD
ENDBRANCH  45  54
BRANCH  48  56
ATOM     56  C   UNL     1      34.385  62.198  50.154  1.00  0.00    -0.022 C 
ATOM     57  C   UNL     1      33.499  63.058  50.640  1.00  0.00     0.096 C 
ATOM     58  C   UNL     1      35.584  62.143  51.084  1.00  0.00     0.265 C 
ATOM     59  C   UNL     1      34.059  63.560  51.866  1.00  0.00     0.331 C 
ATOM     60  O   UNL     1      35.272  63.022  52.100  1.00  0.00    -0.458 OA
ATOM     61  O   UNL     1      33.530  64.377  52.599  1.00  0.00    -0.247 OA
ENDBRANCH  48  56
ENDBRANCH  32  33
ENDBRANCH  28  32
ENDBRANCH   1  23
TORSDOF 13
ENDMDL
MODEL 4
REMARK VINA RESULT:   -12.839      4.032      5.918
REMARK INTER + INTRA:         -22.028
REMARK INTER:                 -20.459
REMARK INTRA:                  -1.569
REMARK UNBOUND:                -1.684
REMARK SMILES C[C@H]1O[C@@H](O[C@H]2[C@@H](O)C[C@H](O[C@H]3[C@@H](O)C[C@H](O[C@H]4CC[C@@]5(C)[C@H](CC[C@@H]6[C@H]5C[C@@H](O)[C@]5(C)[C@@H](C7=CC(=O)OC7)CC[C@]65O)C4)O[C@@H]3C)O[C@@H]2C)C[C@H](O)[C@@H]1O
REMARK SMILES IDX 11 1 10 2 6 3 7 4 49 5 9 6 48 7 50 8 5 9 4 10 2 11 3 12
REMARK SMILES IDX 54 13 52 14 51 15 1 16 55 17 53 19 8 21 12 23 13 24 46 25
REMARK SMILES IDX 15 26 45 27 16 28 47 29 14 30 17 32 18 33 19 34 44 35 20 36
REMARK SMILES IDX 23 37 21 38 24 39 27 40 25 41 28 42 26 43 29 44 42 45 31 46
REMARK SMILES IDX 41 47 33 48 40 49 22 50 32 51 30 52 43 54 34 56 35 57 39 58
REMARK SMILES IDX 36 59 38 60 37 61
REMARK H PARENT 55 18 53 20 8 22 14 31 30 53 43 55
ROOT
ATOM      1  O   UNL     1      25.139  59.347  39.614  1.00  0.00    -0.344 OA
ENDROOT
BRANCH   1   2
ATOM      2  C   UNL     1      24.333  60.498  39.819  1.00  0.00     0.253 C 
ATOM      3  C   UNL     1      22.554  61.080  37.575  1.00  0.00     0.179 C 
ATOM      4  C   UNL     1      24.102  61.213  37.433  1.00  0.00     0.151 C 
ATOM      5  C   UNL     1      22.142  60.960  39.075  1.00  0.00     0.150 C 
ATOM      6  C   UNL     1      24.733  61.584  38.776  1.00  0.00     0.096 C 
ATOM      7  O   UNL     1      22.984  60.054  39.747  1.00  0.00    -0.347 OA
ATOM      8  C   UNL     1      20.707  60.477  39.245  1.00  0.00     0.041 C 
BRANCH   3   9
ATOM      9  O   UNL     1      21.874  62.198  36.996  1.00  0.00    -0.344 OA
BRANCH   9  10
ATOM     10  C   UNL     1      21.029  61.837  35.906  1.00  0.00     0.253 C 
ATOM     11  C   UNL     1      20.986  62.029  33.478  1.00  0.00     0.149 C 
ATOM     12  O   UNL     1      21.774  61.937  34.687  1.00  0.00    -0.347 OA
ATOM     13  C   UNL     1      19.520  61.518  33.652  1.00  0.00     0.172 C 
ATOM     14  C   UNL     1      18.813  62.284  34.807  1.00  0.00     0.150 C 
ATOM     15  C   UNL     1      19.817  62.774  35.876  1.00  0.00     0.096 C 
ATOM     16  C   UNL     1      21.034  63.447  32.892  1.00  0.00     0.041 C 
BRANCH  13  17
ATOM     17  O   UNL     1      19.492  60.125  33.914  1.00  0.00    -0.388 OA
ATOM     18  H   UNL     1      18.756  59.892  34.540  1.00  0.00     0.211 HD
ENDBRANCH  13  17
BRANCH  14  19
ATOM     19  O   UNL     1      17.807  61.477  35.376  1.00  0.00    -0.390 OA
ATOM     20  H   UNL     1      18.042  61.306  36.324  1.00  0.00     0.211 HD
ENDBRANCH  14  19
ENDBRANCH   9  10
ENDBRANCH   3   9
BRANCH   4  21
ATOM     21  O   UNL     1      24.471  62.091  36.399  1.00  0.00    -0.390 OA
ATOM     22  H   UNL     1      25.002  61.573  35.740  1.00  0.00     0.211 HD
ENDBRANCH   4  21
ENDBRANCH   1   2
BRANCH   1  23
ATOM     23  C   UNL     1      25.767  58.890  40.801  1.00  0.00     0.179 C 
ATOM     24  C   UNL     1      27.308  59.005  40.681  1.00  0.00     0.151 C 
ATOM     25  C   UNL     1      25.199  59.654  42.034  1.00  0.00     0.150 C 
ATOM     26  C   UNL     1      27.866  58.834  42.090  1.00  0.00     0.096 C 
ATOM     27  O   UNL     1      26.125  60.573  42.589  1.00  0.00    -0.347 OA
ATOM     28  C   UNL     1      27.372  60.001  42.981  1.00  0.00     0.253 C 
ATOM     29  C   UNL     1      24.621  58.719  43.110  1.00  0.00     0.041 C 
BRANCH  24  30
ATOM     30  O   UNL     1      27.751  60.214  40.105  1.00  0.00    -0.390 OA
ATOM     31  H   UNL     1      27.482  60.244  39.152  1.00  0.00     0.211 HD
ENDBRANCH  24  30
BRANCH  28  32
ATOM     32  O   UNL     1      27.259  59.564  44.320  1.00  0.00    -0.349 OA
BRANCH  32  33
ATOM     33  C   UNL     1      27.374  60.584  45.291  1.00  0.00     0.121 C 
ATOM     34  C   UNL     1      26.874  60.028  46.645  1.00  0.00     0.033 C 
ATOM     35  C   UNL     1      28.849  60.980  45.385  1.00  0.00     0.036 C 
ATOM     36  C   UNL     1      28.012  59.661  47.624  1.00  0.00     0.010 C 
ATOM     37  C   UNL     1      29.737  59.727  45.720  1.00  0.00    -0.002 C 
ATOM     38  C   UNL     1      29.188  58.881  46.967  1.00  0.00    -0.026 C 
ATOM     39  C   UNL     1      31.207  60.167  45.845  1.00  0.00     0.005 C 
ATOM     40  C   UNL     1      30.334  58.524  48.034  1.00  0.00     0.004 C 
ATOM     41  C   UNL     1      31.477  60.738  47.229  1.00  0.00     0.007 C 
ATOM     42  C   UNL     1      29.824  57.890  49.355  1.00  0.00     0.037 C 
ATOM     43  C   UNL     1      31.475  59.598  48.271  1.00  0.00     0.025 C 
ATOM     44  C   UNL     1      29.592  58.959  50.444  1.00  0.00     0.124 C 
ATOM     45  C   UNL     1      31.873  60.055  49.752  1.00  0.00     0.076 C 
ATOM     46  C   UNL     1      30.940  59.549  50.947  1.00  0.00     0.029 C 
ATOM     47  C   UNL     1      31.917  61.593  49.967  1.00  0.00     0.037 C 
ATOM     48  C   UNL     1      30.660  60.856  51.777  1.00  0.00     0.030 C 
ATOM     49  C   UNL     1      31.854  61.742  51.478  1.00  0.00     0.012 C 
ATOM     50  C   UNL     1      28.622  57.527  46.419  1.00  0.00     0.012 C 
ATOM     51  C   UNL     1      31.692  58.483  51.810  1.00  0.00     0.018 C 
BRANCH  44  52
ATOM     52  O   UNL     1      28.820  58.468  51.517  1.00  0.00    -0.392 OA
ATOM     53  H   UNL     1      28.812  59.145  52.242  1.00  0.00     0.210 HD
ENDBRANCH  44  52
BRANCH  45  54
ATOM     54  O   UNL     1      33.196  59.602  50.004  1.00  0.00    -0.389 OA
ATOM     55  H   UNL     1      33.832  60.145  49.467  1.00  0.00     0.211 HD
ENDBRANCH  45  54
BRANCH  48  56
ATOM     56  C   UNL     1      30.306  60.779  53.252  1.00  0.00    -0.022 C 
ATOM     57  C   UNL     1      31.167  61.075  54.217  1.00  0.00     0.096 C 
ATOM     58  C   UNL     1      29.007  60.297  53.876  1.00  0.00     0.265 C 
ATOM     59  C   UNL     1      30.481  60.824  55.456  1.00  0.00     0.331 C 
ATOM     60  O   UNL     1      29.233  60.365  55.235  1.00  0.00    -0.458 OA
ATOM     61  O   UNL     1      30.955  60.981  56.568  1.00  0.00    -0.247 OA
ENDBRANCH  48  56
ENDBRANCH  32  33
ENDBRANCH  28  32
ENDBRANCH   1  23
TORSDOF 13
ENDMDL
MODEL 5
REMARK VINA RESULT:   -12.700      2.129      2.929
REMARK INTER + INTRA:         -21.807
REMARK INTER:                 -20.480
REMARK INTRA:                  -1.328
REMARK UNBOUND:                -1.684
REMARK SMILES C[C@H]1O[C@@H](O[C@H]2[C@@H](O)C[C@H](O[C@H]3[C@@H](O)C[C@H](O[C@H]4CC[C@@]5(C)[C@H](CC[C@@H]6[C@H]5C[C@@H](O)[C@]5(C)[C@@H](C7=CC(=O)OC7)CC[C@]65O)C4)O[C@@H]3C)O[C@@H]2C)C[C@H](O)[C@@H]1O
REMARK SMILES IDX 11 1 10 2 6 3 7 4 49 5 9 6 48 7 50 8 5 9 4 10 2 11 3 12
REMARK SMILES IDX 54 13 52 14 51 15 1 16 55 17 53 19 8 21 12 23 13 24 46 25
REMARK SMILES IDX 15 26 45 27 16 28 47 29 14 30 17 32 18 33 19 34 44 35 20 36
REMARK SMILES IDX 23 37 21 38 24 39 27 40 25 41 28 42 26 43 29 44 42 45 31 46
REMARK SMILES IDX 41 47 33 48 40 49 22 50 32 51 30 52 43 54 34 56 35 57 39 58
REMARK SMILES IDX 36 59 38 60 37 61
REMARK H PARENT 55 18 53 20 8 22 14 31 30 53 43 55
ROOT
ATOM      1  O   UNL     1      24.010  61.031  40.281  1.00  0.00    -0.344 OA
ENDROOT
BRANCH   1   2
ATOM      2  C   UNL     1      22.935  60.362  39.638  1.00  0.00     0.253 C 
ATOM      3  C   UNL     1      21.890  61.809  37.324  1.00  0.00     0.179 C 
ATOM      4  C   UNL     1      21.720  62.369  38.770  1.00  0.00     0.151 C 
ATOM      5  C   UNL     1      22.335  60.314  37.356  1.00  0.00     0.150 C 
ATOM      6  C   UNL     1      21.646  61.225  39.782  1.00  0.00     0.096 C 
ATOM      7  O   UNL     1      23.361  60.125  38.301  1.00  0.00    -0.347 OA
ATOM      8  C   UNL     1      22.852  59.835  36.005  1.00  0.00     0.041 C 
BRANCH   3   9
ATOM      9  O   UNL     1      20.676  61.915  36.572  1.00  0.00    -0.344 OA
BRANCH   9  10
ATOM     10  C   UNL     1      20.840  62.613  35.340  1.00  0.00     0.253 C 
ATOM     11  C   UNL     1      19.854  64.501  34.158  1.00  0.00     0.149 C 
ATOM     12  O   UNL     1      20.157  63.869  35.423  1.00  0.00    -0.347 OA
ATOM     13  C   UNL     1      20.731  63.977  32.976  1.00  0.00     0.172 C 
ATOM     14  C   UNL     1      20.595  62.432  32.845  1.00  0.00     0.150 C 
ATOM     15  C   UNL     1      20.269  61.763  34.200  1.00  0.00     0.096 C 
ATOM     16  C   UNL     1      18.355  64.417  33.842  1.00  0.00     0.041 C 
BRANCH  13  17
ATOM     17  O   UNL     1      22.094  64.323  33.157  1.00  0.00    -0.388 OA
ATOM     18  H   UNL     1      22.514  64.590  32.297  1.00  0.00     0.211 HD
ENDBRANCH  13  17
BRANCH  14  19
ATOM     19  O   UNL     1      21.763  61.892  32.270  1.00  0.00    -0.390 OA
ATOM     20  H   UNL     1      21.818  62.198  31.329  1.00  0.00     0.211 HD
ENDBRANCH  14  19
ENDBRANCH   9  10
ENDBRANCH   3   9
BRANCH   4  21
ATOM     21  O   UNL     1      20.636  63.259  38.876  1.00  0.00    -0.390 OA
ATOM     22  H   UNL     1      19.829  62.791  38.537  1.00  0.00     0.211 HD
ENDBRANCH   4  21
ENDBRANCH   1   2
BRANCH   1  23
ATOM     23  C   UNL     1      25.165  60.219  40.421  1.00  0.00     0.179 C 
ATOM     24  C   UNL     1      26.363  61.059  40.931  1.00  0.00     0.151 C 
ATOM     25  C   UNL     1      24.851  58.998  41.337  1.00  0.00     0.150 C 
ATOM     26  C   UNL     1      27.430  60.065  41.380  1.00  0.00     0.096 C 
ATOM     27  O   UNL     1      25.470  59.088  42.608  1.00  0.00    -0.347 OA
ATOM     28  C   UNL     1      26.889  59.239  42.573  1.00  0.00     0.253 C 
ATOM     29  C   UNL     1      25.144  57.647  40.663  1.00  0.00     0.041 C 
BRANCH  24  30
ATOM     30  O   UNL     1      26.036  61.954  41.971  1.00  0.00    -0.390 OA
ATOM     31  H   UNL     1      26.296  62.873  41.710  1.00  0.00     0.211 HD
ENDBRANCH  24  30
BRANCH  28  32
ATOM     32  O   UNL     1      27.473  57.952  42.566  1.00  0.00    -0.349 OA
BRANCH  32  33
ATOM     33  C   UNL     1      26.987  57.072  43.559  1.00  0.00     0.121 C 
ATOM     34  C   UNL     1      27.162  55.621  43.053  1.00  0.00     0.033 C 
ATOM     35  C   UNL     1      27.806  57.301  44.831  1.00  0.00     0.036 C 
ATOM     36  C   UNL     1      28.358  54.880  43.694  1.00  0.00     0.010 C 
ATOM     37  C   UNL     1      29.338  57.098  44.545  1.00  0.00    -0.002 C 
ATOM     38  C   UNL     1      29.661  55.729  43.776  1.00  0.00    -0.026 C 
ATOM     39  C   UNL     1      30.127  57.297  45.852  1.00  0.00     0.005 C 
ATOM     40  C   UNL     1      30.866  54.904  44.444  1.00  0.00     0.004 C 
ATOM     41  C   UNL     1      30.108  56.025  46.685  1.00  0.00     0.007 C 
ATOM     42  C   UNL     1      31.082  53.480  43.869  1.00  0.00     0.037 C 
ATOM     43  C   UNL     1      31.001  54.955  46.022  1.00  0.00     0.025 C 
ATOM     44  C   UNL     1      30.324  52.415  44.691  1.00  0.00     0.124 C 
ATOM     45  C   UNL     1      31.163  53.608  46.873  1.00  0.00     0.076 C 
ATOM     46  C   UNL     1      30.970  52.226  46.094  1.00  0.00     0.029 C 
ATOM     47  C   UNL     1      30.185  53.476  48.071  1.00  0.00     0.037 C 
ATOM     48  C   UNL     1      29.986  51.416  47.016  1.00  0.00     0.030 C 
ATOM     49  C   UNL     1      30.222  51.992  48.398  1.00  0.00     0.012 C 
ATOM     50  C   UNL     1      30.094  56.087  42.314  1.00  0.00     0.012 C 
ATOM     51  C   UNL     1      32.341  51.488  45.947  1.00  0.00     0.018 C 
BRANCH  44  52
ATOM     52  O   UNL     1      30.223  51.186  44.008  1.00  0.00    -0.392 OA
ATOM     53  H   UNL     1      29.343  51.143  43.554  1.00  0.00     0.210 HD
ENDBRANCH  44  52
BRANCH  45  54
ATOM     54  O   UNL     1      32.462  53.612  47.446  1.00  0.00    -0.389 OA
ATOM     55  H   UNL     1      33.136  53.516  46.722  1.00  0.00     0.211 HD
ENDBRANCH  45  54
BRANCH  48  56
ATOM     56  C   UNL     1      29.959  49.897  46.979  1.00  0.00    -0.022 C 
ATOM     57  C   UNL     1      30.352  49.144  47.998  1.00  0.00     0.096 C 
ATOM     58  C   UNL     1      29.582  48.999  45.815  1.00  0.00     0.265 C 
ATOM     59  C   UNL     1      30.233  47.781  47.558  1.00  0.00     0.331 C 
ATOM     60  O   UNL     1      29.792  47.719  46.286  1.00  0.00    -0.458 OA
ATOM     61  O   UNL     1      30.506  46.798  48.225  1.00  0.00    -0.247 OA
ENDBRANCH  48  56
ENDBRANCH  32  33
ENDBRANCH  28  32
ENDBRANCH   1  23
TORSDOF 13
ENDMDL
MODEL 6
REMARK VINA RESULT:   -12.550      1.894      3.598
REMARK INTER + INTRA:         -21.571
REMARK INTER:                 -19.877
REMARK INTRA:                  -1.694
REMARK UNBOUND:                -1.684
REMARK SMILES C[C@H]1O[C@@H](O[C@H]2[C@@H](O)C[C@H](O[C@H]3[C@@H](O)C[C@H](O[C@H]4CC[C@@]5(C)[C@H](CC[C@@H]6[C@H]5C[C@@H](O)[C@]5(C)[C@@H](C7=CC(=O)OC7)CC[C@]65O)C4)O[C@@H]3C)O[C@@H]2C)C[C@H](O)[C@@H]1O
REMARK SMILES IDX 11 1 10 2 6 3 7 4 49 5 9 6 48 7 50 8 5 9 4 10 2 11 3 12
REMARK SMILES IDX 54 13 52 14 51 15 1 16 55 17 53 19 8 21 12 23 13 24 46 25
REMARK SMILES IDX 15 26 45 27 16 28 47 29 14 30 17 32 18 33 19 34 44 35 20 36
REMARK SMILES IDX 23 37 21 38 24 39 27 40 25 41 28 42 26 43 29 44 42 45 31 46
REMARK SMILES IDX 41 47 33 48 40 49 22 50 32 51 30 52 43 54 34 56 35 57 39 58
REMARK SMILES IDX 36 59 38 60 37 61
REMARK H PARENT 55 18 53 20 8 22 14 31 30 53 43 55
ROOT
ATOM      1  O   UNL     1      24.221  60.901  40.314  1.00  0.00    -0.344 OA
ENDROOT
BRANCH   1   2
ATOM      2  C   UNL     1      23.213  60.182  39.619  1.00  0.00     0.253 C 
ATOM      3  C   UNL     1      22.055  61.676  37.390  1.00  0.00     0.179 C 
ATOM      4  C   UNL     1      21.829  62.126  38.867  1.00  0.00     0.151 C 
ATOM      5  C   UNL     1      22.631  60.227  37.332  1.00  0.00     0.150 C 
ATOM      6  C   UNL     1      21.852  60.917  39.804  1.00  0.00     0.096 C 
ATOM      7  O   UNL     1      23.665  60.070  38.274  1.00  0.00    -0.347 OA
ATOM      8  C   UNL     1      23.195  59.883  35.959  1.00  0.00     0.041 C 
BRANCH   3   9
ATOM      9  O   UNL     1      20.841  61.722  36.633  1.00  0.00    -0.344 OA
BRANCH   9  10
ATOM     10  C   UNL     1      20.960  62.474  35.428  1.00  0.00     0.253 C 
ATOM     11  C   UNL     1      19.926  64.406  34.364  1.00  0.00     0.149 C 
ATOM     12  O   UNL     1      20.274  63.721  35.589  1.00  0.00    -0.347 OA
ATOM     13  C   UNL     1      20.765  63.940  33.132  1.00  0.00     0.172 C 
ATOM     14  C   UNL     1      20.634  62.402  32.937  1.00  0.00     0.150 C 
ATOM     15  C   UNL     1      20.356  61.672  34.271  1.00  0.00     0.096 C 
ATOM     16  C   UNL     1      18.417  64.326  34.094  1.00  0.00     0.041 C 
BRANCH  13  17
ATOM     17  O   UNL     1      22.132  64.287  33.283  1.00  0.00    -0.388 OA
ATOM     18  H   UNL     1      22.290  64.756  34.145  1.00  0.00     0.211 HD
ENDBRANCH  13  17
BRANCH  14  19
ATOM     19  O   UNL     1      21.785  61.896  32.301  1.00  0.00    -0.390 OA
ATOM     20  H   UNL     1      22.418  62.645  32.157  1.00  0.00     0.211 HD
ENDBRANCH  14  19
ENDBRANCH   9  10
ENDBRANCH   3   9
BRANCH   4  21
ATOM     21  O   UNL     1      20.670  62.907  39.017  1.00  0.00    -0.390 OA
ATOM     22  H   UNL     1      20.913  63.848  38.811  1.00  0.00     0.211 HD
ENDBRANCH   4  21
ENDBRANCH   1   2
BRANCH   1  23
ATOM     23  C   UNL     1      25.438  60.181  40.429  1.00  0.00     0.179 C 
ATOM     24  C   UNL     1      26.619  61.146  40.701  1.00  0.00     0.151 C 
ATOM     25  C   UNL     1      25.302  59.072  41.515  1.00  0.00     0.150 C 
ATOM     26  C   UNL     1      27.791  60.282  41.151  1.00  0.00     0.096 C 
ATOM     27  O   UNL     1      26.036  59.360  42.692  1.00  0.00    -0.347 OA
ATOM     28  C   UNL     1      27.430  59.586  42.488  1.00  0.00     0.253 C 
ATOM     29  C   UNL     1      25.621  57.664  40.983  1.00  0.00     0.041 C 
BRANCH  24  30
ATOM     30  O   UNL     1      26.334  62.148  41.653  1.00  0.00    -0.390 OA
ATOM     31  H   UNL     1      26.391  63.038  41.223  1.00  0.00     0.211 HD
ENDBRANCH  24  30
BRANCH  28  32
ATOM     32  O   UNL     1      28.099  58.344  42.575  1.00  0.00    -0.349 OA
BRANCH  32  33
ATOM     33  C   UNL     1      29.115  58.284  43.556  1.00  0.00     0.121 C 
ATOM     34  C   UNL     1      28.456  58.427  44.948  1.00  0.00     0.033 C 
ATOM     35  C   UNL     1      29.811  56.927  43.429  1.00  0.00     0.036 C 
ATOM     36  C   UNL     1      28.331  57.092  45.717  1.00  0.00     0.010 C 
ATOM     37  C   UNL     1      28.772  55.757  43.566  1.00  0.00    -0.002 C 
ATOM     38  C   UNL     1      27.821  55.905  44.848  1.00  0.00    -0.026 C 
ATOM     39  C   UNL     1      29.511  54.410  43.472  1.00  0.00     0.005 C 
ATOM     40  C   UNL     1      27.706  54.550  45.703  1.00  0.00     0.004 C 
ATOM     41  C   UNL     1      30.116  54.039  44.816  1.00  0.00     0.007 C 
ATOM     42  C   UNL     1      26.970  54.692  47.061  1.00  0.00     0.037 C 
ATOM     43  C   UNL     1      28.995  53.633  45.797  1.00  0.00     0.025 C 
ATOM     44  C   UNL     1      27.959  54.958  48.216  1.00  0.00     0.124 C 
ATOM     45  C   UNL     1      29.516  53.099  47.214  1.00  0.00     0.076 C 
ATOM     46  C   UNL     1      28.817  53.696  48.521  1.00  0.00     0.029 C 
ATOM     47  C   UNL     1      31.027  53.338  47.482  1.00  0.00     0.037 C 
ATOM     48  C   UNL     1      30.029  54.099  49.438  1.00  0.00     0.030 C 
ATOM     49  C   UNL     1      31.149  53.181  48.988  1.00  0.00     0.012 C 
ATOM     50  C   UNL     1      26.381  56.262  44.343  1.00  0.00     0.012 C 
ATOM     51  C   UNL     1      27.927  52.608  49.207  1.00  0.00     0.018 C 
BRANCH  44  52
ATOM     52  O   UNL     1      27.310  55.423  49.377  1.00  0.00    -0.392 OA
ATOM     53  H   UNL     1      26.421  54.987  49.445  1.00  0.00     0.210 HD
ENDBRANCH  44  52
BRANCH  45  54
ATOM     54  O   UNL     1      29.350  51.688  47.232  1.00  0.00    -0.389 OA
ATOM     55  H   UNL     1      28.577  51.460  47.813  1.00  0.00     0.211 HD
ENDBRANCH  45  54
BRANCH  48  56
ATOM     56  C   UNL     1      29.870  54.181  50.946  1.00  0.00    -0.022 C 
ATOM     57  C   UNL     1      29.702  55.328  51.593  1.00  0.00     0.096 C 
ATOM     58  C   UNL     1      29.951  53.050  51.955  1.00  0.00     0.265 C 
ATOM     59  C   UNL     1      29.652  54.995  52.991  1.00  0.00     0.331 C 
ATOM     60  O   UNL     1      29.806  53.670  53.179  1.00  0.00    -0.458 OA
ATOM     61  O   UNL     1      29.508  55.794  53.900  1.00  0.00    -0.247 OA
ENDBRANCH  48  56
ENDBRANCH  32  33
ENDBRANCH  28  32
ENDBRANCH   1  23
TORSDOF 13
ENDMDL
MODEL 7
REMARK VINA RESULT:   -11.996      3.429      5.399
REMARK INTER + INTRA:         -20.693
REMARK INTER:                 -19.294
REMARK INTRA:                  -1.398
REMARK UNBOUND:                -1.684
REMARK SMILES C[C@H]1O[C@@H](O[C@H]2[C@@H](O)C[C@H](O[C@H]3[C@@H](O)C[C@H](O[C@H]4CC[C@@]5(C)[C@H](CC[C@@H]6[C@H]5C[C@@H](O)[C@]5(C)[C@@H](C7=CC(=O)OC7)CC[C@]65O)C4)O[C@@H]3C)O[C@@H]2C)C[C@H](O)[C@@H]1O
REMARK SMILES IDX 11 1 10 2 6 3 7 4 49 5 9 6 48 7 50 8 5 9 4 10 2 11 3 12
REMARK SMILES IDX 54 13 52 14 51 15 1 16 55 17 53 19 8 21 12 23 13 24 46 25
REMARK SMILES IDX 15 26 45 27 16 28 47 29 14 30 17 32 18 33 19 34 44 35 20 36
REMARK SMILES IDX 23 37 21 38 24 39 27 40 25 41 28 42 26 43 29 44 42 45 31 46
REMARK SMILES IDX 41 47 33 48 40 49 22 50 32 51 30 52 43 54 34 56 35 57 39 58
REMARK SMILES IDX 36 59 38 60 37 61
REMARK H PARENT 55 18 53 20 8 22 14 31 30 53 43 55
ROOT
ATOM      1  O   UNL     1      24.240  60.527  40.116  1.00  0.00    -0.344 OA
ENDROOT
BRANCH   1   2
ATOM      2  C   UNL     1      23.163  59.932  39.408  1.00  0.00     0.253 C 
ATOM      3  C   UNL     1      22.023  61.674  37.358  1.00  0.00     0.179 C 
ATOM      4  C   UNL     1      21.881  62.013  38.874  1.00  0.00     0.151 C 
ATOM      5  C   UNL     1      22.502  60.203  37.159  1.00  0.00     0.150 C 
ATOM      6  C   UNL     1      21.860  60.731  39.709  1.00  0.00     0.096 C 
ATOM      7  O   UNL     1      23.557  59.904  38.041  1.00  0.00    -0.347 OA
ATOM      8  C   UNL     1      22.991  59.939  35.741  1.00  0.00     0.041 C 
BRANCH   3   9
ATOM      9  O   UNL     1      20.788  61.857  36.659  1.00  0.00    -0.344 OA
BRANCH   9  10
ATOM     10  C   UNL     1      20.931  62.606  35.454  1.00  0.00     0.253 C 
ATOM     11  C   UNL     1      19.929  64.543  34.369  1.00  0.00     0.149 C 
ATOM     12  O   UNL     1      20.253  63.859  35.601  1.00  0.00    -0.347 OA
ATOM     13  C   UNL     1      20.783  64.067  33.151  1.00  0.00     0.172 C 
ATOM     14  C   UNL     1      20.643  62.530  32.958  1.00  0.00     0.150 C 
ATOM     15  C   UNL     1      20.339  61.806  34.289  1.00  0.00     0.096 C 
ATOM     16  C   UNL     1      18.424  64.475  34.076  1.00  0.00     0.041 C 
BRANCH  13  17
ATOM     17  O   UNL     1      22.150  64.404  33.323  1.00  0.00    -0.388 OA
ATOM     18  H   UNL     1      22.735  63.832  32.759  1.00  0.00     0.211 HD
ENDBRANCH  13  17
BRANCH  14  19
ATOM     19  O   UNL     1      21.799  62.013  32.341  1.00  0.00    -0.390 OA
ATOM     20  H   UNL     1      21.518  61.397  31.617  1.00  0.00     0.211 HD
ENDBRANCH  14  19
ENDBRANCH   9  10
ENDBRANCH   3   9
BRANCH   4  21
ATOM     21  O   UNL     1      20.782  62.849  39.135  1.00  0.00    -0.390 OA
ATOM     22  H   UNL     1      20.082  62.297  39.572  1.00  0.00     0.211 HD
ENDBRANCH   4  21
ENDBRANCH   1   2
BRANCH   1  23
ATOM     23  C   UNL     1      25.088  59.575  40.741  1.00  0.00     0.179 C 
ATOM     24  C   UNL     1      26.535  59.698  40.202  1.00  0.00     0.151 C 
ATOM     25  C   UNL     1      25.006  59.724  42.290  1.00  0.00     0.150 C 
ATOM     26  C   UNL     1      27.422  58.905  41.156  1.00  0.00     0.096 C 
ATOM     27  O   UNL     1      26.182  60.279  42.853  1.00  0.00    -0.347 OA
ATOM     28  C   UNL     1      27.381  59.564  42.558  1.00  0.00     0.253 C 
ATOM     29  C   UNL     1      24.602  58.421  43.001  1.00  0.00     0.041 C 
BRANCH  24  30
ATOM     30  O   UNL     1      26.991  61.027  40.073  1.00  0.00    -0.390 OA
ATOM     31  H   UNL     1      27.093  61.250  39.115  1.00  0.00     0.211 HD
ENDBRANCH  24  30
BRANCH  28  32
ATOM     32  O   UNL     1      27.569  58.579  43.554  1.00  0.00    -0.349 OA
BRANCH  32  33
ATOM     33  C   UNL     1      28.897  58.453  44.022  1.00  0.00     0.121 C 
ATOM     34  C   UNL     1      29.226  59.688  44.893  1.00  0.00     0.033 C 
ATOM     35  C   UNL     1      28.982  57.171  44.853  1.00  0.00     0.036 C 
ATOM     36  C   UNL     1      29.196  59.403  46.412  1.00  0.00     0.010 C 
ATOM     37  C   UNL     1      27.932  57.200  46.022  1.00  0.00    -0.002 C 
ATOM     38  C   UNL     1      27.974  58.557  46.875  1.00  0.00    -0.026 C 
ATOM     39  C   UNL     1      28.072  55.916  46.860  1.00  0.00     0.005 C 
ATOM     40  C   UNL     1      27.996  58.300  48.460  1.00  0.00     0.004 C 
ATOM     41  C   UNL     1      29.204  56.055  47.865  1.00  0.00     0.007 C 
ATOM     42  C   UNL     1      28.245  59.563  49.325  1.00  0.00     0.037 C 
ATOM     43  C   UNL     1      28.787  57.032  48.985  1.00  0.00     0.025 C 
ATOM     44  C   UNL     1      29.742  59.737  49.656  1.00  0.00     0.124 C 
ATOM     45  C   UNL     1      29.851  57.167  50.175  1.00  0.00     0.076 C 
ATOM     46  C   UNL     1      30.226  58.645  50.653  1.00  0.00     0.029 C 
ATOM     47  C   UNL     1      31.236  56.529  49.883  1.00  0.00     0.037 C 
ATOM     48  C   UNL     1      31.798  58.633  50.692  1.00  0.00     0.030 C 
ATOM     49  C   UNL     1      32.148  57.174  50.913  1.00  0.00     0.012 C 
ATOM     50  C   UNL     1      26.675  59.371  46.551  1.00  0.00     0.012 C 
ATOM     51  C   UNL     1      29.629  58.926  52.071  1.00  0.00     0.018 C 
BRANCH  44  52
ATOM     52  O   UNL     1      30.037  61.029  50.137  1.00  0.00    -0.392 OA
ATOM     53  H   UNL     1      30.684  61.460  49.521  1.00  0.00     0.210 HD
ENDBRANCH  44  52
BRANCH  45  54
ATOM     54  O   UNL     1      29.338  56.458  51.295  1.00  0.00    -0.389 OA
ATOM     55  H   UNL     1      29.124  55.528  51.019  1.00  0.00     0.211 HD
ENDBRANCH  45  54
BRANCH  48  56
ATOM     56  C   UNL     1      32.561  59.591  51.591  1.00  0.00    -0.022 C 
ATOM     57  C   UNL     1      32.847  59.318  52.857  1.00  0.00     0.096 C 
ATOM     58  C   UNL     1      33.042  60.993  51.264  1.00  0.00     0.265 C 
ATOM     59  C   UNL     1      33.515  60.482  53.376  1.00  0.00     0.331 C 
ATOM     60  O   UNL     1      33.610  61.444  52.438  1.00  0.00    -0.458 OA
ATOM     61  O   UNL     1      33.930  60.606  54.515  1.00  0.00    -0.247 OA
ENDBRANCH  48  56
ENDBRANCH  32  33
ENDBRANCH  28  32
ENDBRANCH   1  23
TORSDOF 13
ENDMDL
MODEL 8
REMARK VINA RESULT:   -11.611      4.640      6.809
REMARK INTER + INTRA:         -20.083
REMARK INTER:                 -19.259
REMARK INTRA:                  -0.823
REMARK UNBOUND:                -1.684
REMARK SMILES C[C@H]1O[C@@H](O[C@H]2[C@@H](O)C[C@H](O[C@H]3[C@@H](O)C[C@H](O[C@H]4CC[C@@]5(C)[C@H](CC[C@@H]6[C@H]5C[C@@H](O)[C@]5(C)[C@@H](C7=CC(=O)OC7)CC[C@]65O)C4)O[C@@H]3C)O[C@@H]2C)C[C@H](O)[C@@H]1O
REMARK SMILES IDX 11 1 10 2 6 3 7 4 49 5 9 6 48 7 50 8 5 9 4 10 2 11 3 12
REMARK SMILES IDX 54 13 52 14 51 15 1 16 55 17 53 19 8 21 12 23 13 24 46 25
REMARK SMILES IDX 15 26 45 27 16 28 47 29 14 30 17 32 18 33 19 34 44 35 20 36
REMARK SMILES IDX 23 37 21 38 24 39 27 40 25 41 28 42 26 43 29 44 42 45 31 46
REMARK SMILES IDX 41 47 33 48 40 49 22 50 32 51 30 52 43 54 34 56 35 57 39 58
REMARK SMILES IDX 36 59 38 60 37 61
REMARK H PARENT 55 18 53 20 8 22 14 31 30 53 43 55
ROOT
ATOM      1  O   UNL     1      23.858  59.746  39.025  1.00  0.00    -0.344 OA
ENDROOT
BRANCH   1   2
ATOM      2  C   UNL     1      23.495  60.743  38.081  1.00  0.00     0.253 C 
ATOM      3  C   UNL     1      20.612  60.916  37.635  1.00  0.00     0.179 C 
ATOM      4  C   UNL     1      21.424  59.661  37.186  1.00  0.00     0.151 C 
ATOM      5  C   UNL     1      21.566  62.099  37.986  1.00  0.00     0.150 C 
ATOM      6  C   UNL     1      22.861  60.051  36.838  1.00  0.00     0.096 C 
ATOM      7  O   UNL     1      22.642  61.648  38.773  1.00  0.00    -0.347 OA
ATOM      8  C   UNL     1      20.857  63.206  38.756  1.00  0.00     0.041 C 
BRANCH   3   9
ATOM      9  O   UNL     1      19.699  61.344  36.619  1.00  0.00    -0.344 OA
BRANCH   9  10
ATOM     10  C   UNL     1      20.326  62.093  35.580  1.00  0.00     0.253 C 
ATOM     11  C   UNL     1      19.981  64.168  34.352  1.00  0.00     0.149 C 
ATOM     12  O   UNL     1      19.789  63.420  35.575  1.00  0.00    -0.347 OA
ATOM     13  C   UNL     1      21.134  63.610  33.459  1.00  0.00     0.172 C 
ATOM     14  C   UNL     1      20.888  62.109  33.131  1.00  0.00     0.150 C 
ATOM     15  C   UNL     1      20.071  61.402  34.237  1.00  0.00     0.096 C 
ATOM     16  C   UNL     1      18.666  64.304  33.574  1.00  0.00     0.041 C 
BRANCH  13  17
ATOM     17  O   UNL     1      22.393  63.760  34.094  1.00  0.00    -0.388 OA
ATOM     18  H   UNL     1      22.582  64.715  34.295  1.00  0.00     0.211 HD
ENDBRANCH  13  17
BRANCH  14  19
ATOM     19  O   UNL     1      22.116  61.458  32.900  1.00  0.00    -0.390 OA
ATOM     20  H   UNL     1      22.368  60.964  33.723  1.00  0.00     0.211 HD
ENDBRANCH  14  19
ENDBRANCH   9  10
ENDBRANCH   3   9
BRANCH   4  21
ATOM     21  O   UNL     1      20.786  58.953  36.152  1.00  0.00    -0.390 OA
ATOM     22  H   UNL     1      20.636  58.025  36.472  1.00  0.00     0.211 HD
ENDBRANCH   4  21
ENDBRANCH   1   2
BRANCH   1  23
ATOM     23  C   UNL     1      25.116  59.990  39.634  1.00  0.00     0.179 C 
ATOM     24  C   UNL     1      25.066  61.282  40.489  1.00  0.00     0.151 C 
ATOM     25  C   UNL     1      25.565  58.742  40.452  1.00  0.00     0.150 C 
ATOM     26  C   UNL     1      26.315  61.271  41.364  1.00  0.00     0.096 C 
ATOM     27  O   UNL     1      25.499  58.948  41.853  1.00  0.00    -0.347 OA
ATOM     28  C   UNL     1      26.253  60.061  42.329  1.00  0.00     0.253 C 
ATOM     29  C   UNL     1      26.942  58.205  40.026  1.00  0.00     0.041 C 
BRANCH  24  30
ATOM     30  O   UNL     1      23.900  61.407  41.273  1.00  0.00    -0.390 OA
ATOM     31  H   UNL     1      24.060  61.015  42.168  1.00  0.00     0.211 HD
ENDBRANCH  24  30
BRANCH  28  32
ATOM     32  O   UNL     1      27.562  59.619  42.625  1.00  0.00    -0.349 OA
BRANCH  32  33
ATOM     33  C   UNL     1      28.480  60.646  42.942  1.00  0.00     0.121 C 
ATOM     34  C   UNL     1      28.250  61.068  44.412  1.00  0.00     0.033 C 
ATOM     35  C   UNL     1      29.892  60.087  42.758  1.00  0.00     0.036 C 
ATOM     36  C   UNL     1      29.307  60.509  45.392  1.00  0.00     0.010 C 
ATOM     37  C   UNL     1      30.098  58.803  43.640  1.00  0.00    -0.002 C 
ATOM     38  C   UNL     1      29.650  59.007  45.166  1.00  0.00    -0.026 C 
ATOM     39  C   UNL     1      31.539  58.291  43.461  1.00  0.00     0.005 C 
ATOM     40  C   UNL     1      30.748  58.485  46.216  1.00  0.00     0.004 C 
ATOM     41  C   UNL     1      32.495  59.065  44.354  1.00  0.00     0.007 C 
ATOM     42  C   UNL     1      30.461  58.846  47.697  1.00  0.00     0.037 C 
ATOM     43  C   UNL     1      32.274  58.660  45.828  1.00  0.00     0.025 C 
ATOM     44  C   UNL     1      31.161  60.158  48.107  1.00  0.00     0.124 C 
ATOM     45  C   UNL     1      33.310  59.317  46.857  1.00  0.00     0.076 C 
ATOM     46  C   UNL     1      32.704  59.970  48.184  1.00  0.00     0.029 C 
ATOM     47  C   UNL     1      34.176  60.461  46.265  1.00  0.00     0.037 C 
ATOM     48  C   UNL     1      33.398  61.379  48.253  1.00  0.00     0.030 C 
ATOM     49  C   UNL     1      34.698  61.184  47.496  1.00  0.00     0.012 C 
ATOM     50  C   UNL     1      28.344  58.174  45.402  1.00  0.00     0.012 C 
ATOM     51  C   UNL     1      33.066  59.100  49.433  1.00  0.00     0.018 C 
BRANCH  44  52
ATOM     52  O   UNL     1      30.653  60.680  49.314  1.00  0.00    -0.392 OA
ATOM     53  H   UNL     1      29.708  60.947  49.175  1.00  0.00     0.210 HD
ENDBRANCH  44  52
BRANCH  45  54
ATOM     54  O   UNL     1      34.232  58.308  47.245  1.00  0.00    -0.389 OA
ATOM     55  H   UNL     1      34.032  57.475  46.740  1.00  0.00     0.211 HD
ENDBRANCH  45  54
BRANCH  48  56
ATOM     56  C   UNL     1      33.563  62.101  49.579  1.00  0.00    -0.022 C 
ATOM     57  C   UNL     1      34.685  62.065  50.286  1.00  0.00     0.096 C 
ATOM     58  C   UNL     1      32.515  62.885  50.351  1.00  0.00     0.265 C 
ATOM     59  C   UNL     1      34.425  62.811  51.488  1.00  0.00     0.331 C 
ATOM     60  O   UNL     1      33.159  63.270  51.509  1.00  0.00    -0.458 OA
ATOM     61  O   UNL     1      35.226  62.998  52.388  1.00  0.00    -0.247 OA
ENDBRANCH  48  56
ENDBRANCH  32  33
ENDBRANCH  28  32
ENDBRANCH   1  23
TORSDOF 13
ENDMDL
MODEL 9
REMARK VINA RESULT:   -11.361      4.300      5.587
REMARK INTER + INTRA:         -19.687
REMARK INTER:                 -18.164
REMARK INTRA:                  -1.523
REMARK UNBOUND:                -1.684
REMARK SMILES C[C@H]1O[C@@H](O[C@H]2[C@@H](O)C[C@H](O[C@H]3[C@@H](O)C[C@H](O[C@H]4CC[C@@]5(C)[C@H](CC[C@@H]6[C@H]5C[C@@H](O)[C@]5(C)[C@@H](C7=CC(=O)OC7)CC[C@]65O)C4)O[C@@H]3C)O[C@@H]2C)C[C@H](O)[C@@H]1O
REMARK SMILES IDX 11 1 10 2 6 3 7 4 49 5 9 6 48 7 50 8 5 9 4 10 2 11 3 12
REMARK SMILES IDX 54 13 52 14 51 15 1 16 55 17 53 19 8 21 12 23 13 24 46 25
REMARK SMILES IDX 15 26 45 27 16 28 47 29 14 30 17 32 18 33 19 34 44 35 20 36
REMARK SMILES IDX 23 37 21 38 24 39 27 40 25 41 28 42 26 43 29 44 42 45 31 46
REMARK SMILES IDX 41 47 33 48 40 49 22 50 32 51 30 52 43 54 34 56 35 57 39 58
REMARK SMILES IDX 36 59 38 60 37 61
REMARK H PARENT 55 18 53 20 8 22 14 31 30 53 43 55
ROOT
ATOM      1  O   UNL     1      24.570  59.978  40.206  1.00  0.00    -0.344 OA
ENDROOT
BRANCH   1   2
ATOM      2  C   UNL     1      23.642  61.021  40.464  1.00  0.00     0.253 C 
ATOM      3  C   UNL     1      22.311  62.007  38.056  1.00  0.00     0.179 C 
ATOM      4  C   UNL     1      23.838  62.233  38.283  1.00  0.00     0.151 C 
ATOM      5  C   UNL     1      21.616  61.544  39.374  1.00  0.00     0.150 C 
ATOM      6  C   UNL     1      24.149  62.326  39.778  1.00  0.00     0.096 C 
ATOM      7  O   UNL     1      22.379  60.548  40.010  1.00  0.00    -0.347 OA
ATOM      8  C   UNL     1      20.224  60.975  39.125  1.00  0.00     0.041 C 
BRANCH   3   9
ATOM      9  O   UNL     1      21.667  63.196  37.586  1.00  0.00    -0.344 OA
BRANCH   9  10
ATOM     10  C   UNL     1      21.268  63.114  36.220  1.00  0.00     0.253 C 
ATOM     11  C   UNL     1      19.229  63.256  34.894  1.00  0.00     0.149 C 
ATOM     12  O   UNL     1      19.944  63.645  36.089  1.00  0.00    -0.347 OA
ATOM     13  C   UNL     1      20.164  62.753  33.748  1.00  0.00     0.172 C 
ATOM     14  C   UNL     1      21.046  61.572  34.248  1.00  0.00     0.150 C 
ATOM     15  C   UNL     1      21.309  61.651  35.769  1.00  0.00     0.096 C 
ATOM     16  C   UNL     1      18.119  62.246  35.215  1.00  0.00     0.041 C 
BRANCH  13  17
ATOM     17  O   UNL     1      20.992  63.798  33.267  1.00  0.00    -0.388 OA
ATOM     18  H   UNL     1      21.270  63.633  32.327  1.00  0.00     0.211 HD
ENDBRANCH  13  17
BRANCH  14  19
ATOM     19  O   UNL     1      22.250  61.526  33.517  1.00  0.00    -0.390 OA
ATOM     20  H   UNL     1      22.440  60.580  33.288  1.00  0.00     0.211 HD
ENDBRANCH  14  19
ENDBRANCH   9  10
ENDBRANCH   3   9
BRANCH   4  21
ATOM     21  O   UNL     1      24.331  63.331  37.557  1.00  0.00    -0.390 OA
ATOM     22  H   UNL     1      25.281  63.458  37.813  1.00  0.00     0.211 HD
ENDBRANCH   4  21
ENDBRANCH   1   2
BRANCH   1  23
ATOM     23  C   UNL     1      25.203  59.494  41.380  1.00  0.00     0.179 C 
ATOM     24  C   UNL     1      24.813  58.018  41.641  1.00  0.00     0.151 C 
ATOM     25  C   UNL     1      26.743  59.703  41.281  1.00  0.00     0.150 C 
ATOM     26  C   UNL     1      25.788  57.490  42.687  1.00  0.00     0.096 C 
ATOM     27  O   UNL     1      27.454  58.491  41.097  1.00  0.00    -0.347 OA
ATOM     28  C   UNL     1      27.223  57.505  42.103  1.00  0.00     0.253 C 
ATOM     29  C   UNL     1      27.318  60.521  42.450  1.00  0.00     0.041 C 
BRANCH  24  30
ATOM     30  O   UNL     1      24.823  57.207  40.485  1.00  0.00    -0.390 OA
ATOM     31  H   UNL     1      23.970  57.319  39.996  1.00  0.00     0.211 HD
ENDBRANCH  24  30
BRANCH  28  32
ATOM     32  O   UNL     1      28.160  57.702  43.143  1.00  0.00    -0.349 OA
BRANCH  32  33
ATOM     33  C   UNL     1      28.792  56.525  43.605  1.00  0.00     0.121 C 
ATOM     34  C   UNL     1      30.053  56.280  42.744  1.00  0.00     0.033 C 
ATOM     35  C   UNL     1      29.175  56.742  45.070  1.00  0.00     0.036 C 
ATOM     36  C   UNL     1      31.372  56.665  43.452  1.00  0.00     0.010 C 
ATOM     37  C   UNL     1      30.086  58.013  45.221  1.00  0.00    -0.002 C 
ATOM     38  C   UNL     1      31.318  58.031  44.195  1.00  0.00    -0.026 C 
ATOM     39  C   UNL     1      30.484  58.178  46.699  1.00  0.00     0.005 C 
ATOM     40  C   UNL     1      32.718  58.378  44.904  1.00  0.00     0.004 C 
ATOM     41  C   UNL     1      31.665  57.283  47.037  1.00  0.00     0.007 C 
ATOM     42  C   UNL     1      33.968  58.205  44.003  1.00  0.00     0.037 C 
ATOM     43  C   UNL     1      32.945  57.840  46.377  1.00  0.00     0.025 C 
ATOM     44  C   UNL     1      34.598  56.806  44.168  1.00  0.00     0.124 C 
ATOM     45  C   UNL     1      34.285  57.052  46.762  1.00  0.00     0.076 C 
ATOM     46  C   UNL     1      35.266  56.654  45.565  1.00  0.00     0.029 C 
ATOM     47  C   UNL     1      34.056  55.702  47.494  1.00  0.00     0.037 C 
ATOM     48  C   UNL     1      35.577  55.135  45.831  1.00  0.00     0.030 C 
ATOM     49  C   UNL     1      35.382  54.979  47.327  1.00  0.00     0.012 C 
ATOM     50  C   UNL     1      31.044  59.148  43.131  1.00  0.00     0.012 C 
ATOM     51  C   UNL     1      36.570  57.515  45.621  1.00  0.00     0.018 C 
BRANCH  44  52
ATOM     52  O   UNL     1      35.508  56.504  43.134  1.00  0.00    -0.392 OA
ATOM     53  H   UNL     1      36.168  57.241  43.063  1.00  0.00     0.210 HD
ENDBRANCH  44  52
BRANCH  45  54
ATOM     54  O   UNL     1      35.012  57.858  47.678  1.00  0.00    -0.389 OA
ATOM     55  H   UNL     1      34.720  58.803  47.580  1.00  0.00     0.211 HD
ENDBRANCH  45  54
BRANCH  48  56
ATOM     56  C   UNL     1      36.854  54.500  45.309  1.00  0.00    -0.022 C 
ATOM     57  C   UNL     1      38.027  54.634  45.913  1.00  0.00     0.096 C 
ATOM     58  C   UNL     1      37.044  53.708  44.027  1.00  0.00     0.265 C 
ATOM     59  C   UNL     1      38.984  53.946  45.089  1.00  0.00     0.331 C 
ATOM     60  O   UNL     1      38.394  53.423  43.996  1.00  0.00    -0.458 OA
ATOM     61  O   UNL     1      40.176  53.853  45.323  1.00  0.00    -0.247 OA
ENDBRANCH  48  56
ENDBRANCH  32  33
ENDBRANCH  28  32
ENDBRANCH   1  23
TORSDOF 13
ENDMDL
