REMARK  Name = 
REMARK  11 active torsions:
REMARK  status: ('A' for Active; 'I' for Inactive)
REMARK    1  A    between atoms: C_1  and  C_2
REMARK    2  A    between atoms: C_17  and  O_18
REMARK    3  A    between atoms: O_18  and  C_19
REMARK    4  A    between atoms: C_21  and  C_22
REMARK    5  A    between atoms: C_22  and  O_23
REMARK    6  A    between atoms: C_24  and  O_25
REMARK    7  A    between atoms: C_26  and  O_27
REMARK    8  A    between atoms: C_28  and  O_29
REMARK    9  A    between atoms: C_32  and  C_33
REMARK   10  A    between atoms: C_38  and  C_39
REMARK   11  A    between atoms: C_41  and  C_42
REMARK                            x       y       z     vdW  Elec       q    Type
REMARK                         _______ _______ _______ _____ _____    ______ ____
ROOT
ATOM      1  C   UNL     1      31.461  54.993  45.230  0.00  0.00    +0.000 C 
ATOM      2  C   UNL     1      31.622  55.732  43.897  0.00  0.00    +0.000 C 
ATOM      3  C   UNL     1      30.506  55.303  42.907  0.00  0.00    +0.000 C 
ATOM      4  C   UNL     1      30.121  56.494  42.036  0.00  0.00    +0.000 C 
ATOM      5  C   UNL     1      29.575  57.631  42.980  0.00  0.00    +0.000 C 
ATOM      6  O   UNL     1      30.341  57.796  44.189  0.00  0.00    +0.000 OA
ATOM      7  C   UNL     1      31.646  57.272  44.081  0.00  0.00    +0.000 C 
ATOM      8  O   UNL     1      29.594  58.863  42.275  0.00  0.00    +0.000 OA
ATOM      9  C   UNL     1      28.512  59.617  42.779  0.00  0.00    +0.000 C 
ATOM     10  C   UNL     1      27.978  60.626  41.718  0.00  0.00    +0.000 C 
ATOM     11  C   UNL     1      26.507  60.228  41.559  0.00  0.00    +0.000 C 
ATOM     12  C   UNL     1      25.695  60.707  40.328  0.00  0.00    +0.000 C 
ATOM     13  C   UNL     1      25.626  62.251  40.293  0.00  0.00    +0.000 C 
ATOM     14  C   UNL     1      24.741  62.757  39.144  0.00  0.00    +0.000 C 
ATOM     15  C   UNL     1      23.325  62.162  39.272  0.00  0.00    +0.000 C 
ATOM     16  C   UNL     1      22.343  62.767  38.245  0.00  0.00    +0.000 C 
ATOM     17  C   UNL     1      20.927  62.238  38.528  0.00  0.00    +0.000 C 
ATOM     18  C   UNL     1      20.887  60.711  38.416  0.00  0.00    +0.000 C 
ATOM     19  C   UNL     1      21.874  60.088  39.417  0.00  0.00    +0.000 C 
ATOM     20  C   UNL     1      23.339  60.592  39.224  0.00  0.00    +0.000 C 
ATOM     21  C   UNL     1      23.882  60.051  37.861  0.00  0.00    +0.000 C 
ATOM     22  C   UNL     1      24.236  60.110  40.425  0.00  0.00    +0.000 C 
ATOM     23  C   UNL     1      24.234  58.562  40.630  0.00  0.00    +0.000 C 
ATOM     24  C   UNL     1      25.149  58.206  41.773  0.00  0.00    +0.000 C 
ATOM     25  O   UNL     1      24.729  57.615  42.757  0.00  0.00    +0.000 OA
ATOM     26  C   UNL     1      26.570  58.700  41.685  0.00  0.00    +0.000 C 
ATOM     27  C   UNL     1      27.261  57.992  40.468  0.00  0.00    +0.000 C 
ATOM     28  C   UNL     1      27.381  58.623  43.005  0.00  0.00    +0.000 C 
ATOM     29  C   UNL     1      28.085  57.330  43.361  0.00  0.00    +0.000 C 
ATOM     30  C   UNL     1      27.862  56.965  44.841  0.00  0.00    +0.000 C 
ENDROOT
BRANCH  17  31
ATOM     31  O   UNL     1      20.011  62.815  37.608  0.00  0.00    +0.000 OA
BRANCH  31  32
ATOM     32  C   UNL     1      20.118  62.254  36.305  0.00  0.00    +0.000 C 
ATOM     33  O   UNL     1      21.229  62.862  35.636  0.00  0.00    +0.000 OA
ATOM     34  C   UNL     1      21.195  62.818  34.201  0.00  0.00    +0.000 C 
ATOM     35  C   UNL     1      20.258  61.719  33.627  0.00  0.00    +0.000 C 
ATOM     36  C   UNL     1      18.810  61.854  34.176  0.00  0.00    +0.000 C 
ATOM     37  C   UNL     1      18.790  62.513  35.570  0.00  0.00    +0.000 C 
BRANCH  35  38
ATOM     38  O   UNL     1      20.797  60.485  34.040  0.00  0.00    +0.000 OA
ATOM     39  H   UNL     1      20.984  59.954  33.222  0.00  0.00    +0.000 HD
ENDBRANCH  35  38
BRANCH  36  40
ATOM     40  O   UNL     1      17.942  62.525  33.298  0.00  0.00    +0.000 OA
ATOM     41  H   UNL     1      17.180  62.875  33.820  0.00  0.00    +0.000 HD
ENDBRANCH  36  40
BRANCH  37  42
ATOM     42  O   UNL     1      17.671  62.084  36.307  0.00  0.00    +0.000 OA
ATOM     43  H   UNL     1      18.005  61.533  37.063  0.00  0.00    +0.000 HD
ENDBRANCH  37  42
BRANCH  34  44
ATOM     44  C   UNL     1      20.934  64.222  33.628  0.00  0.00    +0.000 C 
BRANCH  44  45
ATOM     45  O   UNL     1      22.080  64.704  32.980  0.00  0.00    +0.000 OA
ATOM     46  H   UNL     1      22.533  65.317  33.615  0.00  0.00    +0.000 HD
ENDBRANCH  44  45
ENDBRANCH  34  44
ENDBRANCH  31  32
ENDBRANCH  17  31
TORSDOF 7
