MODEL 1
REMARK VINA RESULT:   -12.294      0.000      0.000
REMARK INTER + INTRA:         -22.260
REMARK INTER:                 -20.559
REMARK INTRA:                  -1.701
REMARK UNBOUND:                -1.701
REMARK SMILES C[C@H]1O[C@@H](O[C@H]2CC[C@]3(C=O)[C@H]4[C@H](O)C[C@]5(C)[C@@H](C6=CC(=O)OC6)CC[C@]5(O)[C@@H]4CC[C@]3(O)C2)[C@H](O)[C@H](O)[C@H]1O[C@@H]1O[C@H](CO)[C@@H](O)[C@H](O)[C@H]1O
REMARK SMILES IDX 1 1 2 2 3 3 4 4 35 5 37 6 39 7 40 8 41 9 42 10 50 11 43 12
REMARK SMILES IDX 48 13 46 14 51 15 44 17 45 18 49 20 47 22 5 24 6 25 7 26
REMARK SMILES IDX 34 27 8 28 32 29 9 30 31 31 12 32 30 33 13 34 29 35 15 36
REMARK SMILES IDX 27 37 16 38 26 39 18 40 25 41 17 42 33 43 10 45 11 46 14 47
REMARK SMILES IDX 28 49 19 51 20 52 24 53 21 54 23 55 22 56 38 57 36 59
REMARK H PARENT 51 16 45 19 49 21 47 23 33 44 14 48 28 50 38 58 36 60
ROOT
ATOM      1  C   UNL     1      25.134  62.184  37.129  1.00  0.00     0.041 C 
ATOM      2  C   UNL     1      24.443  61.004  37.832  1.00  0.00     0.150 C 
ATOM      3  O   UNL     1      25.279  60.654  38.939  1.00  0.00    -0.344 OA
ATOM      4  C   UNL     1      24.591  59.881  39.899  1.00  0.00     0.282 C 
ATOM      5  C   UNL     1      23.526  60.738  40.625  1.00  0.00     0.202 C 
ATOM      6  C   UNL     1      22.954  61.830  39.687  1.00  0.00     0.180 C 
ATOM      7  C   UNL     1      22.955  61.340  38.235  1.00  0.00     0.181 C 
ENDROOT
BRANCH   7   8
ATOM      8  O   UNL     1      22.440  62.371  37.403  1.00  0.00    -0.341 OA
BRANCH   8   9
ATOM      9  C   UNL     1      21.517  61.948  36.418  1.00  0.00     0.282 C 
ATOM     10  O   UNL     1      21.725  62.734  35.254  1.00  0.00    -0.341 OA
ATOM     11  C   UNL     1      20.083  62.173  36.987  1.00  0.00     0.202 C 
ATOM     12  C   UNL     1      20.928  62.240  34.180  1.00  0.00     0.178 C 
ATOM     13  C   UNL     1      19.139  62.816  35.940  1.00  0.00     0.179 C 
ATOM     14  C   UNL     1      19.391  62.272  34.520  1.00  0.00     0.177 C 
BRANCH  11  15
ATOM     15  O   UNL     1      19.560  60.991  37.546  1.00  0.00    -0.385 OA
ATOM     16  H   UNL     1      19.672  60.255  36.895  1.00  0.00     0.211 HD
ENDBRANCH  11  15
BRANCH  12  17
ATOM     17  C   UNL     1      21.243  63.059  32.921  1.00  0.00     0.191 C 
BRANCH  17  18
ATOM     18  O   UNL     1      21.762  64.319  33.258  1.00  0.00    -0.394 OA
ATOM     19  H   UNL     1      21.288  64.612  34.080  1.00  0.00     0.210 HD
ENDBRANCH  17  18
ENDBRANCH  12  17
BRANCH  13  20
ATOM     20  O   UNL     1      19.300  64.221  35.926  1.00  0.00    -0.387 OA
ATOM     21  H   UNL     1      19.696  64.512  35.066  1.00  0.00     0.211 HD
ENDBRANCH  13  20
BRANCH  14  22
ATOM     22  O   UNL     1      18.788  61.014  34.330  1.00  0.00    -0.387 OA
ATOM     23  H   UNL     1      18.154  61.073  33.573  1.00  0.00     0.211 HD
ENDBRANCH  14  22
ENDBRANCH   8   9
ENDBRANCH   7   8
BRANCH   4  24
ATOM     24  O   UNL     1      25.523  59.434  40.868  1.00  0.00    -0.346 OA
BRANCH  24  25
ATOM     25  C   UNL     1      25.772  58.038  40.852  1.00  0.00     0.124 C 
ATOM     26  C   UNL     1      27.169  57.780  40.244  1.00  0.00     0.033 C 
ATOM     27  C   UNL     1      25.735  57.529  42.293  1.00  0.00     0.068 C 
ATOM     28  C   UNL     1      28.301  57.681  41.296  1.00  0.00     0.020 C 
ATOM     29  C   UNL     1      26.703  58.365  43.211  1.00  0.00     0.080 C 
ATOM     30  C   UNL     1      28.138  58.638  42.515  1.00  0.00     0.060 C 
ATOM     31  C   UNL     1      26.880  57.598  44.531  1.00  0.00     0.037 C 
ATOM     32  C   UNL     1      29.357  58.362  43.516  1.00  0.00     0.040 C 
ATOM     33  C   UNL     1      27.728  58.397  45.532  1.00  0.00     0.010 C 
ATOM     34  C   UNL     1      30.746  58.844  42.920  1.00  0.00     0.119 C 
ATOM     35  C   UNL     1      29.074  58.931  44.942  1.00  0.00     0.028 C 
ATOM     36  C   UNL     1      31.572  59.676  43.924  1.00  0.00     0.042 C 
ATOM     37  C   UNL     1      30.267  58.724  45.961  1.00  0.00     0.074 C 
ATOM     38  C   UNL     1      31.697  59.037  45.327  1.00  0.00     0.006 C 
ATOM     39  C   UNL     1      30.416  57.255  46.473  1.00  0.00     0.037 C 
ATOM     40  C   UNL     1      32.406  57.633  45.314  1.00  0.00     0.028 C 
ATOM     41  C   UNL     1      31.913  57.016  46.615  1.00  0.00     0.012 C 
ATOM     42  C   UNL     1      32.458  60.055  46.246  1.00  0.00     0.015 C 
BRANCH  29  43
ATOM     43  O   UNL     1      26.088  59.604  43.517  1.00  0.00    -0.389 OA
ATOM     44  H   UNL     1      25.662  59.541  44.411  1.00  0.00     0.211 HD
ENDBRANCH  29  43
BRANCH  30  45
ATOM     45  C   UNL     1      28.198  60.103  42.051  1.00  0.00     0.234 C 
ATOM     46  O   UNL     1      28.273  61.034  42.837  1.00  0.00    -0.303 OA
ENDBRANCH  30  45
BRANCH  34  47
ATOM     47  O   UNL     1      31.530  57.778  42.435  1.00  0.00    -0.393 OA
ATOM     48  H   UNL     1      31.136  57.436  41.595  1.00  0.00     0.210 HD
ENDBRANCH  34  47
BRANCH  37  49
ATOM     49  O   UNL     1      30.039  59.566  47.076  1.00  0.00    -0.389 OA
ATOM     50  H   UNL     1      30.212  59.054  47.907  1.00  0.00     0.211 HD
ENDBRANCH  37  49
BRANCH  40  51
ATOM     51  C   UNL     1      33.900  57.483  45.054  1.00  0.00    -0.022 C 
ATOM     52  C   UNL     1      34.547  57.403  43.895  1.00  0.00     0.096 C 
ATOM     53  C   UNL     1      34.898  57.322  46.181  1.00  0.00     0.265 C 
ATOM     54  C   UNL     1      35.938  57.224  44.225  1.00  0.00     0.331 C 
ATOM     55  O   UNL     1      36.118  57.179  45.553  1.00  0.00    -0.458 OA
ATOM     56  O   UNL     1      36.843  57.110  43.416  1.00  0.00    -0.247 OA
ENDBRANCH  40  51
ENDBRANCH  24  25
ENDBRANCH   4  24
BRANCH   6  57
ATOM     57  O   UNL     1      21.697  62.283  40.124  1.00  0.00    -0.387 OA
ATOM     58  H   UNL     1      21.087  61.500  40.151  1.00  0.00     0.211 HD
ENDBRANCH   6  57
BRANCH   5  59
ATOM     59  O   UNL     1      22.531  59.896  41.160  1.00  0.00    -0.385 OA
ATOM     60  H   UNL     1      22.747  58.962  40.896  1.00  0.00     0.211 HD
ENDBRANCH   5  59
TORSDOF 16
ENDMDL
MODEL 2
REMARK VINA RESULT:   -12.230      1.360      2.394
REMARK INTER + INTRA:         -22.154
REMARK INTER:                 -20.821
REMARK INTRA:                  -1.332
REMARK UNBOUND:                -1.701
REMARK SMILES C[C@H]1O[C@@H](O[C@H]2CC[C@]3(C=O)[C@H]4[C@H](O)C[C@]5(C)[C@@H](C6=CC(=O)OC6)CC[C@]5(O)[C@@H]4CC[C@]3(O)C2)[C@H](O)[C@H](O)[C@H]1O[C@@H]1O[C@H](CO)[C@@H](O)[C@H](O)[C@H]1O
REMARK SMILES IDX 1 1 2 2 3 3 4 4 35 5 37 6 39 7 40 8 41 9 42 10 50 11 43 12
REMARK SMILES IDX 48 13 46 14 51 15 44 17 45 18 49 20 47 22 5 24 6 25 7 26
REMARK SMILES IDX 34 27 8 28 32 29 9 30 31 31 12 32 30 33 13 34 29 35 15 36
REMARK SMILES IDX 27 37 16 38 26 39 18 40 25 41 17 42 33 43 10 45 11 46 14 47
REMARK SMILES IDX 28 49 19 51 20 52 24 53 21 54 23 55 22 56 38 57 36 59
REMARK H PARENT 51 16 45 19 49 21 47 23 33 44 14 48 28 50 38 58 36 60
ROOT
ATOM      1  C   UNL     1      20.868  59.905  39.215  1.00  0.00     0.041 C 
ATOM      2  C   UNL     1      22.033  60.896  39.376  1.00  0.00     0.150 C 
ATOM      3  O   UNL     1      22.858  60.376  40.422  1.00  0.00    -0.344 OA
ATOM      4  C   UNL     1      24.152  60.937  40.406  1.00  0.00     0.282 C 
ATOM      5  C   UNL     1      24.943  60.445  39.170  1.00  0.00     0.202 C 
ATOM      6  C   UNL     1      23.998  60.183  37.970  1.00  0.00     0.180 C 
ATOM      7  C   UNL     1      22.799  61.138  38.018  1.00  0.00     0.181 C 
ENDROOT
BRANCH   7   8
ATOM      8  O   UNL     1      21.947  60.859  36.914  1.00  0.00    -0.341 OA
BRANCH   8   9
ATOM      9  C   UNL     1      21.382  61.994  36.287  1.00  0.00     0.282 C 
ATOM     10  O   UNL     1      20.028  61.696  35.977  1.00  0.00    -0.341 OA
ATOM     11  C   UNL     1      22.197  62.269  34.987  1.00  0.00     0.202 C 
ATOM     12  C   UNL     1      19.370  62.861  35.487  1.00  0.00     0.178 C 
ATOM     13  C   UNL     1      21.276  62.579  33.780  1.00  0.00     0.179 C 
ATOM     14  C   UNL     1      20.053  63.425  34.186  1.00  0.00     0.177 C 
BRANCH  11  15
ATOM     15  O   UNL     1      23.180  63.255  35.195  1.00  0.00    -0.385 OA
ATOM     16  H   UNL     1      22.811  63.950  35.795  1.00  0.00     0.211 HD
ENDBRANCH  11  15
BRANCH  12  17
ATOM     17  C   UNL     1      17.893  62.522  35.245  1.00  0.00     0.191 C 
BRANCH  17  18
ATOM     18  O   UNL     1      17.371  61.764  36.305  1.00  0.00    -0.394 OA
ATOM     19  H   UNL     1      16.383  61.846  36.254  1.00  0.00     0.210 HD
ENDBRANCH  17  18
ENDBRANCH  12  17
BRANCH  13  20
ATOM     20  O   UNL     1      20.824  61.379  33.183  1.00  0.00    -0.387 OA
ATOM     21  H   UNL     1      19.840  61.402  33.071  1.00  0.00     0.211 HD
ENDBRANCH  13  20
BRANCH  14  22
ATOM     22  O   UNL     1      20.383  64.787  34.317  1.00  0.00    -0.387 OA
ATOM     23  H   UNL     1      21.159  64.872  34.924  1.00  0.00     0.211 HD
ENDBRANCH  14  22
ENDBRANCH   8   9
ENDBRANCH   7   8
BRANCH   4  24
ATOM     24  O   UNL     1      24.845  60.505  41.564  1.00  0.00    -0.346 OA
BRANCH  24  25
ATOM     25  C   UNL     1      24.743  59.117  41.833  1.00  0.00     0.124 C 
ATOM     26  C   UNL     1      25.929  58.384  41.169  1.00  0.00     0.033 C 
ATOM     27  C   UNL     1      24.798  58.918  43.348  1.00  0.00     0.068 C 
ATOM     28  C   UNL     1      27.147  58.186  42.105  1.00  0.00     0.020 C 
ATOM     29  C   UNL     1      26.065  59.622  43.964  1.00  0.00     0.080 C 
ATOM     30  C   UNL     1      27.403  59.364  43.092  1.00  0.00     0.060 C 
ATOM     31  C   UNL     1      26.244  59.100  45.397  1.00  0.00     0.037 C 
ATOM     32  C   UNL     1      28.654  58.966  44.009  1.00  0.00     0.040 C 
ATOM     33  C   UNL     1      27.399  59.816  46.112  1.00  0.00     0.010 C 
ATOM     34  C   UNL     1      30.014  58.937  43.194  1.00  0.00     0.119 C 
ATOM     35  C   UNL     1      28.732  59.849  45.295  1.00  0.00     0.028 C 
ATOM     36  C   UNL     1      31.157  59.691  43.906  1.00  0.00     0.042 C 
ATOM     37  C   UNL     1      29.977  59.526  46.218  1.00  0.00     0.074 C 
ATOM     38  C   UNL     1      31.330  59.319  45.398  1.00  0.00     0.006 C 
ATOM     39  C   UNL     1      29.840  58.194  47.025  1.00  0.00     0.037 C 
ATOM     40  C   UNL     1      31.667  57.800  45.628  1.00  0.00     0.028 C 
ATOM     41  C   UNL     1      31.238  57.595  47.073  1.00  0.00     0.012 C 
ATOM     42  C   UNL     1      32.442  60.251  45.993  1.00  0.00     0.015 C 
BRANCH  29  43
ATOM     43  O   UNL     1      25.820  61.015  44.045  1.00  0.00    -0.389 OA
ATOM     44  H   UNL     1      25.624  61.253  44.988  1.00  0.00     0.211 HD
ENDBRANCH  29  43
BRANCH  30  45
ATOM     45  C   UNL     1      27.747  60.644  42.313  1.00  0.00     0.234 C 
ATOM     46  O   UNL     1      28.065  60.625  41.134  1.00  0.00    -0.303 OA
ENDBRANCH  30  45
BRANCH  34  47
ATOM     47  O   UNL     1      30.436  57.628  42.884  1.00  0.00    -0.393 OA
ATOM     48  H   UNL     1      31.424  57.595  42.870  1.00  0.00     0.210 HD
ENDBRANCH  34  47
BRANCH  37  49
ATOM     49  O   UNL     1      30.128  60.593  47.135  1.00  0.00    -0.389 OA
ATOM     50  H   UNL     1      31.059  60.929  47.088  1.00  0.00     0.211 HD
ENDBRANCH  37  49
BRANCH  40  51
ATOM     51  C   UNL     1      33.025  57.209  45.268  1.00  0.00    -0.022 C 
ATOM     52  C   UNL     1      33.685  57.261  44.113  1.00  0.00     0.096 C 
ATOM     53  C   UNL     1      33.816  56.362  46.242  1.00  0.00     0.265 C 
ATOM     54  C   UNL     1      34.893  56.501  44.309  1.00  0.00     0.331 C 
ATOM     55  O   UNL     1      34.948  55.989  45.547  1.00  0.00    -0.458 OA
ATOM     56  O   UNL     1      35.754  56.322  43.465  1.00  0.00    -0.247 OA
ENDBRANCH  40  51
ENDBRANCH  24  25
ENDBRANCH   4  24
BRANCH   6  57
ATOM     57  O   UNL     1      24.690  60.214  36.747  1.00  0.00    -0.387 OA
ATOM     58  H   UNL     1      25.623  59.923  36.922  1.00  0.00     0.211 HD
ENDBRANCH   6  57
BRANCH   5  59
ATOM     59  O   UNL     1      25.968  61.364  38.871  1.00  0.00    -0.385 OA
ATOM     60  H   UNL     1      26.202  61.259  37.910  1.00  0.00     0.211 HD
ENDBRANCH   5  59
TORSDOF 16
ENDMDL
MODEL 3
REMARK VINA RESULT:   -12.138      2.633      4.065
REMARK INTER + INTRA:         -21.999
REMARK INTER:                 -20.566
REMARK INTRA:                  -1.432
REMARK UNBOUND:                -1.701
REMARK SMILES C[C@H]1O[C@@H](O[C@H]2CC[C@]3(C=O)[C@H]4[C@H](O)C[C@]5(C)[C@@H](C6=CC(=O)OC6)CC[C@]5(O)[C@@H]4CC[C@]3(O)C2)[C@H](O)[C@H](O)[C@H]1O[C@@H]1O[C@H](CO)[C@@H](O)[C@H](O)[C@H]1O
REMARK SMILES IDX 1 1 2 2 3 3 4 4 35 5 37 6 39 7 40 8 41 9 42 10 50 11 43 12
REMARK SMILES IDX 48 13 46 14 51 15 44 17 45 18 49 20 47 22 5 24 6 25 7 26
REMARK SMILES IDX 34 27 8 28 32 29 9 30 31 31 12 32 30 33 13 34 29 35 15 36
REMARK SMILES IDX 27 37 16 38 26 39 18 40 25 41 17 42 33 43 10 45 11 46 14 47
REMARK SMILES IDX 28 49 19 51 20 52 24 53 21 54 23 55 22 56 38 57 36 59
REMARK H PARENT 51 16 45 19 49 21 47 23 33 44 14 48 28 50 38 58 36 60
ROOT
ATOM      1  C   UNL     1      24.841  62.479  36.996  1.00  0.00     0.041 C 
ATOM      2  C   UNL     1      24.094  61.283  37.609  1.00  0.00     0.150 C 
ATOM      3  O   UNL     1      24.924  60.793  38.666  1.00  0.00    -0.344 OA
ATOM      4  C   UNL     1      24.208  59.980  39.570  1.00  0.00     0.282 C 
ATOM      5  C   UNL     1      23.203  60.829  40.386  1.00  0.00     0.202 C 
ATOM      6  C   UNL     1      22.681  62.028  39.556  1.00  0.00     0.180 C 
ATOM      7  C   UNL     1      22.634  61.665  38.067  1.00  0.00     0.181 C 
ENDROOT
BRANCH   7   8
ATOM      8  O   UNL     1      22.166  62.791  37.336  1.00  0.00    -0.341 OA
BRANCH   8   9
ATOM      9  C   UNL     1      21.298  62.493  36.259  1.00  0.00     0.282 C 
ATOM     10  O   UNL     1      21.386  63.553  35.318  1.00  0.00    -0.341 OA
ATOM     11  C   UNL     1      19.854  62.384  36.834  1.00  0.00     0.202 C 
ATOM     12  C   UNL     1      20.651  63.226  34.142  1.00  0.00     0.178 C 
ATOM     13  C   UNL     1      18.820  63.124  35.949  1.00  0.00     0.179 C 
ATOM     14  C   UNL     1      19.128  62.971  34.446  1.00  0.00     0.177 C 
BRANCH  11  15
ATOM     15  O   UNL     1      19.500  61.045  37.087  1.00  0.00    -0.385 OA
ATOM     16  H   UNL     1      20.286  60.574  37.460  1.00  0.00     0.211 HD
ENDBRANCH  11  15
BRANCH  12  17
ATOM     17  C   UNL     1      20.840  64.354  33.119  1.00  0.00     0.191 C 
BRANCH  17  18
ATOM     18  O   UNL     1      22.196  64.682  32.976  1.00  0.00    -0.394 OA
ATOM     19  H   UNL     1      22.426  65.278  33.737  1.00  0.00     0.210 HD
ENDBRANCH  17  18
ENDBRANCH  12  17
BRANCH  13  20
ATOM     20  O   UNL     1      18.791  64.502  36.270  1.00  0.00    -0.387 OA
ATOM     21  H   UNL     1      19.575  64.740  36.826  1.00  0.00     0.211 HD
ENDBRANCH  13  20
BRANCH  14  22
ATOM     22  O   UNL     1      18.697  61.725  33.952  1.00  0.00    -0.387 OA
ATOM     23  H   UNL     1      17.829  61.498  34.366  1.00  0.00     0.211 HD
ENDBRANCH  14  22
ENDBRANCH   8   9
ENDBRANCH   7   8
BRANCH   4  24
ATOM     24  O   UNL     1      25.126  59.400  40.480  1.00  0.00    -0.346 OA
BRANCH  24  25
ATOM     25  C   UNL     1      25.954  60.329  41.160  1.00  0.00     0.124 C 
ATOM     26  C   UNL     1      25.617  60.298  42.667  1.00  0.00     0.033 C 
ATOM     27  C   UNL     1      27.410  59.915  40.948  1.00  0.00     0.068 C 
ATOM     28  C   UNL     1      26.509  59.335  43.488  1.00  0.00     0.020 C 
ATOM     29  C   UNL     1      27.633  58.409  41.352  1.00  0.00     0.080 C 
ATOM     30  C   UNL     1      26.905  58.025  42.744  1.00  0.00     0.060 C 
ATOM     31  C   UNL     1      29.147  58.166  41.448  1.00  0.00     0.037 C 
ATOM     32  C   UNL     1      27.862  57.185  43.714  1.00  0.00     0.040 C 
ATOM     33  C   UNL     1      29.459  56.690  41.733  1.00  0.00     0.010 C 
ATOM     34  C   UNL     1      27.088  56.609  44.974  1.00  0.00     0.119 C 
ATOM     35  C   UNL     1      28.658  56.090  42.935  1.00  0.00     0.028 C 
ATOM     36  C   UNL     1      27.382  55.116  45.228  1.00  0.00     0.042 C 
ATOM     37  C   UNL     1      29.589  55.200  43.855  1.00  0.00     0.074 C 
ATOM     38  C   UNL     1      28.886  54.753  45.216  1.00  0.00     0.006 C 
ATOM     39  C   UNL     1      30.883  55.929  44.342  1.00  0.00     0.037 C 
ATOM     40  C   UNL     1      29.718  55.504  46.320  1.00  0.00     0.028 C 
ATOM     41  C   UNL     1      31.131  55.428  45.759  1.00  0.00     0.012 C 
ATOM     42  C   UNL     1      29.000  53.197  45.369  1.00  0.00     0.015 C 
BRANCH  29  43
ATOM     43  O   UNL     1      27.133  57.580  40.317  1.00  0.00    -0.389 OA
ATOM     44  H   UNL     1      26.149  57.696  40.259  1.00  0.00     0.211 HD
ENDBRANCH  29  43
BRANCH  30  45
ATOM     45  C   UNL     1      25.651  57.189  42.438  1.00  0.00     0.234 C 
ATOM     46  O   UNL     1      25.716  56.038  42.035  1.00  0.00    -0.303 OA
ENDBRANCH  30  45
BRANCH  34  47
ATOM     47  O   UNL     1      27.340  57.345  46.150  1.00  0.00    -0.393 OA
ATOM     48  H   UNL     1      27.625  56.729  46.869  1.00  0.00     0.210 HD
ENDBRANCH  34  47
BRANCH  37  49
ATOM     49  O   UNL     1      29.971  54.057  43.112  1.00  0.00    -0.389 OA
ATOM     50  H   UNL     1      30.931  53.872  43.278  1.00  0.00     0.211 HD
ENDBRANCH  37  49
BRANCH  40  51
ATOM     51  C   UNL     1      29.593  55.161  47.800  1.00  0.00    -0.022 C 
ATOM     52  C   UNL     1      28.513  55.174  48.576  1.00  0.00     0.096 C 
ATOM     53  C   UNL     1      30.797  54.807  48.646  1.00  0.00     0.265 C 
ATOM     54  C   UNL     1      28.965  54.812  49.895  1.00  0.00     0.331 C 
ATOM     55  O   UNL     1      30.289  54.605  49.913  1.00  0.00    -0.458 OA
ATOM     56  O   UNL     1      28.253  54.718  50.881  1.00  0.00    -0.247 OA
ENDBRANCH  40  51
ENDBRANCH  24  25
ENDBRANCH   4  24
BRANCH   6  57
ATOM     57  O   UNL     1      21.458  62.510  40.053  1.00  0.00    -0.387 OA
ATOM     58  H   UNL     1      21.114  61.845  40.706  1.00  0.00     0.211 HD
ENDBRANCH   6  57
BRANCH   5  59
ATOM     59  O   UNL     1      22.169  60.000  40.866  1.00  0.00    -0.385 OA
ATOM     60  H   UNL     1      22.582  59.160  41.200  1.00  0.00     0.211 HD
ENDBRANCH   5  59
TORSDOF 16
ENDMDL
MODEL 4
REMARK VINA RESULT:   -12.078      2.019      2.221
REMARK INTER + INTRA:         -21.899
REMARK INTER:                 -20.363
REMARK INTRA:                  -1.536
REMARK UNBOUND:                -1.701
REMARK SMILES C[C@H]1O[C@@H](O[C@H]2CC[C@]3(C=O)[C@H]4[C@H](O)C[C@]5(C)[C@@H](C6=CC(=O)OC6)CC[C@]5(O)[C@@H]4CC[C@]3(O)C2)[C@H](O)[C@H](O)[C@H]1O[C@@H]1O[C@H](CO)[C@@H](O)[C@H](O)[C@H]1O
REMARK SMILES IDX 1 1 2 2 3 3 4 4 35 5 37 6 39 7 40 8 41 9 42 10 50 11 43 12
REMARK SMILES IDX 48 13 46 14 51 15 44 17 45 18 49 20 47 22 5 24 6 25 7 26
REMARK SMILES IDX 34 27 8 28 32 29 9 30 31 31 12 32 30 33 13 34 29 35 15 36
REMARK SMILES IDX 27 37 16 38 26 39 18 40 25 41 17 42 33 43 10 45 11 46 14 47
REMARK SMILES IDX 28 49 19 51 20 52 24 53 21 54 23 55 22 56 38 57 36 59
REMARK H PARENT 51 16 45 19 49 21 47 23 33 44 14 48 28 50 38 58 36 60
ROOT
ATOM      1  C   UNL     1      25.005  62.169  37.092  1.00  0.00     0.041 C 
ATOM      2  C   UNL     1      24.374  60.968  37.816  1.00  0.00     0.150 C 
ATOM      3  O   UNL     1      25.197  60.714  38.958  1.00  0.00    -0.344 OA
ATOM      4  C   UNL     1      24.534  59.928  39.924  1.00  0.00     0.282 C 
ATOM      5  C   UNL     1      23.391  60.733  40.589  1.00  0.00     0.202 C 
ATOM      6  C   UNL     1      22.775  61.752  39.597  1.00  0.00     0.180 C 
ATOM      7  C   UNL     1      22.855  61.214  38.164  1.00  0.00     0.181 C 
ENDROOT
BRANCH   7   8
ATOM      8  O   UNL     1      22.297  62.180  37.281  1.00  0.00    -0.341 OA
BRANCH   8   9
ATOM      9  C   UNL     1      21.423  61.663  36.296  1.00  0.00     0.282 C 
ATOM     10  O   UNL     1      21.804  62.209  35.041  1.00  0.00    -0.341 OA
ATOM     11  C   UNL     1      19.976  62.101  36.672  1.00  0.00     0.202 C 
ATOM     12  C   UNL     1      21.056  61.597  33.994  1.00  0.00     0.178 C 
ATOM     13  C   UNL     1      19.190  62.621  35.442  1.00  0.00     0.179 C 
ATOM     14  C   UNL     1      19.506  61.813  34.168  1.00  0.00     0.177 C 
BRANCH  11  15
ATOM     15  O   UNL     1      19.294  61.086  37.370  1.00  0.00    -0.385 OA
ATOM     16  H   UNL     1      19.300  60.264  36.819  1.00  0.00     0.211 HD
ENDBRANCH  11  15
BRANCH  12  17
ATOM     17  C   UNL     1      21.554  62.149  32.651  1.00  0.00     0.191 C 
BRANCH  17  18
ATOM     18  O   UNL     1      22.287  61.180  31.950  1.00  0.00    -0.394 OA
ATOM     19  H   UNL     1      23.083  60.968  32.505  1.00  0.00     0.210 HD
ENDBRANCH  17  18
ENDBRANCH  12  17
BRANCH  13  20
ATOM     20  O   UNL     1      19.488  63.983  35.204  1.00  0.00    -0.387 OA
ATOM     21  H   UNL     1      20.379  64.208  35.572  1.00  0.00     0.211 HD
ENDBRANCH  13  20
BRANCH  14  22
ATOM     22  O   UNL     1      18.802  60.595  34.136  1.00  0.00    -0.387 OA
ATOM     23  H   UNL     1      18.260  60.559  33.310  1.00  0.00     0.211 HD
ENDBRANCH  14  22
ENDBRANCH   8   9
ENDBRANCH   7   8
BRANCH   4  24
ATOM     24  O   UNL     1      25.463  59.578  40.936  1.00  0.00    -0.346 OA
BRANCH  24  25
ATOM     25  C   UNL     1      26.555  58.791  40.490  1.00  0.00     0.124 C 
ATOM     26  C   UNL     1      27.849  59.632  40.563  1.00  0.00     0.033 C 
ATOM     27  C   UNL     1      26.677  57.578  41.413  1.00  0.00     0.068 C 
ATOM     28  C   UNL     1      28.633  59.462  41.888  1.00  0.00     0.020 C 
ATOM     29  C   UNL     1      26.750  58.022  42.922  1.00  0.00     0.080 C 
ATOM     30  C   UNL     1      27.740  59.281  43.151  1.00  0.00     0.060 C 
ATOM     31  C   UNL     1      27.215  56.812  43.747  1.00  0.00     0.037 C 
ATOM     32  C   UNL     1      28.711  59.066  44.406  1.00  0.00     0.040 C 
ATOM     33  C   UNL     1      27.212  57.127  45.250  1.00  0.00     0.010 C 
ATOM     34  C   UNL     1      29.519  60.381  44.776  1.00  0.00     0.119 C 
ATOM     35  C   UNL     1      27.953  58.452  45.625  1.00  0.00     0.028 C 
ATOM     36  C   UNL     1      29.477  60.705  46.284  1.00  0.00     0.042 C 
ATOM     37  C   UNL     1      28.857  58.258  46.909  1.00  0.00     0.074 C 
ATOM     38  C   UNL     1      29.810  59.505  47.201  1.00  0.00     0.006 C 
ATOM     39  C   UNL     1      29.856  57.060  46.806  1.00  0.00     0.037 C 
ATOM     40  C   UNL     1      31.253  58.923  46.971  1.00  0.00     0.028 C 
ATOM     41  C   UNL     1      31.119  57.513  47.526  1.00  0.00     0.012 C 
ATOM     42  C   UNL     1      29.609  59.971  48.685  1.00  0.00     0.015 C 
BRANCH  29  43
ATOM     43  O   UNL     1      25.448  58.364  43.362  1.00  0.00    -0.389 OA
ATOM     44  H   UNL     1      25.058  57.590  43.846  1.00  0.00     0.211 HD
ENDBRANCH  29  43
BRANCH  30  45
ATOM     45  C   UNL     1      26.895  60.544  43.388  1.00  0.00     0.234 C 
ATOM     46  O   UNL     1      26.245  60.713  44.408  1.00  0.00    -0.303 OA
ENDBRANCH  30  45
BRANCH  34  47
ATOM     47  O   UNL     1      30.859  60.337  44.340  1.00  0.00    -0.393 OA
ATOM     48  H   UNL     1      31.339  59.623  44.826  1.00  0.00     0.210 HD
ENDBRANCH  34  47
BRANCH  37  49
ATOM     49  O   UNL     1      28.002  58.035  48.015  1.00  0.00    -0.389 OA
ATOM     50  H   UNL     1      27.751  58.909  48.409  1.00  0.00     0.211 HD
ENDBRANCH  37  49
BRANCH  40  51
ATOM     51  C   UNL     1      32.506  59.672  47.407  1.00  0.00    -0.022 C 
ATOM     52  C   UNL     1      33.213  60.585  46.745  1.00  0.00     0.096 C 
ATOM     53  C   UNL     1      33.192  59.389  48.727  1.00  0.00     0.265 C 
ATOM     54  C   UNL     1      34.321  60.929  47.600  1.00  0.00     0.331 C 
ATOM     55  O   UNL     1      34.290  60.224  48.740  1.00  0.00    -0.458 OA
ATOM     56  O   UNL     1      35.191  61.739  47.329  1.00  0.00    -0.247 OA
ENDBRANCH  40  51
ENDBRANCH  24  25
ENDBRANCH   4  24
BRANCH   6  57
ATOM     57  O   UNL     1      21.478  62.131  39.982  1.00  0.00    -0.387 OA
ATOM     58  H   UNL     1      21.264  62.985  39.521  1.00  0.00     0.211 HD
ENDBRANCH   6  57
BRANCH   5  59
ATOM     59  O   UNL     1      22.439  59.843  41.124  1.00  0.00    -0.385 OA
ATOM     60  H   UNL     1      22.185  60.173  42.027  1.00  0.00     0.211 HD
ENDBRANCH   5  59
TORSDOF 16
ENDMDL
MODEL 5
REMARK VINA RESULT:   -11.806      2.774      4.630
REMARK INTER + INTRA:         -21.444
REMARK INTER:                 -19.976
REMARK INTRA:                  -1.468
REMARK UNBOUND:                -1.701
REMARK SMILES C[C@H]1O[C@@H](O[C@H]2CC[C@]3(C=O)[C@H]4[C@H](O)C[C@]5(C)[C@@H](C6=CC(=O)OC6)CC[C@]5(O)[C@@H]4CC[C@]3(O)C2)[C@H](O)[C@H](O)[C@H]1O[C@@H]1O[C@H](CO)[C@@H](O)[C@H](O)[C@H]1O
REMARK SMILES IDX 1 1 2 2 3 3 4 4 35 5 37 6 39 7 40 8 41 9 42 10 50 11 43 12
REMARK SMILES IDX 48 13 46 14 51 15 44 17 45 18 49 20 47 22 5 24 6 25 7 26
REMARK SMILES IDX 34 27 8 28 32 29 9 30 31 31 12 32 30 33 13 34 29 35 15 36
REMARK SMILES IDX 27 37 16 38 26 39 18 40 25 41 17 42 33 43 10 45 11 46 14 47
REMARK SMILES IDX 28 49 19 51 20 52 24 53 21 54 23 55 22 56 38 57 36 59
REMARK H PARENT 51 16 45 19 49 21 47 23 33 44 14 48 28 50 38 58 36 60
ROOT
ATOM      1  C   UNL     1      20.624  60.841  39.195  1.00  0.00     0.041 C 
ATOM      2  C   UNL     1      22.038  61.301  38.801  1.00  0.00     0.150 C 
ATOM      3  O   UNL     1      22.943  60.548  39.615  1.00  0.00    -0.344 OA
ATOM      4  C   UNL     1      24.254  60.554  39.093  1.00  0.00     0.282 C 
ATOM      5  C   UNL     1      24.323  59.733  37.783  1.00  0.00     0.202 C 
ATOM      6  C   UNL     1      22.984  59.807  37.007  1.00  0.00     0.180 C 
ATOM      7  C   UNL     1      22.300  61.157  37.252  1.00  0.00     0.181 C 
ENDROOT
BRANCH   7   8
ATOM      8  O   UNL     1      21.070  61.183  36.540  1.00  0.00    -0.341 OA
BRANCH   8   9
ATOM      9  C   UNL     1      20.948  62.218  35.583  1.00  0.00     0.282 C 
ATOM     10  O   UNL     1      19.696  62.857  35.784  1.00  0.00    -0.341 OA
ATOM     11  C   UNL     1      21.014  61.565  34.169  1.00  0.00     0.202 C 
ATOM     12  C   UNL     1      19.594  64.008  34.949  1.00  0.00     0.178 C 
ATOM     13  C   UNL     1      19.931  62.133  33.218  1.00  0.00     0.179 C 
ATOM     14  C   UNL     1      19.715  63.645  33.422  1.00  0.00     0.177 C 
BRANCH  11  15
ATOM     15  O   UNL     1      22.312  61.635  33.629  1.00  0.00    -0.385 OA
ATOM     16  H   UNL     1      22.911  62.050  34.297  1.00  0.00     0.211 HD
ENDBRANCH  11  15
BRANCH  12  17
ATOM     17  C   UNL     1      18.268  64.718  35.256  1.00  0.00     0.191 C 
BRANCH  17  18
ATOM     18  O   UNL     1      17.981  64.674  36.629  1.00  0.00    -0.394 OA
ATOM     19  H   UNL     1      17.840  63.718  36.860  1.00  0.00     0.210 HD
ENDBRANCH  17  18
ENDBRANCH  12  17
BRANCH  13  20
ATOM     20  O   UNL     1      18.700  61.466  33.416  1.00  0.00    -0.387 OA
ATOM     21  H   UNL     1      18.505  61.384  34.383  1.00  0.00     0.211 HD
ENDBRANCH  13  20
BRANCH  14  22
ATOM     22  O   UNL     1      20.713  64.404  32.782  1.00  0.00    -0.387 OA
ATOM     23  H   UNL     1      21.322  64.777  33.467  1.00  0.00     0.211 HD
ENDBRANCH  14  22
ENDBRANCH   8   9
ENDBRANCH   7   8
BRANCH   4  24
ATOM     24  O   UNL     1      25.117  59.941  40.036  1.00  0.00    -0.346 OA
BRANCH  24  25
ATOM     25  C   UNL     1      25.030  60.468  41.350  1.00  0.00     0.124 C 
ATOM     26  C   UNL     1      24.392  59.412  42.278  1.00  0.00     0.033 C 
ATOM     27  C   UNL     1      26.447  60.787  41.830  1.00  0.00     0.068 C 
ATOM     28  C   UNL     1      25.421  58.516  43.010  1.00  0.00     0.020 C 
ATOM     29  C   UNL     1      27.389  59.534  41.678  1.00  0.00     0.080 C 
ATOM     30  C   UNL     1      26.686  58.164  42.172  1.00  0.00     0.060 C 
ATOM     31  C   UNL     1      28.668  59.807  42.484  1.00  0.00     0.037 C 
ATOM     32  C   UNL     1      27.655  57.288  43.098  1.00  0.00     0.040 C 
ATOM     33  C   UNL     1      29.693  58.678  42.304  1.00  0.00     0.010 C 
ATOM     34  C   UNL     1      27.062  55.847  43.396  1.00  0.00     0.119 C 
ATOM     35  C   UNL     1      29.110  57.246  42.535  1.00  0.00     0.028 C 
ATOM     36  C   UNL     1      28.092  54.718  43.176  1.00  0.00     0.042 C 
ATOM     37  C   UNL     1      30.101  56.355  43.390  1.00  0.00     0.074 C 
ATOM     38  C   UNL     1      29.462  54.968  43.851  1.00  0.00     0.006 C 
ATOM     39  C   UNL     1      30.541  57.013  44.738  1.00  0.00     0.037 C 
ATOM     40  C   UNL     1      29.371  55.110  45.414  1.00  0.00     0.028 C 
ATOM     41  C   UNL     1      30.649  55.870  45.739  1.00  0.00     0.012 C 
ATOM     42  C   UNL     1      30.417  53.796  43.434  1.00  0.00     0.015 C 
BRANCH  29  43
ATOM     43  O   UNL     1      27.762  59.405  40.317  1.00  0.00    -0.389 OA
ATOM     44  H   UNL     1      28.713  59.126  40.269  1.00  0.00     0.211 HD
ENDBRANCH  29  43
BRANCH  30  45
ATOM     45  C   UNL     1      26.291  57.333  40.940  1.00  0.00     0.234 C 
ATOM     46  O   UNL     1      25.182  56.838  40.815  1.00  0.00    -0.303 OA
ENDBRANCH  30  45
BRANCH  34  47
ATOM     47  O   UNL     1      26.516  55.739  44.691  1.00  0.00    -0.393 OA
ATOM     48  H   UNL     1      26.682  54.831  45.044  1.00  0.00     0.210 HD
ENDBRANCH  34  47
BRANCH  37  49
ATOM     49  O   UNL     1      31.257  56.118  42.609  1.00  0.00    -0.389 OA
ATOM     50  H   UNL     1      31.895  56.865  42.742  1.00  0.00     0.211 HD
ENDBRANCH  37  49
BRANCH  40  51
ATOM     51  C   UNL     1      29.083  53.917  46.319  1.00  0.00    -0.022 C 
ATOM     52  C   UNL     1      27.920  53.333  46.595  1.00  0.00     0.096 C 
ATOM     53  C   UNL     1      30.169  53.248  47.135  1.00  0.00     0.265 C 
ATOM     54  C   UNL     1      28.213  52.286  47.540  1.00  0.00     0.331 C 
ATOM     55  O   UNL     1      29.519  52.255  47.839  1.00  0.00    -0.458 OA
ATOM     56  O   UNL     1      27.390  51.530  48.027  1.00  0.00    -0.247 OA
ENDBRANCH  40  51
ENDBRANCH  24  25
ENDBRANCH   4  24
BRANCH   6  57
ATOM     57  O   UNL     1      23.156  59.505  35.645  1.00  0.00    -0.387 OA
ATOM     58  H   UNL     1      22.397  58.928  35.367  1.00  0.00     0.211 HD
ENDBRANCH   6  57
BRANCH   5  59
ATOM     59  O   UNL     1      25.426  60.160  37.018  1.00  0.00    -0.385 OA
ATOM     60  H   UNL     1      26.193  60.294  37.636  1.00  0.00     0.211 HD
ENDBRANCH   5  59
TORSDOF 16
ENDMDL
MODEL 6
REMARK VINA RESULT:   -11.692      3.131      4.061
REMARK INTER + INTRA:         -21.253
REMARK INTER:                 -19.989
REMARK INTRA:                  -1.264
REMARK UNBOUND:                -1.701
REMARK SMILES C[C@H]1O[C@@H](O[C@H]2CC[C@]3(C=O)[C@H]4[C@H](O)C[C@]5(C)[C@@H](C6=CC(=O)OC6)CC[C@]5(O)[C@@H]4CC[C@]3(O)C2)[C@H](O)[C@H](O)[C@H]1O[C@@H]1O[C@H](CO)[C@@H](O)[C@H](O)[C@H]1O
REMARK SMILES IDX 1 1 2 2 3 3 4 4 35 5 37 6 39 7 40 8 41 9 42 10 50 11 43 12
REMARK SMILES IDX 48 13 46 14 51 15 44 17 45 18 49 20 47 22 5 24 6 25 7 26
REMARK SMILES IDX 34 27 8 28 32 29 9 30 31 31 12 32 30 33 13 34 29 35 15 36
REMARK SMILES IDX 27 37 16 38 26 39 18 40 25 41 17 42 33 43 10 45 11 46 14 47
REMARK SMILES IDX 28 49 19 51 20 52 24 53 21 54 23 55 22 56 38 57 36 59
REMARK H PARENT 51 16 45 19 49 21 47 23 33 44 14 48 28 50 38 58 36 60
ROOT
ATOM      1  C   UNL     1      25.069  62.144  37.061  1.00  0.00     0.041 C 
ATOM      2  C   UNL     1      24.238  61.001  37.667  1.00  0.00     0.150 C 
ATOM      3  O   UNL     1      24.993  60.504  38.777  1.00  0.00    -0.344 OA
ATOM      4  C   UNL     1      24.197  59.750  39.665  1.00  0.00     0.282 C 
ATOM      5  C   UNL     1      23.196  60.667  40.409  1.00  0.00     0.202 C 
ATOM      6  C   UNL     1      22.770  61.864  39.523  1.00  0.00     0.180 C 
ATOM      7  C   UNL     1      22.777  61.462  38.043  1.00  0.00     0.181 C 
ENDROOT
BRANCH   7   8
ATOM      8  O   UNL     1      22.398  62.587  37.261  1.00  0.00    -0.341 OA
BRANCH   8   9
ATOM      9  C   UNL     1      21.554  62.301  36.163  1.00  0.00     0.282 C 
ATOM     10  O   UNL     1      21.516  63.449  35.328  1.00  0.00    -0.341 OA
ATOM     11  C   UNL     1      20.137  61.983  36.727  1.00  0.00     0.202 C 
ATOM     12  C   UNL     1      20.806  63.158  34.126  1.00  0.00     0.178 C 
ATOM     13  C   UNL     1      19.019  62.688  35.919  1.00  0.00     0.179 C 
ATOM     14  C   UNL     1      19.323  62.713  34.408  1.00  0.00     0.177 C 
BRANCH  11  15
ATOM     15  O   UNL     1      19.931  60.595  36.852  1.00  0.00    -0.385 OA
ATOM     16  H   UNL     1      19.939  60.358  37.812  1.00  0.00     0.211 HD
ENDBRANCH  11  15
BRANCH  12  17
ATOM     17  C   UNL     1      20.860  64.393  33.216  1.00  0.00     0.191 C 
BRANCH  17  18
ATOM     18  O   UNL     1      22.187  64.777  32.969  1.00  0.00    -0.394 OA
ATOM     19  H   UNL     1      22.150  65.511  32.300  1.00  0.00     0.210 HD
ENDBRANCH  17  18
ENDBRANCH  12  17
BRANCH  13  20
ATOM     20  O   UNL     1      18.846  64.017  36.371  1.00  0.00    -0.387 OA
ATOM     21  H   UNL     1      19.410  64.636  35.841  1.00  0.00     0.211 HD
ENDBRANCH  13  20
BRANCH  14  22
ATOM     22  O   UNL     1      19.022  61.480  33.797  1.00  0.00    -0.387 OA
ATOM     23  H   UNL     1      18.185  61.125  34.186  1.00  0.00     0.211 HD
ENDBRANCH  14  22
ENDBRANCH   8   9
ENDBRANCH   7   8
BRANCH   4  24
ATOM     24  O   UNL     1      25.043  59.155  40.634  1.00  0.00    -0.346 OA
BRANCH  24  25
ATOM     25  C   UNL     1      26.374  59.643  40.639  1.00  0.00     0.124 C 
ATOM     26  C   UNL     1      26.565  60.580  41.852  1.00  0.00     0.033 C 
ATOM     27  C   UNL     1      27.320  58.448  40.756  1.00  0.00     0.068 C 
ATOM     28  C   UNL     1      27.123  59.869  43.110  1.00  0.00     0.020 C 
ATOM     29  C   UNL     1      26.939  57.546  41.990  1.00  0.00     0.080 C 
ATOM     30  C   UNL     1      26.607  58.413  43.314  1.00  0.00     0.060 C 
ATOM     31  C   UNL     1      28.111  56.587  42.251  1.00  0.00     0.037 C 
ATOM     32  C   UNL     1      27.323  57.823  44.618  1.00  0.00     0.040 C 
ATOM     33  C   UNL     1      27.780  55.594  43.375  1.00  0.00     0.010 C 
ATOM     34  C   UNL     1      26.823  58.524  45.951  1.00  0.00     0.119 C 
ATOM     35  C   UNL     1      27.227  56.265  44.675  1.00  0.00     0.028 C 
ATOM     36  C   UNL     1      26.458  57.515  47.059  1.00  0.00     0.042 C 
ATOM     37  C   UNL     1      27.882  55.631  45.969  1.00  0.00     0.074 C 
ATOM     38  C   UNL     1      27.532  56.428  47.306  1.00  0.00     0.006 C 
ATOM     39  C   UNL     1      29.446  55.629  45.952  1.00  0.00     0.037 C 
ATOM     40  C   UNL     1      28.921  57.013  47.757  1.00  0.00     0.028 C 
ATOM     41  C   UNL     1      29.874  55.885  47.391  1.00  0.00     0.012 C 
ATOM     42  C   UNL     1      26.958  55.427  48.368  1.00  0.00     0.015 C 
BRANCH  29  43
ATOM     43  O   UNL     1      25.812  56.759  41.650  1.00  0.00    -0.389 OA
ATOM     44  H   UNL     1      26.083  55.805  41.615  1.00  0.00     0.211 HD
ENDBRANCH  29  43
BRANCH  30  45
ATOM     45  C   UNL     1      25.087  58.416  43.541  1.00  0.00     0.234 C 
ATOM     46  O   UNL     1      24.473  59.428  43.843  1.00  0.00    -0.303 OA
ENDBRANCH  30  45
BRANCH  34  47
ATOM     47  O   UNL     1      27.747  59.462  46.453  1.00  0.00    -0.393 OA
ATOM     48  H   UNL     1      27.262  60.174  46.938  1.00  0.00     0.210 HD
ENDBRANCH  34  47
BRANCH  37  49
ATOM     49  O   UNL     1      27.433  54.293  46.074  1.00  0.00    -0.389 OA
ATOM     50  H   UNL     1      26.788  54.112  45.343  1.00  0.00     0.211 HD
ENDBRANCH  37  49
BRANCH  40  51
ATOM     51  C   UNL     1      29.134  57.614  49.141  1.00  0.00    -0.022 C 
ATOM     52  C   UNL     1      29.809  57.121  50.176  1.00  0.00     0.096 C 
ATOM     53  C   UNL     1      28.489  58.919  49.558  1.00  0.00     0.265 C 
ATOM     54  C   UNL     1      29.651  58.073  51.246  1.00  0.00     0.331 C 
ATOM     55  O   UNL     1      28.883  59.104  50.867  1.00  0.00    -0.458 OA
ATOM     56  O   UNL     1      30.131  57.962  52.362  1.00  0.00    -0.247 OA
ENDBRANCH  40  51
ENDBRANCH  24  25
ENDBRANCH   4  24
BRANCH   6  57
ATOM     57  O   UNL     1      21.549  62.416  39.947  1.00  0.00    -0.387 OA
ATOM     58  H   UNL     1      21.324  63.161  39.330  1.00  0.00     0.211 HD
ENDBRANCH   6  57
BRANCH   5  59
ATOM     59  O   UNL     1      22.102  59.900  40.859  1.00  0.00    -0.385 OA
ATOM     60  H   UNL     1      21.824  59.300  40.116  1.00  0.00     0.211 HD
ENDBRANCH   5  59
TORSDOF 16
ENDMDL
MODEL 7
REMARK VINA RESULT:   -11.155      1.568      2.267
REMARK INTER + INTRA:         -20.355
REMARK INTER:                 -19.269
REMARK INTRA:                  -1.086
REMARK UNBOUND:                -1.701
REMARK SMILES C[C@H]1O[C@@H](O[C@H]2CC[C@]3(C=O)[C@H]4[C@H](O)C[C@]5(C)[C@@H](C6=CC(=O)OC6)CC[C@]5(O)[C@@H]4CC[C@]3(O)C2)[C@H](O)[C@H](O)[C@H]1O[C@@H]1O[C@H](CO)[C@@H](O)[C@H](O)[C@H]1O
REMARK SMILES IDX 1 1 2 2 3 3 4 4 35 5 37 6 39 7 40 8 41 9 42 10 50 11 43 12
REMARK SMILES IDX 48 13 46 14 51 15 44 17 45 18 49 20 47 22 5 24 6 25 7 26
REMARK SMILES IDX 34 27 8 28 32 29 9 30 31 31 12 32 30 33 13 34 29 35 15 36
REMARK SMILES IDX 27 37 16 38 26 39 18 40 25 41 17 42 33 43 10 45 11 46 14 47
REMARK SMILES IDX 28 49 19 51 20 52 24 53 21 54 23 55 22 56 38 57 36 59
REMARK H PARENT 51 16 45 19 49 21 47 23 33 44 14 48 28 50 38 58 36 60
ROOT
ATOM      1  C   UNL     1      25.023  63.160  38.550  1.00  0.00     0.041 C 
ATOM      2  C   UNL     1      24.285  61.814  38.453  1.00  0.00     0.150 C 
ATOM      3  O   UNL     1      24.651  61.074  39.621  1.00  0.00    -0.344 OA
ATOM      4  C   UNL     1      23.755  60.015  39.880  1.00  0.00     0.282 C 
ATOM      5  C   UNL     1      22.379  60.563  40.328  1.00  0.00     0.202 C 
ATOM      6  C   UNL     1      22.079  61.930  39.663  1.00  0.00     0.180 C 
ATOM      7  C   UNL     1      22.729  62.001  38.276  1.00  0.00     0.181 C 
ENDROOT
BRANCH   7   8
ATOM      8  O   UNL     1      22.447  63.272  37.703  1.00  0.00    -0.341 OA
BRANCH   8   9
ATOM      9  C   UNL     1      21.864  63.237  36.415  1.00  0.00     0.282 C 
ATOM     10  O   UNL     1      20.456  63.335  36.567  1.00  0.00    -0.341 OA
ATOM     11  C   UNL     1      22.255  61.879  35.756  1.00  0.00     0.202 C 
ATOM     12  C   UNL     1      19.833  63.464  35.291  1.00  0.00     0.178 C 
ATOM     13  C   UNL     1      21.048  61.206  35.055  1.00  0.00     0.179 C 
ATOM     14  C   UNL     1      20.137  62.234  34.356  1.00  0.00     0.177 C 
BRANCH  11  15
ATOM     15  O   UNL     1      23.373  62.019  34.911  1.00  0.00    -0.385 OA
ATOM     16  H   UNL     1      23.565  61.143  34.493  1.00  0.00     0.211 HD
ENDBRANCH  11  15
BRANCH  12  17
ATOM     17  C   UNL     1      18.325  63.653  35.501  1.00  0.00     0.191 C 
BRANCH  17  18
ATOM     18  O   UNL     1      18.072  64.575  36.528  1.00  0.00    -0.394 OA
ATOM     19  H   UNL     1      17.382  64.165  37.114  1.00  0.00     0.210 HD
ENDBRANCH  17  18
ENDBRANCH  12  17
BRANCH  13  20
ATOM     20  O   UNL     1      20.278  60.476  35.990  1.00  0.00    -0.387 OA
ATOM     21  H   UNL     1      19.595  61.061  36.404  1.00  0.00     0.211 HD
ENDBRANCH  13  20
BRANCH  14  22
ATOM     22  O   UNL     1      20.666  62.639  33.116  1.00  0.00    -0.387 OA
ATOM     23  H   UNL     1      20.215  62.133  32.395  1.00  0.00     0.211 HD
ENDBRANCH  14  22
ENDBRANCH   8   9
ENDBRANCH   7   8
BRANCH   4  24
ATOM     24  O   UNL     1      24.277  59.232  40.940  1.00  0.00    -0.346 OA
BRANCH  24  25
ATOM     25  C   UNL     1      25.079  58.137  40.530  1.00  0.00     0.124 C 
ATOM     26  C   UNL     1      26.482  58.655  40.142  1.00  0.00     0.033 C 
ATOM     27  C   UNL     1      25.195  57.164  41.704  1.00  0.00     0.068 C 
ATOM     28  C   UNL     1      27.509  58.607  41.300  1.00  0.00     0.020 C 
ATOM     29  C   UNL     1      25.694  57.903  43.002  1.00  0.00     0.080 C 
ATOM     30  C   UNL     1      26.916  58.921  42.706  1.00  0.00     0.060 C 
ATOM     31  C   UNL     1      26.116  56.833  44.020  1.00  0.00     0.037 C 
ATOM     32  C   UNL     1      28.098  58.772  43.776  1.00  0.00     0.040 C 
ATOM     33  C   UNL     1      26.517  57.465  45.361  1.00  0.00     0.010 C 
ATOM     34  C   UNL     1      29.189  59.916  43.632  1.00  0.00     0.119 C 
ATOM     35  C   UNL     1      27.547  58.635  45.230  1.00  0.00     0.028 C 
ATOM     36  C   UNL     1      29.556  60.568  44.981  1.00  0.00     0.042 C 
ATOM     37  C   UNL     1      28.676  58.529  46.335  1.00  0.00     0.074 C 
ATOM     38  C   UNL     1      29.875  59.557  46.108  1.00  0.00     0.006 C 
ATOM     39  C   UNL     1      29.395  57.142  46.375  1.00  0.00     0.037 C 
ATOM     40  C   UNL     1      31.099  58.624  45.784  1.00  0.00     0.028 C 
ATOM     41  C   UNL     1      30.850  57.441  46.708  1.00  0.00     0.012 C 
ATOM     42  C   UNL     1      30.109  60.374  47.426  1.00  0.00     0.015 C 
BRANCH  29  43
ATOM     43  O   UNL     1      24.611  58.623  43.563  1.00  0.00    -0.389 OA
ATOM     44  H   UNL     1      24.136  59.107  42.839  1.00  0.00     0.211 HD
ENDBRANCH  29  43
BRANCH  30  45
ATOM     45  C   UNL     1      26.386  60.363  42.748  1.00  0.00     0.234 C 
ATOM     46  O   UNL     1      26.820  61.240  42.016  1.00  0.00    -0.303 OA
ENDBRANCH  30  45
BRANCH  34  47
ATOM     47  O   UNL     1      30.362  59.471  42.988  1.00  0.00    -0.393 OA
ATOM     48  H   UNL     1      30.174  58.627  42.509  1.00  0.00     0.210 HD
ENDBRANCH  34  47
BRANCH  37  49
ATOM     49  O   UNL     1      28.075  58.759  47.595  1.00  0.00    -0.389 OA
ATOM     50  H   UNL     1      27.321  59.392  47.482  1.00  0.00     0.211 HD
ENDBRANCH  37  49
BRANCH  40  51
ATOM     51  C   UNL     1      32.531  59.144  45.772  1.00  0.00    -0.022 C 
ATOM     52  C   UNL     1      33.070  60.137  46.474  1.00  0.00     0.096 C 
ATOM     53  C   UNL     1      33.578  58.592  44.828  1.00  0.00     0.265 C 
ATOM     54  C   UNL     1      34.442  60.233  46.042  1.00  0.00     0.331 C 
ATOM     55  O   UNL     1      34.713  59.331  45.089  1.00  0.00    -0.458 OA
ATOM     56  O   UNL     1      35.257  61.036  46.465  1.00  0.00    -0.247 OA
ENDBRANCH  40  51
ENDBRANCH  24  25
ENDBRANCH   4  24
BRANCH   6  57
ATOM     57  O   UNL     1      20.702  62.210  39.651  1.00  0.00    -0.387 OA
ATOM     58  H   UNL     1      20.240  61.439  39.227  1.00  0.00     0.211 HD
ENDBRANCH   6  57
BRANCH   5  59
ATOM     59  O   UNL     1      21.383  59.598  40.075  1.00  0.00    -0.385 OA
ATOM     60  H   UNL     1      21.816  58.825  39.623  1.00  0.00     0.211 HD
ENDBRANCH   5  59
TORSDOF 16
ENDMDL
MODEL 8
REMARK VINA RESULT:   -11.067      3.698      5.884
REMARK INTER + INTRA:         -20.209
REMARK INTER:                 -18.832
REMARK INTRA:                  -1.376
REMARK UNBOUND:                -1.701
REMARK SMILES C[C@H]1O[C@@H](O[C@H]2CC[C@]3(C=O)[C@H]4[C@H](O)C[C@]5(C)[C@@H](C6=CC(=O)OC6)CC[C@]5(O)[C@@H]4CC[C@]3(O)C2)[C@H](O)[C@H](O)[C@H]1O[C@@H]1O[C@H](CO)[C@@H](O)[C@H](O)[C@H]1O
REMARK SMILES IDX 1 1 2 2 3 3 4 4 35 5 37 6 39 7 40 8 41 9 42 10 50 11 43 12
REMARK SMILES IDX 48 13 46 14 51 15 44 17 45 18 49 20 47 22 5 24 6 25 7 26
REMARK SMILES IDX 34 27 8 28 32 29 9 30 31 31 12 32 30 33 13 34 29 35 15 36
REMARK SMILES IDX 27 37 16 38 26 39 18 40 25 41 17 42 33 43 10 45 11 46 14 47
REMARK SMILES IDX 28 49 19 51 20 52 24 53 21 54 23 55 22 56 38 57 36 59
REMARK H PARENT 51 16 45 19 49 21 47 23 33 44 14 48 28 50 38 58 36 60
ROOT
ATOM      1  C   UNL     1      26.690  62.019  41.928  1.00  0.00     0.041 C 
ATOM      2  C   UNL     1      26.758  60.825  40.961  1.00  0.00     0.150 C 
ATOM      3  O   UNL     1      27.249  59.720  41.725  1.00  0.00    -0.344 OA
ATOM      4  C   UNL     1      26.981  58.483  41.102  1.00  0.00     0.282 C 
ATOM      5  C   UNL     1      25.464  58.177  41.130  1.00  0.00     0.202 C 
ATOM      6  C   UNL     1      24.630  59.482  41.067  1.00  0.00     0.180 C 
ATOM      7  C   UNL     1      25.373  60.551  40.257  1.00  0.00     0.181 C 
ENDROOT
BRANCH   7   8
ATOM      8  O   UNL     1      24.588  61.736  40.235  1.00  0.00    -0.341 OA
BRANCH   8   9
ATOM      9  C   UNL     1      24.061  62.087  38.970  1.00  0.00     0.282 C 
ATOM     10  O   UNL     1      22.770  61.506  38.856  1.00  0.00    -0.341 OA
ATOM     11  C   UNL     1      25.021  61.514  37.883  1.00  0.00     0.202 C 
ATOM     12  C   UNL     1      22.132  61.961  37.665  1.00  0.00     0.178 C 
ATOM     13  C   UNL     1      24.247  60.831  36.728  1.00  0.00     0.179 C 
ATOM     14  C   UNL     1      22.950  61.585  36.374  1.00  0.00     0.177 C 
BRANCH  11  15
ATOM     15  O   UNL     1      25.930  62.491  37.433  1.00  0.00    -0.385 OA
ATOM     16  H   UNL     1      26.528  62.081  36.759  1.00  0.00     0.211 HD
ENDBRANCH  11  15
BRANCH  12  17
ATOM     17  C   UNL     1      20.712  61.382  37.620  1.00  0.00     0.191 C 
BRANCH  17  18
ATOM     18  O   UNL     1      20.742  59.988  37.458  1.00  0.00    -0.394 OA
ATOM     19  H   UNL     1      21.358  59.803  36.701  1.00  0.00     0.210 HD
ENDBRANCH  17  18
ENDBRANCH  12  17
BRANCH  13  20
ATOM     20  O   UNL     1      23.922  59.498  37.072  1.00  0.00    -0.387 OA
ATOM     21  H   UNL     1      24.141  58.888  36.324  1.00  0.00     0.211 HD
ENDBRANCH  13  20
BRANCH  14  22
ATOM     22  O   UNL     1      23.207  62.712  35.570  1.00  0.00    -0.387 OA
ATOM     23  H   UNL     1      22.711  62.619  34.720  1.00  0.00     0.211 HD
ENDBRANCH  14  22
ENDBRANCH   8   9
ENDBRANCH   7   8
BRANCH   4  24
ATOM     24  O   UNL     1      27.644  57.461  41.826  1.00  0.00    -0.346 OA
BRANCH  24  25
ATOM     25  C   UNL     1      28.974  57.770  42.205  1.00  0.00     0.124 C 
ATOM     26  C   UNL     1      28.954  58.525  43.553  1.00  0.00     0.033 C 
ATOM     27  C   UNL     1      29.743  56.458  42.361  1.00  0.00     0.068 C 
ATOM     28  C   UNL     1      29.117  57.606  44.788  1.00  0.00     0.020 C 
ATOM     29  C   UNL     1      28.988  55.473  43.331  1.00  0.00     0.080 C 
ATOM     30  C   UNL     1      28.429  56.214  44.656  1.00  0.00     0.060 C 
ATOM     31  C   UNL     1      29.962  54.348  43.711  1.00  0.00     0.037 C 
ATOM     32  C   UNL     1      28.745  55.387  45.990  1.00  0.00     0.040 C 
ATOM     33  C   UNL     1      29.273  53.280  44.574  1.00  0.00     0.010 C 
ATOM     34  C   UNL     1      28.006  55.985  47.260  1.00  0.00     0.119 C 
ATOM     35  C   UNL     1      28.488  53.859  45.797  1.00  0.00     0.028 C 
ATOM     36  C   UNL     1      27.286  54.906  48.097  1.00  0.00     0.042 C 
ATOM     37  C   UNL     1      28.744  52.997  47.100  1.00  0.00     0.074 C 
ATOM     38  C   UNL     1      28.157  53.670  48.423  1.00  0.00     0.006 C 
ATOM     39  C   UNL     1      30.256  52.797  47.440  1.00  0.00     0.037 C 
ATOM     40  C   UNL     1      29.444  54.014  49.259  1.00  0.00     0.028 C 
ATOM     41  C   UNL     1      30.344  52.824  48.960  1.00  0.00     0.012 C 
ATOM     42  C   UNL     1      27.248  52.632  49.169  1.00  0.00     0.015 C 
BRANCH  29  43
ATOM     43  O   UNL     1      27.906  54.883  42.632  1.00  0.00    -0.389 OA
ATOM     44  H   UNL     1      27.629  55.489  41.897  1.00  0.00     0.211 HD
ENDBRANCH  29  43
BRANCH  30  45
ATOM     45  C   UNL     1      26.906  56.385  44.527  1.00  0.00     0.234 C 
ATOM     46  O   UNL     1      26.135  55.440  44.586  1.00  0.00    -0.303 OA
ENDBRANCH  30  45
BRANCH  34  47
ATOM     47  O   UNL     1      28.866  56.730  48.091  1.00  0.00    -0.393 OA
ATOM     48  H   UNL     1      28.896  57.667  47.776  1.00  0.00     0.210 HD
ENDBRANCH  34  47
BRANCH  37  49
ATOM     49  O   UNL     1      28.155  51.725  46.904  1.00  0.00    -0.389 OA
ATOM     50  H   UNL     1      27.890  51.354  47.784  1.00  0.00     0.211 HD
ENDBRANCH  37  49
BRANCH  40  51
ATOM     51  C   UNL     1      29.371  54.415  50.727  1.00  0.00    -0.022 C 
ATOM     52  C   UNL     1      29.727  55.560  51.304  1.00  0.00     0.096 C 
ATOM     53  C   UNL     1      28.915  53.451  51.801  1.00  0.00     0.265 C 
ATOM     54  C   UNL     1      29.491  55.388  52.714  1.00  0.00     0.331 C 
ATOM     55  O   UNL     1      29.023  54.160  52.980  1.00  0.00    -0.458 OA
ATOM     56  O   UNL     1      29.702  56.230  53.570  1.00  0.00    -0.247 OA
ENDBRANCH  40  51
ENDBRANCH  24  25
ENDBRANCH   4  24
BRANCH   6  57
ATOM     57  O   UNL     1      23.323  59.241  40.611  1.00  0.00    -0.387 OA
ATOM     58  H   UNL     1      22.696  59.528  41.325  1.00  0.00     0.211 HD
ENDBRANCH   6  57
BRANCH   5  59
ATOM     59  O   UNL     1      25.148  57.273  40.097  1.00  0.00    -0.385 OA
ATOM     60  H   UNL     1      24.403  56.696  40.413  1.00  0.00     0.211 HD
ENDBRANCH   5  59
TORSDOF 16
ENDMDL
MODEL 9
REMARK VINA RESULT:   -10.909      2.100      3.945
REMARK INTER + INTRA:         -19.944
REMARK INTER:                 -18.255
REMARK INTRA:                  -1.688
REMARK UNBOUND:                -1.701
REMARK SMILES C[C@H]1O[C@@H](O[C@H]2CC[C@]3(C=O)[C@H]4[C@H](O)C[C@]5(C)[C@@H](C6=CC(=O)OC6)CC[C@]5(O)[C@@H]4CC[C@]3(O)C2)[C@H](O)[C@H](O)[C@H]1O[C@@H]1O[C@H](CO)[C@@H](O)[C@H](O)[C@H]1O
REMARK SMILES IDX 1 1 2 2 3 3 4 4 35 5 37 6 39 7 40 8 41 9 42 10 50 11 43 12
REMARK SMILES IDX 48 13 46 14 51 15 44 17 45 18 49 20 47 22 5 24 6 25 7 26
REMARK SMILES IDX 34 27 8 28 32 29 9 30 31 31 12 32 30 33 13 34 29 35 15 36
REMARK SMILES IDX 27 37 16 38 26 39 18 40 25 41 17 42 33 43 10 45 11 46 14 47
REMARK SMILES IDX 28 49 19 51 20 52 24 53 21 54 23 55 22 56 38 57 36 59
REMARK H PARENT 51 16 45 19 49 21 47 23 33 44 14 48 28 50 38 58 36 60
ROOT
ATOM      1  C   UNL     1      25.174  57.016  40.825  1.00  0.00     0.041 C 
ATOM      2  C   UNL     1      25.038  58.312  41.641  1.00  0.00     0.150 C 
ATOM      3  O   UNL     1      26.223  58.409  42.438  1.00  0.00    -0.344 OA
ATOM      4  C   UNL     1      26.433  59.719  42.918  1.00  0.00     0.282 C 
ATOM      5  C   UNL     1      26.811  60.670  41.757  1.00  0.00     0.202 C 
ATOM      6  C   UNL     1      26.132  60.234  40.434  1.00  0.00     0.180 C 
ATOM      7  C   UNL     1      24.781  59.569  40.723  1.00  0.00     0.181 C 
ENDROOT
BRANCH   7   8
ATOM      8  O   UNL     1      24.196  59.168  39.490  1.00  0.00    -0.341 OA
BRANCH   8   9
ATOM      9  C   UNL     1      23.132  59.980  39.035  1.00  0.00     0.282 C 
ATOM     10  O   UNL     1      23.667  60.941  38.136  1.00  0.00    -0.341 OA
ATOM     11  C   UNL     1      22.504  60.678  40.279  1.00  0.00     0.202 C 
ATOM     12  C   UNL     1      22.612  61.683  37.528  1.00  0.00     0.178 C 
ATOM     13  C   UNL     1      22.230  62.182  40.024  1.00  0.00     0.179 C 
ATOM     14  C   UNL     1      21.735  62.445  38.589  1.00  0.00     0.177 C 
BRANCH  11  15
ATOM     15  O   UNL     1      21.370  59.984  40.742  1.00  0.00    -0.385 OA
ATOM     16  H   UNL     1      21.048  59.387  40.022  1.00  0.00     0.211 HD
ENDBRANCH  11  15
BRANCH  12  17
ATOM     17  C   UNL     1      23.223  62.649  36.503  1.00  0.00     0.191 C 
BRANCH  17  18
ATOM     18  O   UNL     1      22.309  63.653  36.151  1.00  0.00    -0.394 OA
ATOM     19  H   UNL     1      21.571  63.206  35.658  1.00  0.00     0.210 HD
ENDBRANCH  17  18
ENDBRANCH  12  17
BRANCH  13  20
ATOM     20  O   UNL     1      23.401  62.942  40.249  1.00  0.00    -0.387 OA
ATOM     21  H   UNL     1      23.402  63.749  39.675  1.00  0.00     0.211 HD
ENDBRANCH  13  20
BRANCH  14  22
ATOM     22  O   UNL     1      20.366  62.145  38.448  1.00  0.00    -0.387 OA
ATOM     23  H   UNL     1      19.834  62.876  38.849  1.00  0.00     0.211 HD
ENDBRANCH  14  22
ENDBRANCH   8   9
ENDBRANCH   7   8
BRANCH   4  24
ATOM     24  O   UNL     1      27.518  59.695  43.830  1.00  0.00    -0.346 OA
BRANCH  24  25
ATOM     25  C   UNL     1      27.461  58.655  44.792  1.00  0.00     0.124 C 
ATOM     26  C   UNL     1      28.247  57.434  44.265  1.00  0.00     0.033 C 
ATOM     27  C   UNL     1      28.104  59.164  46.083  1.00  0.00     0.068 C 
ATOM     28  C   UNL     1      29.725  57.393  44.726  1.00  0.00     0.020 C 
ATOM     29  C   UNL     1      29.546  59.735  45.808  1.00  0.00     0.080 C 
ATOM     30  C   UNL     1      30.412  58.788  44.823  1.00  0.00     0.060 C 
ATOM     31  C   UNL     1      30.254  59.899  47.161  1.00  0.00     0.037 C 
ATOM     32  C   UNL     1      31.902  58.559  45.362  1.00  0.00     0.040 C 
ATOM     33  C   UNL     1      31.633  60.554  46.995  1.00  0.00     0.010 C 
ATOM     34  C   UNL     1      32.822  57.828  44.296  1.00  0.00     0.119 C 
ATOM     35  C   UNL     1      32.530  59.882  45.905  1.00  0.00     0.028 C 
ATOM     36  C   UNL     1      34.191  58.517  44.111  1.00  0.00     0.042 C 
ATOM     37  C   UNL     1      34.021  59.721  46.410  1.00  0.00     0.074 C 
ATOM     38  C   UNL     1      34.924  58.837  45.436  1.00  0.00     0.006 C 
ATOM     39  C   UNL     1      34.149  58.984  47.783  1.00  0.00     0.037 C 
ATOM     40  C   UNL     1      35.247  57.561  46.295  1.00  0.00     0.028 C 
ATOM     41  C   UNL     1      35.419  58.150  47.687  1.00  0.00     0.012 C 
ATOM     42  C   UNL     1      36.227  59.633  45.076  1.00  0.00     0.015 C 
BRANCH  29  43
ATOM     43  O   UNL     1      29.425  61.023  45.231  1.00  0.00    -0.389 OA
ATOM     44  H   UNL     1      29.408  60.934  44.243  1.00  0.00     0.211 HD
ENDBRANCH  29  43
BRANCH  30  45
ATOM     45  C   UNL     1      30.481  59.443  43.434  1.00  0.00     0.234 C 
ATOM     46  O   UNL     1      31.125  60.459  43.222  1.00  0.00    -0.303 OA
ENDBRANCH  30  45
BRANCH  34  47
ATOM     47  O   UNL     1      33.019  56.463  44.591  1.00  0.00    -0.393 OA
ATOM     48  H   UNL     1      32.227  55.947  44.299  1.00  0.00     0.210 HD
ENDBRANCH  34  47
BRANCH  37  49
ATOM     49  O   UNL     1      34.579  61.015  46.542  1.00  0.00    -0.389 OA
ATOM     50  H   UNL     1      33.996  61.666  46.074  1.00  0.00     0.211 HD
ENDBRANCH  37  49
BRANCH  40  51
ATOM     51  C   UNL     1      36.318  56.557  45.883  1.00  0.00    -0.022 C 
ATOM     52  C   UNL     1      36.400  55.823  44.777  1.00  0.00     0.096 C 
ATOM     53  C   UNL     1      37.473  56.197  46.793  1.00  0.00     0.265 C 
ATOM     54  C   UNL     1      37.584  55.015  44.920  1.00  0.00     0.331 C 
ATOM     55  O   UNL     1      38.189  55.247  46.093  1.00  0.00    -0.458 OA
ATOM     56  O   UNL     1      37.988  54.210  44.099  1.00  0.00    -0.247 OA
ENDBRANCH  40  51
ENDBRANCH  24  25
ENDBRANCH   4  24
BRANCH   6  57
ATOM     57  O   UNL     1      26.050  61.296  39.518  1.00  0.00    -0.387 OA
ATOM     58  H   UNL     1      25.671  60.937  38.673  1.00  0.00     0.211 HD
ENDBRANCH   6  57
BRANCH   5  59
ATOM     59  O   UNL     1      26.505  61.997  42.119  1.00  0.00    -0.385 OA
ATOM     60  H   UNL     1      27.304  62.383  42.568  1.00  0.00     0.211 HD
ENDBRANCH   5  59
TORSDOF 16
ENDMDL
