REMARK  Name = 
REMARK  17 active torsions:
REMARK  status: ('A' for Active; 'I' for Inactive)
REMARK    1  A    between atoms: C_1  and  C_2
REMARK    2  A    between atoms: C_2  and  C_4
REMARK    3  A    between atoms: C_4  and  O_5
REMARK    4  A    between atoms: C_4  and  C_6
REMARK    5  A    between atoms: C_4  and  C_9
REMARK    6  A    between atoms: C_6  and  C_7
REMARK    7  A    between atoms: C_6  and  C_8
REMARK    8  A    between atoms: C_11  and  O_12
REMARK    9  A    between atoms: C_23  and  C_24
REMARK   10  A    between atoms: C_26  and  C_27
REMARK   11  A    between atoms: C_30  and  O_31
REMARK   12  A    between atoms: O_31  and  C_32
REMARK   13  A    between atoms: C_34  and  C_35
REMARK   14  A    between atoms: C_35  and  O_36
REMARK   15  A    between atoms: C_37  and  O_38
REMARK   16  A    between atoms: C_39  and  O_40
REMARK   17  A    between atoms: C_41  and  O_42
REMARK                            x       y       z     vdW  Elec       q    Type
REMARK                         _______ _______ _______ _____ _____    ______ ____
ROOT
ATOM      1  C   UNL     1      28.261  56.618  45.543  0.00  0.00    +0.000 C 
ATOM      2  O   UNL     1      29.443  56.221  44.868  0.00  0.00    +0.000 OA
ATOM      3  C   UNL     1      29.322  56.702  43.550  0.00  0.00    +0.000 C 
ATOM      4  C   UNL     1      28.360  57.901  43.578  0.00  0.00    +0.000 C 
ATOM      5  C   UNL     1      27.348  57.386  44.556  0.00  0.00    +0.000 C 
ATOM      6  O   UNL     1      26.400  56.612  43.828  0.00  0.00    +0.000 OA
ATOM      7  C   UNL     1      26.564  56.915  42.452  0.00  0.00    +0.000 C 
ATOM      8  C   UNL     1      25.333  57.432  41.778  0.00  0.00    +0.000 C 
ATOM      9  C   UNL     1      25.485  58.712  41.452  0.00  0.00    +0.000 C 
ATOM     10  C   UNL     1      24.586  59.562  40.660  0.00  0.00    +0.000 C 
ATOM     11  C   UNL     1      25.198  60.454  39.821  0.00  0.00    +0.000 C 
ATOM     12  C   UNL     1      26.735  60.382  39.728  0.00  0.00    +0.000 C 
ATOM     13  C   UNL     1      27.354  60.411  41.134  0.00  0.00    +0.000 C 
ATOM     14  C   UNL     1      26.710  59.327  42.069  0.00  0.00    +0.000 C 
ATOM     15  C   UNL     1      26.219  60.051  43.352  0.00  0.00    +0.000 C 
ATOM     16  C   UNL     1      27.572  58.050  42.298  0.00  0.00    +0.000 C 
ATOM     17  C   UNL     1      24.390  61.491  39.023  0.00  0.00    +0.000 C 
ATOM     18  C   UNL     1      24.658  62.842  39.749  0.00  0.00    +0.000 C 
ATOM     19  C   UNL     1      24.836  61.589  37.531  0.00  0.00    +0.000 C 
ATOM     20  C   UNL     1      23.995  62.626  36.748  0.00  0.00    +0.000 C 
ATOM     21  C   UNL     1      22.492  62.304  36.814  0.00  0.00    +0.000 C 
ATOM     22  C   UNL     1      22.014  62.139  38.269  0.00  0.00    +0.000 C 
ATOM     23  C   UNL     1      22.871  61.077  38.980  0.00  0.00    +0.000 C 
ATOM     24  C   UNL     1      22.355  60.722  40.369  0.00  0.00    +0.000 C 
ATOM     25  C   UNL     1      23.089  59.466  40.854  0.00  0.00    +0.000 C 
ENDROOT
BRANCH   3  26
ATOM     26  O   UNL     1      30.569  57.065  43.019  0.00  0.00    +0.000 OA
ATOM     27  H   UNL     1      31.190  57.179  43.786  0.00  0.00    +0.000 HD
ENDBRANCH   3  26
BRANCH   1  28
ATOM     28  C   UNL     1      27.664  55.425  46.365  0.00  0.00    +0.000 C 
BRANCH  28  30
ATOM     29  C   UNL     1      27.184  57.400  48.073  0.00  0.00    +0.000 C 
ATOM     30  C   UNL     1      26.996  55.974  47.638  0.00  0.00    +0.000 C 
ATOM     31  O   UNL     1      26.295  55.252  48.330  0.00  0.00    +0.000 OA
ENDBRANCH  28  30
BRANCH  28  32
ATOM     32  C   UNL     1      28.759  54.347  46.731  0.00  0.00    +0.000 C 
ATOM     33  C   UNL     1      28.189  52.918  46.788  0.00  0.00    +0.000 C 
ATOM     34  C   UNL     1      29.480  54.644  48.064  0.00  0.00    +0.000 C 
ENDBRANCH  28  32
BRANCH  28  35
ATOM     35  O   UNL     1      26.678  54.855  45.528  0.00  0.00    +0.000 OA
ATOM     36  H   UNL     1      27.115  54.313  44.824  0.00  0.00    +0.000 HD
ENDBRANCH  28  35
ENDBRANCH   1  28
BRANCH  21  37
ATOM     37  O   UNL     1      21.769  63.369  36.216  0.00  0.00    +0.000 OA
BRANCH  37  38
ATOM     38  C   UNL     1      20.389  63.092  36.044  0.00  0.00    +0.000 C 
ATOM     39  O   UNL     1      20.285  61.798  35.435  0.00  0.00    +0.000 OA
ATOM     40  C   UNL     1      19.153  61.578  34.584  0.00  0.00    +0.000 C 
ATOM     41  C   UNL     1      17.937  62.472  34.947  0.00  0.00    +0.000 C 
ATOM     42  C   UNL     1      18.294  63.980  34.895  0.00  0.00    +0.000 C 
ATOM     43  C   UNL     1      19.796  64.216  35.167  0.00  0.00    +0.000 C 
BRANCH  41  44
ATOM     44  O   UNL     1      17.568  62.157  36.270  0.00  0.00    +0.000 OA
ATOM     45  H   UNL     1      17.805  61.205  36.422  0.00  0.00    +0.000 HD
ENDBRANCH  41  44
BRANCH  42  46
ATOM     46  O   UNL     1      17.912  64.599  33.692  0.00  0.00    +0.000 OA
ATOM     47  H   UNL     1      18.716  65.001  33.280  0.00  0.00    +0.000 HD
ENDBRANCH  42  46
BRANCH  43  48
ATOM     48  O   UNL     1      20.013  65.495  35.708  0.00  0.00    +0.000 OA
ATOM     49  H   UNL     1      20.872  65.463  36.204  0.00  0.00    +0.000 HD
ENDBRANCH  43  48
BRANCH  40  50
ATOM     50  C   UNL     1      19.575  61.620  33.101  0.00  0.00    +0.000 C 
BRANCH  50  51
ATOM     51  O   UNL     1      20.966  61.496  32.976  0.00  0.00    +0.000 OA
ATOM     52  H   UNL     1      21.178  60.532  33.087  0.00  0.00    +0.000 HD
ENDBRANCH  50  51
ENDBRANCH  40  50
ENDBRANCH  37  38
ENDBRANCH  21  37
TORSDOF 12
