REMARK  Name = 
REMARK  19 active torsions:
REMARK  status: ('A' for Active; 'I' for Inactive)
REMARK    1  A    between atoms: C_1  and  C_2
REMARK    2  A    between atoms: C_2  and  O_3
REMARK    3  A    between atoms: C_2  and  C_4
REMARK    4  A    between atoms: C_7  and  O_8
REMARK    5  A    between atoms: C_14  and  O_15
REMARK    6  A    between atoms: O_15  and  C_16
REMARK    7  A    between atoms: C_18  and  O_19
REMARK    8  A    between atoms: C_20  and  O_21
REMARK    9  A    between atoms: O_21  and  C_22
REMARK   10  A    between atoms: C_24  and  O_25
REMARK   11  A    between atoms: C_26  and  O_27
REMARK   12  A    between atoms: O_27  and  C_28
REMARK   13  A    between atoms: C_30  and  O_31
REMARK   14  A    between atoms: C_32  and  O_33
REMARK   15  A    between atoms: C_34  and  C_35
REMARK   16  A    between atoms: C_37  and  C_38
REMARK   17  A    between atoms: C_40  and  C_41
REMARK   18  A    between atoms: C_45  and  C_46
REMARK   19  A    between atoms: C_50  and  C_51
REMARK                            x       y       z     vdW  Elec       q    Type
REMARK                         _______ _______ _______ _____ _____    ______ ____
ROOT
ATOM      1  C   UNL     1      24.193  60.561  38.802  0.00  0.00    +0.000 C 
ATOM      2  C   UNL     1      24.581  60.410  37.294  0.00  0.00    +0.000 C 
ATOM      3  C   UNL     1      23.293  60.125  36.521  0.00  0.00    +0.000 C 
ATOM      4  C   UNL     1      22.339  61.347  36.648  0.00  0.00    +0.000 C 
ATOM      5  C   UNL     1      22.576  62.066  38.007  0.00  0.00    +0.000 C 
ATOM      6  C   UNL     1      21.367  62.902  38.419  0.00  0.00    +0.000 C 
ATOM      7  O   UNL     1      22.898  61.134  39.015  0.00  0.00    +0.000 OA
ENDROOT
BRANCH   3   8
ATOM      8  O   UNL     1      23.516  59.774  35.178  0.00  0.00    +0.000 OA
ATOM      9  H   UNL     1      23.024  58.932  34.999  0.00  0.00    +0.000 HD
ENDBRANCH   3   8
BRANCH   1  10
ATOM     10  O   UNL     1      24.167  59.264  39.386  0.00  0.00    +0.000 OA
BRANCH  10  20
ATOM     11  C   UNL     1      28.166  56.991  47.803  0.00  0.00    +0.000 C 
ATOM     12  C   UNL     1      26.670  57.407  47.953  0.00  0.00    +0.000 C 
ATOM     13  C   UNL     1      26.344  58.388  46.818  0.00  0.00    +0.000 C 
ATOM     14  C   UNL     1      27.705  58.788  46.202  0.00  0.00    +0.000 C 
ATOM     15  C   UNL     1      27.647  59.294  44.715  0.00  0.00    +0.000 C 
ATOM     16  C   UNL     1      26.793  60.582  44.603  0.00  0.00    +0.000 C 
ATOM     17  C   UNL     1      26.287  60.902  43.224  0.00  0.00    +0.000 C 
ATOM     18  C   UNL     1      26.452  60.091  42.160  0.00  0.00    +0.000 C 
ATOM     19  C   UNL     1      25.679  60.371  40.905  0.00  0.00    +0.000 C 
ATOM     20  C   UNL     1      24.634  59.240  40.730  0.00  0.00    +0.000 C 
ATOM     21  C   UNL     1      25.183  57.821  41.078  0.00  0.00    +0.000 C 
ATOM     22  C   UNL     1      26.715  57.808  41.112  0.00  0.00    +0.000 C 
ATOM     23  C   UNL     1      27.264  58.793  42.215  0.00  0.00    +0.000 C 
ATOM     24  C   UNL     1      28.723  59.131  41.798  0.00  0.00    +0.000 C 
ATOM     25  C   UNL     1      27.170  58.207  43.690  0.00  0.00    +0.000 C 
ATOM     26  C   UNL     1      27.983  56.893  43.871  0.00  0.00    +0.000 C 
ATOM     27  C   UNL     1      27.961  56.396  45.326  0.00  0.00    +0.000 C 
ATOM     28  C   UNL     1      28.511  57.463  46.339  0.00  0.00    +0.000 C 
ATOM     29  C   UNL     1      30.022  57.667  46.064  0.00  0.00    +0.000 C 
BRANCH  11  31
ATOM     30  C   UNL     1      29.552  56.533  50.012  0.00  0.00    +0.000 C 
ATOM     31  C   UNL     1      28.988  57.576  49.023  0.00  0.00    +0.000 C 
BRANCH  31  32
ATOM     32  O   UNL     1      28.168  58.439  49.778  0.00  0.00    +0.000 OA
ATOM     33  H   UNL     1      27.320  58.571  49.278  0.00  0.00    +0.000 HD
ENDBRANCH  31  32
ENDBRANCH  11  31
BRANCH  14  34
ATOM     34  O   UNL     1      28.312  59.778  47.003  0.00  0.00    +0.000 OA
ATOM     35  H   UNL     1      28.793  60.415  46.413  0.00  0.00    +0.000 HD
ENDBRANCH  14  34
ENDBRANCH  10  20
ENDBRANCH   1  10
BRANCH   4  36
ATOM     36  O   UNL     1      22.623  62.309  35.642  0.00  0.00    +0.000 OA
BRANCH  36  37
ATOM     37  C   UNL     1      21.518  62.637  34.818  0.00  0.00    +0.000 C 
ATOM     38  C   UNL     1      21.018  61.329  34.150  0.00  0.00    +0.000 C 
ATOM     39  C   UNL     1      19.510  61.158  34.376  0.00  0.00    +0.000 C 
ATOM     40  C   UNL     1      18.743  62.455  34.075  0.00  0.00    +0.000 C 
ATOM     41  C   UNL     1      19.420  63.649  34.822  0.00  0.00    +0.000 C 
ATOM     42  C   UNL     1      18.411  64.384  35.703  0.00  0.00    +0.000 C 
ATOM     43  O   UNL     1      20.509  63.220  35.632  0.00  0.00    +0.000 OA
BRANCH  39  44
ATOM     44  O   UNL     1      18.992  60.055  33.676  0.00  0.00    +0.000 OA
ATOM     45  H   UNL     1      19.285  59.234  34.151  0.00  0.00    +0.000 HD
ENDBRANCH  39  44
BRANCH  40  46
ATOM     46  O   UNL     1      18.751  62.719  32.675  0.00  0.00    +0.000 OA
BRANCH  46  47
ATOM     47  C   UNL     1      18.301  64.025  32.342  0.00  0.00    +0.000 C 
ATOM     48  C   UNL     1      18.552  64.245  30.816  0.00  0.00    +0.000 C 
ATOM     49  C   UNL     1      17.370  63.636  30.060  0.00  0.00    +0.000 C 
ATOM     50  C   UNL     1      16.066  64.383  30.460  0.00  0.00    +0.000 C 
ATOM     51  C   UNL     1      16.184  64.970  31.899  0.00  0.00    +0.000 C 
ATOM     52  C   UNL     1      14.807  65.230  32.505  0.00  0.00    +0.000 C 
ATOM     53  O   UNL     1      16.923  64.101  32.732  0.00  0.00    +0.000 OA
BRANCH  49  54
ATOM     54  O   UNL     1      17.553  63.603  28.666  0.00  0.00    +0.000 OA
ATOM     55  H   UNL     1      16.910  64.241  28.260  0.00  0.00    +0.000 HD
ENDBRANCH  49  54
BRANCH  50  56
ATOM     56  O   UNL     1      15.742  65.416  29.560  0.00  0.00    +0.000 OA
ATOM     57  H   UNL     1      14.756  65.530  29.570  0.00  0.00    +0.000 HD
ENDBRANCH  50  56
ENDBRANCH  46  47
ENDBRANCH  40  46
ENDBRANCH  36  37
ENDBRANCH   4  36
TORSDOF 13
