MODEL 1
REMARK VINA RESULT:   -11.509      0.000      0.000
REMARK INTER + INTRA:         -22.078
REMARK INTER:                 -19.919
REMARK INTRA:                  -2.159
REMARK UNBOUND:                -2.159
REMARK SMILES CC1(C)CC[C@]2(C(=O)O[C@@H]3OC[C@H](O)[C@H](O)[C@H]3O)CC[C@@]3(C)C(=CC[C@@H]4[C@@]5(C)CC[C@H](O[C@@H]6OC[C@H](O[C@@H]7O[C@H](CO)[C@@H](O)[C@H](O)[C@H]7O)[C@H](O)[C@H]6O)C(C)(C)[C@H]5CC[C@]43C)[C@@H]2C1
REMARK SMILES IDX 32 1 31 2 2 3 4 4 62 5 5 6 61 7 6 8 23 9 19 10 21 11 24 12
REMARK SMILES IDX 20 13 59 14 25 15 58 16 26 17 57 18 27 19 56 20 29 21 53 22
REMARK SMILES IDX 30 23 1 24 3 25 22 26 60 27 28 28 54 29 55 30 7 31 8 32 9 33
REMARK SMILES IDX 10 34 11 35 17 36 12 37 15 38 13 39 18 40 16 42 14 44 33 46
REMARK SMILES IDX 34 47 51 48 35 49 49 50 36 51 52 52 50 54 37 56 38 57 39 58
REMARK SMILES IDX 47 59 40 60 45 61 43 62 48 63 41 65 42 66 46 68 44 70
REMARK H PARENT 18 41 16 43 14 45 52 53 50 55 48 64 42 67 46 69 44 71
ROOT
ATOM      1  O   UNL     1      24.453  59.685  41.521  1.00  0.00    -0.346 OA
ENDROOT
BRANCH   1   2
ATOM      2  C   UNL     1      25.723  59.958  42.098  1.00  0.00     0.127 C 
ATOM      3  C   UNL     1      29.954  59.163  50.075  1.00  0.00    -0.035 C 
ATOM      4  C   UNL     1      31.199  58.386  50.620  1.00  0.00     0.007 C 
ATOM      5  C   UNL     1      29.553  58.674  48.643  1.00  0.00     0.015 C 
ATOM      6  C   UNL     1      32.071  57.876  49.472  1.00  0.00     0.020 C 
ATOM      7  C   UNL     1      29.772  57.160  48.477  1.00  0.00     0.033 C 
ATOM      8  C   UNL     1      31.316  56.755  48.669  1.00  0.00     0.075 C 
ATOM      9  C   UNL     1      29.123  56.696  47.177  1.00  0.00    -0.063 C 
ATOM     10  C   UNL     1      32.100  56.497  47.334  1.00  0.00     0.020 C 
ATOM     11  C   UNL     1      29.942  56.349  45.940  1.00  0.00    -0.006 C 
ATOM     12  C   UNL     1      27.776  56.589  47.123  1.00  0.00    -0.027 C 
ATOM     13  C   UNL     1      31.373  56.964  46.085  1.00  0.00     0.013 C 
ATOM     14  C   UNL     1      29.220  56.868  44.554  1.00  0.00    -0.020 C 
ATOM     15  C   UNL     1      27.076  56.229  45.837  1.00  0.00     0.032 C 
ATOM     16  C   UNL     1      29.764  58.236  44.017  1.00  0.00     0.008 C 
ATOM     17  C   UNL     1      27.669  57.161  44.760  1.00  0.00     0.006 C 
ATOM     18  C   UNL     1      28.827  59.018  43.040  1.00  0.00     0.005 C 
ATOM     19  C   UNL     1      26.817  57.359  43.427  1.00  0.00    -0.025 C 
ATOM     20  C   UNL     1      27.684  58.196  42.346  1.00  0.00     0.003 C 
ATOM     21  C   UNL     1      25.480  58.120  43.777  1.00  0.00     0.010 C 
ATOM     22  C   UNL     1      26.814  59.076  41.345  1.00  0.00    -0.006 C 
ATOM     23  C   UNL     1      25.590  59.629  43.601  1.00  0.00     0.033 C 
ATOM     24  C   UNL     1      28.789  58.970  51.073  1.00  0.00     0.011 C 
ATOM     25  C   UNL     1      30.259  60.674  49.981  1.00  0.00     0.011 C 
ATOM     26  C   UNL     1      30.054  54.779  46.023  1.00  0.00     0.017 C 
ATOM     27  C   UNL     1      29.565  55.796  43.463  1.00  0.00     0.012 C 
ATOM     28  C   UNL     1      26.381  55.956  42.901  1.00  0.00     0.012 C 
ATOM     29  C   UNL     1      26.145  58.132  40.298  1.00  0.00     0.014 C 
ATOM     30  C   UNL     1      27.705  60.016  40.486  1.00  0.00     0.014 C 
BRANCH   8  31
ATOM     31  C   UNL     1      31.429  55.442  49.461  1.00  0.00     0.315 C 
ATOM     32  O   UNL     1      32.449  55.155  50.069  1.00  0.00    -0.252 OA
BRANCH  31  33
ATOM     33  O   UNL     1      30.331  54.637  49.544  1.00  0.00    -0.432 OA
BRANCH  33  34
ATOM     34  C   UNL     1      30.343  53.256  49.696  1.00  0.00     0.342 C 
ATOM     35  O   UNL     1      29.513  52.674  48.709  1.00  0.00    -0.338 OA
ATOM     36  C   UNL     1      29.901  52.844  51.137  1.00  0.00     0.214 C 
ATOM     37  C   UNL     1      28.142  53.089  48.798  1.00  0.00     0.199 C 
ATOM     38  C   UNL     1      28.375  52.589  51.215  1.00  0.00     0.180 C 
ATOM     39  C   UNL     1      27.634  53.496  50.213  1.00  0.00     0.171 C 
BRANCH  36  40
ATOM     40  O   UNL     1      30.588  51.708  51.596  1.00  0.00    -0.384 OA
ATOM     41  H   UNL     1      29.957  50.944  51.565  1.00  0.00     0.211 HD
ENDBRANCH  36  40
BRANCH  38  42
ATOM     42  O   UNL     1      27.883  52.673  52.529  1.00  0.00    -0.387 OA
ATOM     43  H   UNL     1      27.230  53.417  52.571  1.00  0.00     0.211 HD
ENDBRANCH  38  42
BRANCH  39  44
ATOM     44  O   UNL     1      27.832  54.879  50.420  1.00  0.00    -0.388 OA
ATOM     45  H   UNL     1      28.612  55.207  49.906  1.00  0.00     0.211 HD
ENDBRANCH  39  44
ENDBRANCH  33  34
ENDBRANCH  31  33
ENDBRANCH   8  31
ENDBRANCH   1   2
BRANCH   1  46
ATOM     46  C   UNL     1      24.113  60.449  40.390  1.00  0.00     0.281 C 
ATOM     47  O   UNL     1      24.667  61.742  40.531  1.00  0.00    -0.347 OA
ATOM     48  C   UNL     1      22.555  60.500  40.341  1.00  0.00     0.202 C 
ATOM     49  C   UNL     1      24.360  62.607  39.434  1.00  0.00     0.198 C 
ATOM     50  C   UNL     1      22.028  61.743  39.580  1.00  0.00     0.179 C 
ATOM     51  C   UNL     1      23.104  62.211  38.605  1.00  0.00     0.179 C 
BRANCH  48  52
ATOM     52  O   UNL     1      22.067  59.309  39.770  1.00  0.00    -0.385 OA
ATOM     53  H   UNL     1      22.815  58.657  39.745  1.00  0.00     0.211 HD
ENDBRANCH  48  52
BRANCH  50  54
ATOM     54  O   UNL     1      21.683  62.796  40.460  1.00  0.00    -0.387 OA
ATOM     55  H   UNL     1      22.386  62.889  41.154  1.00  0.00     0.211 HD
ENDBRANCH  50  54
BRANCH  51  56
ATOM     56  O   UNL     1      22.652  63.341  37.886  1.00  0.00    -0.341 OA
BRANCH  56  57
ATOM     57  C   UNL     1      22.253  63.055  36.556  1.00  0.00     0.282 C 
ATOM     58  O   UNL     1      20.843  62.973  36.539  1.00  0.00    -0.341 OA
ATOM     59  C   UNL     1      22.883  61.704  36.121  1.00  0.00     0.202 C 
ATOM     60  C   UNL     1      20.346  62.920  35.202  1.00  0.00     0.178 C 
ATOM     61  C   UNL     1      21.911  60.894  35.211  1.00  0.00     0.179 C 
ATOM     62  C   UNL     1      21.082  61.837  34.317  1.00  0.00     0.177 C 
BRANCH  59  63
ATOM     63  O   UNL     1      24.142  61.914  35.527  1.00  0.00    -0.385 OA
ATOM     64  H   UNL     1      24.523  62.755  35.885  1.00  0.00     0.211 HD
ENDBRANCH  59  63
BRANCH  60  65
ATOM     65  C   UNL     1      18.836  62.656  35.287  1.00  0.00     0.191 C 
BRANCH  65  66
ATOM     66  O   UNL     1      18.548  61.702  36.274  1.00  0.00    -0.394 OA
ATOM     67  H   UNL     1      17.582  61.805  36.496  1.00  0.00     0.210 HD
ENDBRANCH  65  66
ENDBRANCH  60  65
BRANCH  61  68
ATOM     68  O   UNL     1      21.025  60.104  35.980  1.00  0.00    -0.387 OA
ATOM     69  H   UNL     1      21.463  59.253  36.238  1.00  0.00     0.211 HD
ENDBRANCH  61  68
BRANCH  62  70
ATOM     70  O   UNL     1      21.900  62.411  33.323  1.00  0.00    -0.387 OA
ATOM     71  H   UNL     1      22.702  61.850  33.180  1.00  0.00     0.211 HD
ENDBRANCH  62  70
ENDBRANCH  56  57
ENDBRANCH  51  56
ENDBRANCH   1  46
TORSDOF 17
ENDMDL
MODEL 2
REMARK VINA RESULT:   -11.505      2.865      5.369
REMARK INTER + INTRA:         -22.070
REMARK INTER:                 -20.061
REMARK INTRA:                  -2.009
REMARK UNBOUND:                -2.159
REMARK SMILES CC1(C)CC[C@]2(C(=O)O[C@@H]3OC[C@H](O)[C@H](O)[C@H]3O)CC[C@@]3(C)C(=CC[C@@H]4[C@@]5(C)CC[C@H](O[C@@H]6OC[C@H](O[C@@H]7O[C@H](CO)[C@@H](O)[C@H](O)[C@H]7O)[C@H](O)[C@H]6O)C(C)(C)[C@H]5CC[C@]43C)[C@@H]2C1
REMARK SMILES IDX 32 1 31 2 2 3 4 4 62 5 5 6 61 7 6 8 23 9 19 10 21 11 24 12
REMARK SMILES IDX 20 13 59 14 25 15 58 16 26 17 57 18 27 19 56 20 29 21 53 22
REMARK SMILES IDX 30 23 1 24 3 25 22 26 60 27 28 28 54 29 55 30 7 31 8 32 9 33
REMARK SMILES IDX 10 34 11 35 17 36 12 37 15 38 13 39 18 40 16 42 14 44 33 46
REMARK SMILES IDX 34 47 51 48 35 49 49 50 36 51 52 52 50 54 37 56 38 57 39 58
REMARK SMILES IDX 47 59 40 60 45 61 43 62 48 63 41 65 42 66 46 68 44 70
REMARK H PARENT 18 41 16 43 14 45 52 53 50 55 48 64 42 67 46 69 44 71
ROOT
ATOM      1  O   UNL     1      26.376  60.238  40.154  1.00  0.00    -0.346 OA
ENDROOT
BRANCH   1   2
ATOM      2  C   UNL     1      26.327  59.365  41.275  1.00  0.00     0.127 C 
ATOM      3  C   UNL     1      31.077  52.528  44.861  1.00  0.00    -0.035 C 
ATOM      4  C   UNL     1      31.852  52.270  46.197  1.00  0.00     0.007 C 
ATOM      5  C   UNL     1      30.682  54.035  44.708  1.00  0.00     0.015 C 
ATOM      6  C   UNL     1      31.471  53.303  47.258  1.00  0.00     0.020 C 
ATOM      7  C   UNL     1      31.765  54.968  45.276  1.00  0.00     0.033 C 
ATOM      8  C   UNL     1      31.996  54.727  46.849  1.00  0.00     0.075 C 
ATOM      9  C   UNL     1      31.460  56.405  44.865  1.00  0.00    -0.063 C 
ATOM     10  C   UNL     1      31.315  55.787  47.785  1.00  0.00     0.020 C 
ATOM     11  C   UNL     1      30.903  57.428  45.846  1.00  0.00    -0.006 C 
ATOM     12  C   UNL     1      31.693  56.780  43.588  1.00  0.00    -0.027 C 
ATOM     13  C   UNL     1      30.306  56.679  47.083  1.00  0.00     0.013 C 
ATOM     14  C   UNL     1      29.771  58.401  45.150  1.00  0.00    -0.020 C 
ATOM     15  C   UNL     1      31.319  58.158  43.102  1.00  0.00     0.032 C 
ATOM     16  C   UNL     1      28.291  57.961  45.417  1.00  0.00     0.008 C 
ATOM     17  C   UNL     1      29.864  58.386  43.561  1.00  0.00     0.006 C 
ATOM     18  C   UNL     1      27.218  58.502  44.416  1.00  0.00     0.005 C 
ATOM     19  C   UNL     1      29.038  59.521  42.806  1.00  0.00    -0.025 C 
ATOM     20  C   UNL     1      27.620  59.750  43.553  1.00  0.00     0.003 C 
ATOM     21  C   UNL     1      28.813  59.086  41.306  1.00  0.00     0.010 C 
ATOM     22  C   UNL     1      26.445  60.242  42.598  1.00  0.00    -0.006 C 
ATOM     23  C   UNL     1      27.489  58.365  41.088  1.00  0.00     0.033 C 
ATOM     24  C   UNL     1      31.971  52.067  43.687  1.00  0.00     0.011 C 
ATOM     25  C   UNL     1      29.774  51.700  44.824  1.00  0.00     0.011 C 
ATOM     26  C   UNL     1      32.191  58.214  46.302  1.00  0.00     0.017 C 
ATOM     27  C   UNL     1      29.942  59.808  45.822  1.00  0.00     0.012 C 
ATOM     28  C   UNL     1      29.908  60.815  42.746  1.00  0.00     0.012 C 
ATOM     29  C   UNL     1      26.675  61.746  42.254  1.00  0.00     0.014 C 
ATOM     30  C   UNL     1      25.072  60.230  43.325  1.00  0.00     0.014 C 
BRANCH   8  31
ATOM     31  C   UNL     1      33.494  54.798  47.186  1.00  0.00     0.315 C 
ATOM     32  O   UNL     1      33.933  54.323  48.222  1.00  0.00    -0.252 OA
BRANCH  31  33
ATOM     33  O   UNL     1      34.344  55.329  46.260  1.00  0.00    -0.432 OA
BRANCH  33  34
ATOM     34  C   UNL     1      35.377  54.656  45.620  1.00  0.00     0.342 C 
ATOM     35  O   UNL     1      36.491  54.585  46.489  1.00  0.00    -0.338 OA
ATOM     36  C   UNL     1      35.744  55.343  44.266  1.00  0.00     0.214 C 
ATOM     37  C   UNL     1      37.005  55.871  46.865  1.00  0.00     0.199 C 
ATOM     38  C   UNL     1      36.871  56.390  44.445  1.00  0.00     0.180 C 
ATOM     39  C   UNL     1      36.786  57.028  45.845  1.00  0.00     0.171 C 
BRANCH  36  40
ATOM     40  O   UNL     1      36.123  54.411  43.286  1.00  0.00    -0.384 OA
ATOM     41  H   UNL     1      36.886  54.798  42.784  1.00  0.00     0.211 HD
ENDBRANCH  36  40
BRANCH  38  42
ATOM     42  O   UNL     1      36.907  57.325  43.396  1.00  0.00    -0.387 OA
ATOM     43  H   UNL     1      36.143  57.145  42.791  1.00  0.00     0.211 HD
ENDBRANCH  38  42
BRANCH  39  44
ATOM     44  O   UNL     1      35.566  57.687  46.114  1.00  0.00    -0.388 OA
ATOM     45  H   UNL     1      35.241  58.170  45.314  1.00  0.00     0.211 HD
ENDBRANCH  39  44
ENDBRANCH  33  34
ENDBRANCH  31  33
ENDBRANCH   8  31
ENDBRANCH   1   2
BRANCH   1  46
ATOM     46  C   UNL     1      25.134  60.628  39.622  1.00  0.00     0.281 C 
ATOM     47  O   UNL     1      24.203  59.583  39.828  1.00  0.00    -0.347 OA
ATOM     48  C   UNL     1      25.365  60.893  38.103  1.00  0.00     0.202 C 
ATOM     49  C   UNL     1      22.905  59.876  39.302  1.00  0.00     0.198 C 
ATOM     50  C   UNL     1      24.068  60.727  37.269  1.00  0.00     0.179 C 
ATOM     51  C   UNL     1      22.868  60.957  38.184  1.00  0.00     0.179 C 
BRANCH  48  52
ATOM     52  O   UNL     1      25.919  62.176  37.932  1.00  0.00    -0.385 OA
ATOM     53  H   UNL     1      26.907  62.082  37.933  1.00  0.00     0.211 HD
ENDBRANCH  48  52
BRANCH  50  54
ATOM     54  O   UNL     1      23.983  59.447  36.673  1.00  0.00    -0.387 OA
ATOM     55  H   UNL     1      23.411  58.860  37.232  1.00  0.00     0.211 HD
ENDBRANCH  50  54
BRANCH  51  56
ATOM     56  O   UNL     1      21.666  60.822  37.452  1.00  0.00    -0.341 OA
BRANCH  56  57
ATOM     57  C   UNL     1      21.543  61.735  36.375  1.00  0.00     0.282 C 
ATOM     58  O   UNL     1      20.423  62.556  36.634  1.00  0.00    -0.341 OA
ATOM     59  C   UNL     1      21.340  60.935  35.059  1.00  0.00     0.202 C 
ATOM     60  C   UNL     1      20.365  63.652  35.720  1.00  0.00     0.178 C 
ATOM     61  C   UNL     1      20.359  61.672  34.096  1.00  0.00     0.179 C 
ATOM     62  C   UNL     1      20.518  63.200  34.213  1.00  0.00     0.177 C 
BRANCH  59  63
ATOM     63  O   UNL     1      22.580  60.647  34.460  1.00  0.00    -0.385 OA
ATOM     64  H   UNL     1      23.150  60.182  35.123  1.00  0.00     0.211 HD
ENDBRANCH  59  63
BRANCH  60  65
ATOM     65  C   UNL     1      19.034  64.378  35.964  1.00  0.00     0.191 C 
BRANCH  65  66
ATOM     66  O   UNL     1      18.022  63.470  36.306  1.00  0.00    -0.394 OA
ATOM     67  H   UNL     1      17.164  63.975  36.272  1.00  0.00     0.210 HD
ENDBRANCH  65  66
ENDBRANCH  60  65
BRANCH  61  68
ATOM     68  O   UNL     1      19.014  61.334  34.376  1.00  0.00    -0.387 OA
ATOM     69  H   UNL     1      18.865  60.367  34.221  1.00  0.00     0.211 HD
ENDBRANCH  61  68
BRANCH  62  70
ATOM     70  O   UNL     1      21.743  63.607  33.645  1.00  0.00    -0.387 OA
ATOM     71  H   UNL     1      22.492  63.127  34.078  1.00  0.00     0.211 HD
ENDBRANCH  62  70
ENDBRANCH  56  57
ENDBRANCH  51  56
ENDBRANCH   1  46
TORSDOF 17
ENDMDL
MODEL 3
REMARK VINA RESULT:   -11.475      2.523      4.199
REMARK INTER + INTRA:         -22.019
REMARK INTER:                 -20.698
REMARK INTRA:                  -1.321
REMARK UNBOUND:                -2.159
REMARK SMILES CC1(C)CC[C@]2(C(=O)O[C@@H]3OC[C@H](O)[C@H](O)[C@H]3O)CC[C@@]3(C)C(=CC[C@@H]4[C@@]5(C)CC[C@H](O[C@@H]6OC[C@H](O[C@@H]7O[C@H](CO)[C@@H](O)[C@H](O)[C@H]7O)[C@H](O)[C@H]6O)C(C)(C)[C@H]5CC[C@]43C)[C@@H]2C1
REMARK SMILES IDX 32 1 31 2 2 3 4 4 62 5 5 6 61 7 6 8 23 9 19 10 21 11 24 12
REMARK SMILES IDX 20 13 59 14 25 15 58 16 26 17 57 18 27 19 56 20 29 21 53 22
REMARK SMILES IDX 30 23 1 24 3 25 22 26 60 27 28 28 54 29 55 30 7 31 8 32 9 33
REMARK SMILES IDX 10 34 11 35 17 36 12 37 15 38 13 39 18 40 16 42 14 44 33 46
REMARK SMILES IDX 34 47 51 48 35 49 49 50 36 51 52 52 50 54 37 56 38 57 39 58
REMARK SMILES IDX 47 59 40 60 45 61 43 62 48 63 41 65 42 66 46 68 44 70
REMARK H PARENT 18 41 16 43 14 45 52 53 50 55 48 64 42 67 46 69 44 71
ROOT
ATOM      1  O   UNL     1      26.217  59.047  40.358  1.00  0.00    -0.346 OA
ENDROOT
BRANCH   1   2
ATOM      2  C   UNL     1      26.513  59.067  41.748  1.00  0.00     0.127 C 
ATOM      3  C   UNL     1      27.718  53.252  48.596  1.00  0.00    -0.035 C 
ATOM      4  C   UNL     1      28.890  52.875  49.564  1.00  0.00     0.007 C 
ATOM      5  C   UNL     1      28.213  54.160  47.421  1.00  0.00     0.015 C 
ATOM      6  C   UNL     1      29.987  53.939  49.534  1.00  0.00     0.020 C 
ATOM      7  C   UNL     1      29.629  53.772  46.959  1.00  0.00     0.033 C 
ATOM      8  C   UNL     1      30.709  53.941  48.138  1.00  0.00     0.075 C 
ATOM      9  C   UNL     1      29.951  54.497  45.656  1.00  0.00    -0.063 C 
ATOM     10  C   UNL     1      31.588  55.238  48.043  1.00  0.00     0.020 C 
ATOM     11  C   UNL     1      30.903  55.685  45.603  1.00  0.00    -0.006 C 
ATOM     12  C   UNL     1      29.373  54.068  44.512  1.00  0.00    -0.027 C 
ATOM     13  C   UNL     1      31.079  56.264  47.046  1.00  0.00     0.013 C 
ATOM     14  C   UNL     1      30.380  56.851  44.565  1.00  0.00    -0.020 C 
ATOM     15  C   UNL     1      29.580  54.806  43.213  1.00  0.00     0.032 C 
ATOM     16  C   UNL     1      29.613  58.031  45.254  1.00  0.00     0.008 C 
ATOM     17  C   UNL     1      29.311  56.292  43.527  1.00  0.00     0.006 C 
ATOM     18  C   UNL     1      28.679  58.881  44.332  1.00  0.00     0.005 C 
ATOM     19  C   UNL     1      28.982  57.244  42.290  1.00  0.00    -0.025 C 
ATOM     20  C   UNL     1      28.932  58.784  42.786  1.00  0.00     0.003 C 
ATOM     21  C   UNL     1      27.598  56.816  41.664  1.00  0.00     0.010 C 
ATOM     22  C   UNL     1      27.954  59.715  41.943  1.00  0.00    -0.006 C 
ATOM     23  C   UNL     1      26.421  57.602  42.226  1.00  0.00     0.033 C 
ATOM     24  C   UNL     1      27.093  51.944  48.060  1.00  0.00     0.011 C 
ATOM     25  C   UNL     1      26.621  54.032  49.354  1.00  0.00     0.011 C 
ATOM     26  C   UNL     1      32.262  55.026  45.153  1.00  0.00     0.017 C 
ATOM     27  C   UNL     1      31.673  57.474  43.933  1.00  0.00     0.012 C 
ATOM     28  C   UNL     1      30.046  56.998  41.175  1.00  0.00     0.012 C 
ATOM     29  C   UNL     1      28.620  60.025  40.566  1.00  0.00     0.014 C 
ATOM     30  C   UNL     1      27.786  61.113  42.601  1.00  0.00     0.014 C 
BRANCH   8  31
ATOM     31  C   UNL     1      31.710  52.776  48.116  1.00  0.00     0.315 C 
ATOM     32  O   UNL     1      32.227  52.365  49.144  1.00  0.00    -0.252 OA
BRANCH  31  33
ATOM     33  O   UNL     1      31.949  52.146  46.929  1.00  0.00    -0.432 OA
BRANCH  33  34
ATOM     34  C   UNL     1      31.409  50.931  46.527  1.00  0.00     0.342 C 
ATOM     35  O   UNL     1      32.189  49.878  47.058  1.00  0.00    -0.338 OA
ATOM     36  C   UNL     1      31.308  50.847  44.970  1.00  0.00     0.214 C 
ATOM     37  C   UNL     1      33.552  49.894  46.607  1.00  0.00     0.199 C 
ATOM     38  C   UNL     1      32.573  50.204  44.351  1.00  0.00     0.180 C 
ATOM     39  C   UNL     1      33.810  50.532  45.209  1.00  0.00     0.171 C 
BRANCH  36  40
ATOM     40  O   UNL     1      30.170  50.137  44.552  1.00  0.00    -0.384 OA
ATOM     41  H   UNL     1      29.396  50.754  44.602  1.00  0.00     0.211 HD
ENDBRANCH  36  40
BRANCH  38  42
ATOM     42  O   UNL     1      32.725  50.522  42.990  1.00  0.00    -0.387 OA
ATOM     43  H   UNL     1      32.292  51.397  42.823  1.00  0.00     0.211 HD
ENDBRANCH  38  42
BRANCH  39  44
ATOM     44  O   UNL     1      34.075  51.913  45.348  1.00  0.00    -0.388 OA
ATOM     45  H   UNL     1      33.519  52.444  44.725  1.00  0.00     0.211 HD
ENDBRANCH  39  44
ENDBRANCH  33  34
ENDBRANCH  31  33
ENDBRANCH   8  31
ENDBRANCH   1   2
BRANCH   1  46
ATOM     46  C   UNL     1      25.037  59.708  39.968  1.00  0.00     0.281 C 
ATOM     47  O   UNL     1      25.023  59.818  38.558  1.00  0.00    -0.347 OA
ATOM     48  C   UNL     1      25.069  61.110  40.648  1.00  0.00     0.202 C 
ATOM     49  C   UNL     1      23.866  60.496  38.061  1.00  0.00     0.198 C 
ATOM     50  C   UNL     1      24.222  62.158  39.882  1.00  0.00     0.179 C 
ATOM     51  C   UNL     1      23.149  61.426  39.081  1.00  0.00     0.179 C 
BRANCH  48  52
ATOM     52  O   UNL     1      24.643  60.991  41.985  1.00  0.00    -0.385 OA
ATOM     53  H   UNL     1      25.342  60.491  42.482  1.00  0.00     0.211 HD
ENDBRANCH  48  52
BRANCH  50  54
ATOM     54  O   UNL     1      25.014  62.950  39.018  1.00  0.00    -0.387 OA
ATOM     55  H   UNL     1      24.663  62.880  38.092  1.00  0.00     0.211 HD
ENDBRANCH  50  54
BRANCH  51  56
ATOM     56  O   UNL     1      22.350  62.355  38.376  1.00  0.00    -0.341 OA
BRANCH  56  57
ATOM     57  C   UNL     1      21.787  61.840  37.181  1.00  0.00     0.282 C 
ATOM     58  O   UNL     1      21.853  62.856  36.202  1.00  0.00    -0.341 OA
ATOM     59  C   UNL     1      20.312  61.439  37.453  1.00  0.00     0.202 C 
ATOM     60  C   UNL     1      21.524  62.347  34.909  1.00  0.00     0.178 C 
ATOM     61  C   UNL     1      19.409  61.737  36.217  1.00  0.00     0.179 C 
ATOM     62  C   UNL     1      20.183  61.510  34.904  1.00  0.00     0.177 C 
BRANCH  59  63
ATOM     63  O   UNL     1      20.234  60.099  37.876  1.00  0.00    -0.385 OA
ATOM     64  H   UNL     1      21.007  59.909  38.466  1.00  0.00     0.211 HD
ENDBRANCH  59  63
BRANCH  60  65
ATOM     65  C   UNL     1      21.450  63.547  33.954  1.00  0.00     0.191 C 
BRANCH  65  66
ATOM     66  O   UNL     1      20.694  64.588  34.512  1.00  0.00    -0.394 OA
ATOM     67  H   UNL     1      19.739  64.377  34.323  1.00  0.00     0.210 HD
ENDBRANCH  65  66
ENDBRANCH  60  65
BRANCH  61  68
ATOM     68  O   UNL     1      18.933  63.068  36.238  1.00  0.00    -0.387 OA
ATOM     69  H   UNL     1      18.642  63.313  37.153  1.00  0.00     0.211 HD
ENDBRANCH  61  68
BRANCH  62  70
ATOM     70  O   UNL     1      20.403  60.133  34.699  1.00  0.00    -0.387 OA
ATOM     71  H   UNL     1      20.249  59.637  35.541  1.00  0.00     0.211 HD
ENDBRANCH  62  70
ENDBRANCH  56  57
ENDBRANCH  51  56
ENDBRANCH   1  46
TORSDOF 17
ENDMDL
MODEL 4
REMARK VINA RESULT:   -11.457      2.871      5.254
REMARK INTER + INTRA:         -21.987
REMARK INTER:                 -20.447
REMARK INTRA:                  -1.540
REMARK UNBOUND:                -2.159
REMARK SMILES CC1(C)CC[C@]2(C(=O)O[C@@H]3OC[C@H](O)[C@H](O)[C@H]3O)CC[C@@]3(C)C(=CC[C@@H]4[C@@]5(C)CC[C@H](O[C@@H]6OC[C@H](O[C@@H]7O[C@H](CO)[C@@H](O)[C@H](O)[C@H]7O)[C@H](O)[C@H]6O)C(C)(C)[C@H]5CC[C@]43C)[C@@H]2C1
REMARK SMILES IDX 32 1 31 2 2 3 4 4 62 5 5 6 61 7 6 8 23 9 19 10 21 11 24 12
REMARK SMILES IDX 20 13 59 14 25 15 58 16 26 17 57 18 27 19 56 20 29 21 53 22
REMARK SMILES IDX 30 23 1 24 3 25 22 26 60 27 28 28 54 29 55 30 7 31 8 32 9 33
REMARK SMILES IDX 10 34 11 35 17 36 12 37 15 38 13 39 18 40 16 42 14 44 33 46
REMARK SMILES IDX 34 47 51 48 35 49 49 50 36 51 52 52 50 54 37 56 38 57 39 58
REMARK SMILES IDX 47 59 40 60 45 61 43 62 48 63 41 65 42 66 46 68 44 70
REMARK H PARENT 18 41 16 43 14 45 52 53 50 55 48 64 42 67 46 69 44 71
ROOT
ATOM      1  O   UNL     1      25.833  60.865  41.553  1.00  0.00    -0.346 OA
ENDROOT
BRANCH   1   2
ATOM      2  C   UNL     1      26.677  59.753  41.817  1.00  0.00     0.127 C 
ATOM      3  C   UNL     1      34.972  58.044  45.048  1.00  0.00    -0.035 C 
ATOM      4  C   UNL     1      35.570  57.274  46.274  1.00  0.00     0.007 C 
ATOM      5  C   UNL     1      33.422  58.219  45.180  1.00  0.00     0.015 C 
ATOM      6  C   UNL     1      34.523  56.356  46.906  1.00  0.00     0.020 C 
ATOM      7  C   UNL     1      32.997  58.451  46.641  1.00  0.00     0.033 C 
ATOM      8  C   UNL     1      33.386  57.205  47.581  1.00  0.00     0.075 C 
ATOM      9  C   UNL     1      31.534  58.878  46.679  1.00  0.00    -0.063 C 
ATOM     10  C   UNL     1      32.194  56.243  47.924  1.00  0.00     0.020 C 
ATOM     11  C   UNL     1      30.425  57.935  47.130  1.00  0.00    -0.006 C 
ATOM     12  C   UNL     1      31.211  60.135  46.301  1.00  0.00    -0.027 C 
ATOM     13  C   UNL     1      30.953  56.463  47.077  1.00  0.00     0.013 C 
ATOM     14  C   UNL     1      29.063  58.100  46.219  1.00  0.00    -0.020 C 
ATOM     15  C   UNL     1      29.772  60.580  46.227  1.00  0.00     0.032 C 
ATOM     16  C   UNL     1      28.923  57.043  45.071  1.00  0.00     0.008 C 
ATOM     17  C   UNL     1      29.034  59.483  45.432  1.00  0.00     0.006 C 
ATOM     18  C   UNL     1      27.967  57.423  43.894  1.00  0.00     0.005 C 
ATOM     19  C   UNL     1      27.634  59.881  44.781  1.00  0.00    -0.025 C 
ATOM     20  C   UNL     1      26.923  58.562  44.169  1.00  0.00     0.003 C 
ATOM     21  C   UNL     1      27.877  60.957  43.652  1.00  0.00     0.010 C 
ATOM     22  C   UNL     1      25.977  58.845  42.921  1.00  0.00    -0.006 C 
ATOM     23  C   UNL     1      28.032  60.342  42.267  1.00  0.00     0.033 C 
ATOM     24  C   UNL     1      35.678  59.415  44.947  1.00  0.00     0.011 C 
ATOM     25  C   UNL     1      35.242  57.269  43.740  1.00  0.00     0.011 C 
ATOM     26  C   UNL     1      30.210  58.342  48.637  1.00  0.00     0.017 C 
ATOM     27  C   UNL     1      27.861  57.855  47.196  1.00  0.00     0.012 C 
ATOM     28  C   UNL     1      26.765  60.593  45.864  1.00  0.00     0.012 C 
ATOM     29  C   UNL     1      24.656  59.500  43.431  1.00  0.00     0.014 C 
ATOM     30  C   UNL     1      25.504  57.524  42.250  1.00  0.00     0.014 C 
BRANCH   8  31
ATOM     31  C   UNL     1      33.904  57.703  48.939  1.00  0.00     0.315 C 
ATOM     32  O   UNL     1      34.495  56.956  49.704  1.00  0.00    -0.252 OA
BRANCH  31  33
ATOM     33  O   UNL     1      33.766  59.026  49.242  1.00  0.00    -0.432 OA
BRANCH  33  34
ATOM     34  C   UNL     1      34.767  59.987  49.176  1.00  0.00     0.342 C 
ATOM     35  O   UNL     1      35.400  60.085  50.437  1.00  0.00    -0.338 OA
ATOM     36  C   UNL     1      34.197  61.364  48.708  1.00  0.00     0.214 C 
ATOM     37  C   UNL     1      34.513  60.485  51.492  1.00  0.00     0.199 C 
ATOM     38  C   UNL     1      33.777  62.246  49.910  1.00  0.00     0.180 C 
ATOM     39  C   UNL     1      33.293  61.360  51.074  1.00  0.00     0.171 C 
BRANCH  36  40
ATOM     40  O   UNL     1      35.111  62.070  47.907  1.00  0.00    -0.384 OA
ATOM     41  H   UNL     1      35.998  61.643  48.018  1.00  0.00     0.211 HD
ENDBRANCH  36  40
BRANCH  38  42
ATOM     42  O   UNL     1      32.866  63.252  49.544  1.00  0.00    -0.387 OA
ATOM     43  H   UNL     1      31.998  62.825  49.330  1.00  0.00     0.211 HD
ENDBRANCH  38  42
BRANCH  39  44
ATOM     44  O   UNL     1      32.189  60.536  50.761  1.00  0.00    -0.388 OA
ATOM     45  H   UNL     1      31.928  59.983  51.539  1.00  0.00     0.211 HD
ENDBRANCH  39  44
ENDBRANCH  33  34
ENDBRANCH  31  33
ENDBRANCH   8  31
ENDBRANCH   1   2
BRANCH   1  46
ATOM     46  C   UNL     1      24.992  60.749  40.431  1.00  0.00     0.281 C 
ATOM     47  O   UNL     1      25.543  59.791  39.549  1.00  0.00    -0.347 OA
ATOM     48  C   UNL     1      24.933  62.161  39.773  1.00  0.00     0.202 C 
ATOM     49  C   UNL     1      24.767  59.612  38.360  1.00  0.00     0.198 C 
ATOM     50  C   UNL     1      24.592  62.095  38.262  1.00  0.00     0.179 C 
ATOM     51  C   UNL     1      23.833  60.800  37.989  1.00  0.00     0.179 C 
BRANCH  48  52
ATOM     52  O   UNL     1      24.008  62.962  40.468  1.00  0.00    -0.385 OA
ATOM     53  H   UNL     1      23.540  62.383  41.125  1.00  0.00     0.211 HD
ENDBRANCH  48  52
BRANCH  50  54
ATOM     54  O   UNL     1      25.751  62.155  37.454  1.00  0.00    -0.387 OA
ATOM     55  H   UNL     1      25.893  61.277  37.016  1.00  0.00     0.211 HD
ENDBRANCH  50  54
BRANCH  51  56
ATOM     56  O   UNL     1      23.497  60.712  36.619  1.00  0.00    -0.341 OA
BRANCH  56  57
ATOM     57  C   UNL     1      22.159  61.081  36.329  1.00  0.00     0.282 C 
ATOM     58  O   UNL     1      22.178  61.888  35.170  1.00  0.00    -0.341 OA
ATOM     59  C   UNL     1      21.584  61.872  37.536  1.00  0.00     0.202 C 
ATOM     60  C   UNL     1      20.857  62.109  34.675  1.00  0.00     0.178 C 
ATOM     61  C   UNL     1      20.633  63.013  37.061  1.00  0.00     0.179 C 
ATOM     62  C   UNL     1      19.855  62.590  35.800  1.00  0.00     0.177 C 
BRANCH  59  63
ATOM     63  O   UNL     1      20.973  60.998  38.454  1.00  0.00    -0.385 OA
ATOM     64  H   UNL     1      20.962  60.088  38.063  1.00  0.00     0.211 HD
ENDBRANCH  59  63
BRANCH  60  65
ATOM     65  C   UNL     1      20.964  63.130  33.533  1.00  0.00     0.191 C 
BRANCH  65  66
ATOM     66  O   UNL     1      22.012  64.033  33.763  1.00  0.00    -0.394 OA
ATOM     67  H   UNL     1      21.956  64.721  33.045  1.00  0.00     0.210 HD
ENDBRANCH  65  66
ENDBRANCH  60  65
BRANCH  61  68
ATOM     68  O   UNL     1      21.353  64.195  36.773  1.00  0.00    -0.387 OA
ATOM     69  H   UNL     1      21.789  64.123  35.887  1.00  0.00     0.211 HD
ENDBRANCH  61  68
BRANCH  62  70
ATOM     70  O   UNL     1      18.893  61.612  36.125  1.00  0.00    -0.387 OA
ATOM     71  H   UNL     1      18.572  61.749  37.051  1.00  0.00     0.211 HD
ENDBRANCH  62  70
ENDBRANCH  56  57
ENDBRANCH  51  56
ENDBRANCH   1  46
TORSDOF 17
ENDMDL
MODEL 5
REMARK VINA RESULT:   -11.333      2.248      3.714
REMARK INTER + INTRA:         -21.773
REMARK INTER:                 -20.367
REMARK INTRA:                  -1.406
REMARK UNBOUND:                -2.159
REMARK SMILES CC1(C)CC[C@]2(C(=O)O[C@@H]3OC[C@H](O)[C@H](O)[C@H]3O)CC[C@@]3(C)C(=CC[C@@H]4[C@@]5(C)CC[C@H](O[C@@H]6OC[C@H](O[C@@H]7O[C@H](CO)[C@@H](O)[C@H](O)[C@H]7O)[C@H](O)[C@H]6O)C(C)(C)[C@H]5CC[C@]43C)[C@@H]2C1
REMARK SMILES IDX 32 1 31 2 2 3 4 4 62 5 5 6 61 7 6 8 23 9 19 10 21 11 24 12
REMARK SMILES IDX 20 13 59 14 25 15 58 16 26 17 57 18 27 19 56 20 29 21 53 22
REMARK SMILES IDX 30 23 1 24 3 25 22 26 60 27 28 28 54 29 55 30 7 31 8 32 9 33
REMARK SMILES IDX 10 34 11 35 17 36 12 37 15 38 13 39 18 40 16 42 14 44 33 46
REMARK SMILES IDX 34 47 51 48 35 49 49 50 36 51 52 52 50 54 37 56 38 57 39 58
REMARK SMILES IDX 47 59 40 60 45 61 43 62 48 63 41 65 42 66 46 68 44 70
REMARK H PARENT 18 41 16 43 14 45 52 53 50 55 48 64 42 67 46 69 44 71
ROOT
ATOM      1  O   UNL     1      25.268  59.042  40.343  1.00  0.00    -0.346 OA
ENDROOT
BRANCH   1   2
ATOM      2  C   UNL     1      25.631  59.103  41.715  1.00  0.00     0.127 C 
ATOM      3  C   UNL     1      27.729  53.488  48.516  1.00  0.00    -0.035 C 
ATOM      4  C   UNL     1      28.979  53.232  49.423  1.00  0.00     0.007 C 
ATOM      5  C   UNL     1      28.076  54.428  47.312  1.00  0.00     0.015 C 
ATOM      6  C   UNL     1      29.969  54.393  49.331  1.00  0.00     0.020 C 
ATOM      7  C   UNL     1      29.496  54.170  46.779  1.00  0.00     0.033 C 
ATOM      8  C   UNL     1      30.615  54.451  47.899  1.00  0.00     0.075 C 
ATOM      9  C   UNL     1      29.681  54.910  45.459  1.00  0.00    -0.063 C 
ATOM     10  C   UNL     1      31.361  55.824  47.754  1.00  0.00     0.020 C 
ATOM     11  C   UNL     1      30.513  56.182  45.351  1.00  0.00    -0.006 C 
ATOM     12  C   UNL     1      29.088  54.419  44.348  1.00  0.00    -0.027 C 
ATOM     13  C   UNL     1      30.707  56.788  46.781  1.00  0.00     0.013 C 
ATOM     14  C   UNL     1      29.830  57.285  44.336  1.00  0.00    -0.020 C 
ATOM     15  C   UNL     1      29.157  55.162  43.037  1.00  0.00     0.032 C 
ATOM     16  C   UNL     1      28.991  58.393  45.060  1.00  0.00     0.008 C 
ATOM     17  C   UNL     1      28.766  56.619  43.358  1.00  0.00     0.006 C 
ATOM     18  C   UNL     1      27.936  59.143  44.184  1.00  0.00     0.005 C 
ATOM     19  C   UNL     1      28.286  57.523  42.136  1.00  0.00    -0.025 C 
ATOM     20  C   UNL     1      28.117  59.057  42.627  1.00  0.00     0.003 C 
ATOM     21  C   UNL     1      26.918  56.962  41.584  1.00  0.00     0.010 C 
ATOM     22  C   UNL     1      27.013  59.884  41.832  1.00  0.00    -0.006 C 
ATOM     23  C   UNL     1      25.703  57.640  42.203  1.00  0.00     0.033 C 
ATOM     24  C   UNL     1      27.204  52.123  48.018  1.00  0.00     0.011 C 
ATOM     25  C   UNL     1      26.605  54.168  49.326  1.00  0.00     0.011 C 
ATOM     26  C   UNL     1      31.903  55.649  44.833  1.00  0.00     0.017 C 
ATOM     27  C   UNL     1      31.024  58.020  43.635  1.00  0.00     0.012 C 
ATOM     28  C   UNL     1      29.310  57.369  40.968  1.00  0.00     0.012 C 
ATOM     29  C   UNL     1      27.575  60.243  40.422  1.00  0.00     0.014 C 
ATOM     30  C   UNL     1      26.748  61.266  42.492  1.00  0.00     0.014 C 
BRANCH   8  31
ATOM     31  C   UNL     1      31.719  53.384  47.830  1.00  0.00     0.315 C 
ATOM     32  O   UNL     1      32.567  53.293  48.705  1.00  0.00    -0.252 OA
BRANCH  31  33
ATOM     33  O   UNL     1      31.685  52.479  46.810  1.00  0.00    -0.432 OA
BRANCH  33  34
ATOM     34  C   UNL     1      31.394  51.126  46.930  1.00  0.00     0.342 C 
ATOM     35  O   UNL     1      32.579  50.378  46.740  1.00  0.00    -0.338 OA
ATOM     36  C   UNL     1      30.274  50.700  45.927  1.00  0.00     0.214 C 
ATOM     37  C   UNL     1      33.168  50.561  45.444  1.00  0.00     0.199 C 
ATOM     38  C   UNL     1      30.870  50.196  44.588  1.00  0.00     0.180 C 
ATOM     39  C   UNL     1      32.192  50.930  44.287  1.00  0.00     0.171 C 
BRANCH  36  40
ATOM     40  O   UNL     1      29.432  49.712  46.463  1.00  0.00    -0.384 OA
ATOM     41  H   UNL     1      29.222  49.971  47.397  1.00  0.00     0.211 HD
ENDBRANCH  36  40
BRANCH  38  42
ATOM     42  O   UNL     1      29.940  50.246  43.536  1.00  0.00    -0.387 OA
ATOM     43  H   UNL     1      29.483  49.368  43.481  1.00  0.00     0.211 HD
ENDBRANCH  38  42
BRANCH  39  44
ATOM     44  O   UNL     1      32.070  52.333  44.183  1.00  0.00    -0.388 OA
ATOM     45  H   UNL     1      32.241  52.769  45.055  1.00  0.00     0.211 HD
ENDBRANCH  39  44
ENDBRANCH  33  34
ENDBRANCH  31  33
ENDBRANCH   8  31
ENDBRANCH   1   2
BRANCH   1  46
ATOM     46  C   UNL     1      24.454  60.090  39.873  1.00  0.00     0.281 C 
ATOM     47  O   UNL     1      23.683  60.583  40.951  1.00  0.00    -0.347 OA
ATOM     48  C   UNL     1      23.550  59.484  38.758  1.00  0.00     0.202 C 
ATOM     49  C   UNL     1      22.803  61.646  40.571  1.00  0.00     0.198 C 
ATOM     50  C   UNL     1      22.229  60.275  38.571  1.00  0.00     0.179 C 
ATOM     51  C   UNL     1      22.445  61.705  39.058  1.00  0.00     0.179 C 
BRANCH  48  52
ATOM     52  O   UNL     1      24.276  59.416  37.553  1.00  0.00    -0.385 OA
ATOM     53  H   UNL     1      23.776  59.935  36.869  1.00  0.00     0.211 HD
ENDBRANCH  48  52
BRANCH  50  54
ATOM     54  O   UNL     1      21.154  59.683  39.274  1.00  0.00    -0.387 OA
ATOM     55  H   UNL     1      21.507  59.164  40.042  1.00  0.00     0.211 HD
ENDBRANCH  50  54
BRANCH  51  56
ATOM     56  O   UNL     1      21.261  62.459  38.894  1.00  0.00    -0.341 OA
BRANCH  56  57
ATOM     57  C   UNL     1      21.040  62.902  37.566  1.00  0.00     0.282 C 
ATOM     58  O   UNL     1      19.895  62.237  37.076  1.00  0.00    -0.341 OA
ATOM     59  C   UNL     1      22.285  62.551  36.705  1.00  0.00     0.202 C 
ATOM     60  C   UNL     1      19.466  62.797  35.834  1.00  0.00     0.178 C 
ATOM     61  C   UNL     1      21.873  62.141  35.258  1.00  0.00     0.179 C 
ATOM     62  C   UNL     1      20.643  62.942  34.789  1.00  0.00     0.177 C 
BRANCH  59  63
ATOM     63  O   UNL     1      23.216  63.606  36.731  1.00  0.00    -0.385 OA
ATOM     64  H   UNL     1      23.242  63.982  37.646  1.00  0.00     0.211 HD
ENDBRANCH  59  63
BRANCH  60  65
ATOM     65  C   UNL     1      18.336  61.904  35.299  1.00  0.00     0.191 C 
BRANCH  65  66
ATOM     66  O   UNL     1      17.286  61.815  36.223  1.00  0.00    -0.394 OA
ATOM     67  H   UNL     1      16.466  62.132  35.752  1.00  0.00     0.210 HD
ENDBRANCH  65  66
ENDBRANCH  60  65
BRANCH  61  68
ATOM     68  O   UNL     1      21.571  60.761  35.182  1.00  0.00    -0.387 OA
ATOM     69  H   UNL     1      22.048  60.267  35.895  1.00  0.00     0.211 HD
ENDBRANCH  61  68
BRANCH  62  70
ATOM     70  O   UNL     1      20.998  64.286  34.553  1.00  0.00    -0.387 OA
ATOM     71  H   UNL     1      20.790  64.835  35.349  1.00  0.00     0.211 HD
ENDBRANCH  62  70
ENDBRANCH  56  57
ENDBRANCH  51  56
ENDBRANCH   1  46
TORSDOF 17
ENDMDL
MODEL 6
REMARK VINA RESULT:   -11.333      3.553      6.101
REMARK INTER + INTRA:         -21.773
REMARK INTER:                 -19.410
REMARK INTRA:                  -2.363
REMARK UNBOUND:                -2.159
REMARK SMILES CC1(C)CC[C@]2(C(=O)O[C@@H]3OC[C@H](O)[C@H](O)[C@H]3O)CC[C@@]3(C)C(=CC[C@@H]4[C@@]5(C)CC[C@H](O[C@@H]6OC[C@H](O[C@@H]7O[C@H](CO)[C@@H](O)[C@H](O)[C@H]7O)[C@H](O)[C@H]6O)C(C)(C)[C@H]5CC[C@]43C)[C@@H]2C1
REMARK SMILES IDX 32 1 31 2 2 3 4 4 62 5 5 6 61 7 6 8 23 9 19 10 21 11 24 12
REMARK SMILES IDX 20 13 59 14 25 15 58 16 26 17 57 18 27 19 56 20 29 21 53 22
REMARK SMILES IDX 30 23 1 24 3 25 22 26 60 27 28 28 54 29 55 30 7 31 8 32 9 33
REMARK SMILES IDX 10 34 11 35 17 36 12 37 15 38 13 39 18 40 16 42 14 44 33 46
REMARK SMILES IDX 34 47 51 48 35 49 49 50 36 51 52 52 50 54 37 56 38 57 39 58
REMARK SMILES IDX 47 59 40 60 45 61 43 62 48 63 41 65 42 66 46 68 44 70
REMARK H PARENT 18 41 16 43 14 45 52 53 50 55 48 64 42 67 46 69 44 71
ROOT
ATOM      1  O   UNL     1      26.356  60.337  43.785  1.00  0.00    -0.346 OA
ENDROOT
BRANCH   1   2
ATOM      2  C   UNL     1      27.364  59.335  43.811  1.00  0.00     0.127 C 
ATOM      3  C   UNL     1      36.302  58.623  45.139  1.00  0.00    -0.035 C 
ATOM      4  C   UNL     1      37.236  57.908  46.173  1.00  0.00     0.007 C 
ATOM      5  C   UNL     1      34.807  58.596  45.602  1.00  0.00     0.015 C 
ATOM      6  C   UNL     1      36.467  56.850  46.965  1.00  0.00     0.020 C 
ATOM      7  C   UNL     1      34.681  58.739  47.129  1.00  0.00     0.033 C 
ATOM      8  C   UNL     1      35.408  57.533  47.904  1.00  0.00     0.075 C 
ATOM      9  C   UNL     1      33.219  58.975  47.495  1.00  0.00    -0.063 C 
ATOM     10  C   UNL     1      34.442  56.419  48.442  1.00  0.00     0.020 C 
ATOM     11  C   UNL     1      32.355  57.889  48.122  1.00  0.00    -0.006 C 
ATOM     12  C   UNL     1      32.676  60.190  47.256  1.00  0.00    -0.027 C 
ATOM     13  C   UNL     1      33.031  56.498  47.887  1.00  0.00     0.013 C 
ATOM     14  C   UNL     1      30.819  57.901  47.527  1.00  0.00    -0.020 C 
ATOM     15  C   UNL     1      31.212  60.449  47.507  1.00  0.00     0.032 C 
ATOM     16  C   UNL     1      30.563  56.860  46.384  1.00  0.00     0.008 C 
ATOM     17  C   UNL     1      30.456  59.286  46.832  1.00  0.00     0.006 C 
ATOM     18  C   UNL     1      29.338  57.142  45.454  1.00  0.00     0.005 C 
ATOM     19  C   UNL     1      28.912  59.518  46.510  1.00  0.00    -0.025 C 
ATOM     20  C   UNL     1      28.249  58.133  45.998  1.00  0.00     0.003 C 
ATOM     21  C   UNL     1      28.777  60.640  45.409  1.00  0.00     0.010 C 
ATOM     22  C   UNL     1      27.030  58.320  44.991  1.00  0.00    -0.006 C 
ATOM     23  C   UNL     1      28.703  60.081  43.995  1.00  0.00     0.033 C 
ATOM     24  C   UNL     1      36.801  60.075  44.960  1.00  0.00     0.011 C 
ATOM     25  C   UNL     1      36.376  57.918  43.767  1.00  0.00     0.011 C 
ATOM     26  C   UNL     1      32.420  58.232  49.659  1.00  0.00     0.017 C 
ATOM     27  C   UNL     1      29.893  57.482  48.721  1.00  0.00     0.012 C 
ATOM     28  C   UNL     1      28.217  60.088  47.786  1.00  0.00     0.012 C 
ATOM     29  C   UNL     1      25.781  58.791  45.799  1.00  0.00     0.014 C 
ATOM     30  C   UNL     1      26.586  56.966  44.371  1.00  0.00     0.014 C 
BRANCH   8  31
ATOM     31  C   UNL     1      36.142  58.062  49.146  1.00  0.00     0.315 C 
ATOM     32  O   UNL     1      36.998  57.394  49.708  1.00  0.00    -0.252 OA
BRANCH  31  33
ATOM     33  O   UNL     1      35.881  59.334  49.563  1.00  0.00    -0.432 OA
BRANCH  33  34
ATOM     34  C   UNL     1      35.904  59.783  50.878  1.00  0.00     0.342 C 
ATOM     35  O   UNL     1      34.615  60.244  51.233  1.00  0.00    -0.338 OA
ATOM     36  C   UNL     1      36.989  60.889  51.076  1.00  0.00     0.214 C 
ATOM     37  C   UNL     1      34.160  61.342  50.429  1.00  0.00     0.199 C 
ATOM     38  C   UNL     1      36.401  62.307  50.867  1.00  0.00     0.180 C 
ATOM     39  C   UNL     1      35.264  62.262  49.827  1.00  0.00     0.171 C 
BRANCH  36  40
ATOM     40  O   UNL     1      37.593  60.817  52.343  1.00  0.00    -0.384 OA
ATOM     41  H   UNL     1      37.208  61.541  52.900  1.00  0.00     0.211 HD
ENDBRANCH  36  40
BRANCH  38  42
ATOM     42  O   UNL     1      37.393  63.262  50.583  1.00  0.00    -0.387 OA
ATOM     43  H   UNL     1      37.198  63.662  49.698  1.00  0.00     0.211 HD
ENDBRANCH  38  42
BRANCH  39  44
ATOM     44  O   UNL     1      35.654  61.785  48.556  1.00  0.00    -0.388 OA
ATOM     45  H   UNL     1      34.937  61.239  48.147  1.00  0.00     0.211 HD
ENDBRANCH  39  44
ENDBRANCH  33  34
ENDBRANCH  31  33
ENDBRANCH   8  31
ENDBRANCH   1   2
BRANCH   1  46
ATOM     46  C   UNL     1      25.494  60.317  42.673  1.00  0.00     0.281 C 
ATOM     47  O   UNL     1      25.000  59.003  42.505  1.00  0.00    -0.347 OA
ATOM     48  C   UNL     1      26.345  60.766  41.446  1.00  0.00     0.202 C 
ATOM     49  C   UNL     1      24.124  58.872  41.382  1.00  0.00     0.198 C 
ATOM     50  C   UNL     1      25.777  60.231  40.106  1.00  0.00     0.179 C 
ATOM     51  C   UNL     1      24.285  59.961  40.281  1.00  0.00     0.179 C 
BRANCH  48  52
ATOM     52  O   UNL     1      26.441  62.170  41.433  1.00  0.00    -0.385 OA
ATOM     53  H   UNL     1      25.616  62.526  41.009  1.00  0.00     0.211 HD
ENDBRANCH  48  52
BRANCH  50  54
ATOM     54  O   UNL     1      26.435  59.052  39.684  1.00  0.00    -0.387 OA
ATOM     55  H   UNL     1      25.762  58.380  39.404  1.00  0.00     0.211 HD
ENDBRANCH  50  54
BRANCH  51  56
ATOM     56  O   UNL     1      23.732  59.480  39.073  1.00  0.00    -0.341 OA
BRANCH  56  57
ATOM     57  C   UNL     1      23.601  60.469  38.066  1.00  0.00     0.282 C 
ATOM     58  O   UNL     1      22.294  60.998  38.152  1.00  0.00    -0.341 OA
ATOM     59  C   UNL     1      23.831  59.808  36.679  1.00  0.00     0.202 C 
ATOM     60  C   UNL     1      22.153  62.158  37.332  1.00  0.00     0.178 C 
ATOM     61  C   UNL     1      22.900  60.431  35.595  1.00  0.00     0.179 C 
ATOM     62  C   UNL     1      22.679  61.933  35.858  1.00  0.00     0.177 C 
BRANCH  59  63
ATOM     63  O   UNL     1      25.193  59.861  36.327  1.00  0.00    -0.385 OA
ATOM     64  H   UNL     1      25.686  59.200  36.874  1.00  0.00     0.211 HD
ENDBRANCH  59  63
BRANCH  60  65
ATOM     65  C   UNL     1      20.669  62.553  37.353  1.00  0.00     0.191 C 
BRANCH  65  66
ATOM     66  O   UNL     1      19.847  61.417  37.327  1.00  0.00    -0.394 OA
ATOM     67  H   UNL     1      19.271  61.502  36.518  1.00  0.00     0.210 HD
ENDBRANCH  65  66
ENDBRANCH  60  65
BRANCH  61  68
ATOM     68  O   UNL     1      21.641  59.787  35.567  1.00  0.00    -0.387 OA
ATOM     69  H   UNL     1      21.480  59.391  34.673  1.00  0.00     0.211 HD
ENDBRANCH  61  68
BRANCH  62  70
ATOM     70  O   UNL     1      23.860  62.655  35.587  1.00  0.00    -0.387 OA
ATOM     71  H   UNL     1      23.846  63.518  36.069  1.00  0.00     0.211 HD
ENDBRANCH  62  70
ENDBRANCH  56  57
ENDBRANCH  51  56
ENDBRANCH   1  46
TORSDOF 17
ENDMDL
MODEL 7
REMARK VINA RESULT:   -10.859      1.536      2.623
REMARK INTER + INTRA:         -20.953
REMARK INTER:                 -18.812
REMARK INTRA:                  -2.141
REMARK UNBOUND:                -2.159
REMARK SMILES CC1(C)CC[C@]2(C(=O)O[C@@H]3OC[C@H](O)[C@H](O)[C@H]3O)CC[C@@]3(C)C(=CC[C@@H]4[C@@]5(C)CC[C@H](O[C@@H]6OC[C@H](O[C@@H]7O[C@H](CO)[C@@H](O)[C@H](O)[C@H]7O)[C@H](O)[C@H]6O)C(C)(C)[C@H]5CC[C@]43C)[C@@H]2C1
REMARK SMILES IDX 32 1 31 2 2 3 4 4 62 5 5 6 61 7 6 8 23 9 19 10 21 11 24 12
REMARK SMILES IDX 20 13 59 14 25 15 58 16 26 17 57 18 27 19 56 20 29 21 53 22
REMARK SMILES IDX 30 23 1 24 3 25 22 26 60 27 28 28 54 29 55 30 7 31 8 32 9 33
REMARK SMILES IDX 10 34 11 35 17 36 12 37 15 38 13 39 18 40 16 42 14 44 33 46
REMARK SMILES IDX 34 47 51 48 35 49 49 50 36 51 52 52 50 54 37 56 38 57 39 58
REMARK SMILES IDX 47 59 40 60 45 61 43 62 48 63 41 65 42 66 46 68 44 70
REMARK H PARENT 18 41 16 43 14 45 52 53 50 55 48 64 42 67 46 69 44 71
ROOT
ATOM      1  O   UNL     1      25.627  58.007  42.450  1.00  0.00    -0.346 OA
ENDROOT
BRANCH   1   2
ATOM      2  C   UNL     1      26.776  58.576  43.065  1.00  0.00     0.127 C 
ATOM      3  C   UNL     1      30.397  59.504  51.323  1.00  0.00    -0.035 C 
ATOM      4  C   UNL     1      31.711  59.041  52.037  1.00  0.00     0.007 C 
ATOM      5  C   UNL     1      30.211  58.788  49.943  1.00  0.00     0.015 C 
ATOM      6  C   UNL     1      32.752  58.574  51.020  1.00  0.00     0.020 C 
ATOM      7  C   UNL     1      30.708  57.333  49.985  1.00  0.00     0.033 C 
ATOM      8  C   UNL     1      32.279  57.248  50.322  1.00  0.00     0.075 C 
ATOM      9  C   UNL     1      30.264  56.610  48.718  1.00  0.00    -0.063 C 
ATOM     10  C   UNL     1      33.205  56.990  49.081  1.00  0.00     0.020 C 
ATOM     11  C   UNL     1      31.232  56.283  47.588  1.00  0.00    -0.006 C 
ATOM     12  C   UNL     1      28.967  56.248  48.595  1.00  0.00    -0.027 C 
ATOM     13  C   UNL     1      32.514  57.167  47.741  1.00  0.00     0.013 C 
ATOM     14  C   UNL     1      30.548  56.496  46.105  1.00  0.00    -0.020 C 
ATOM     15  C   UNL     1      28.452  55.619  47.325  1.00  0.00     0.032 C 
ATOM     16  C   UNL     1      30.884  57.871  45.433  1.00  0.00     0.008 C 
ATOM     17  C   UNL     1      28.958  56.516  46.177  1.00  0.00     0.006 C 
ATOM     18  C   UNL     1      29.908  58.347  44.308  1.00  0.00     0.005 C 
ATOM     19  C   UNL     1      28.199  56.397  44.780  1.00  0.00    -0.025 C 
ATOM     20  C   UNL     1      28.991  57.252  43.656  1.00  0.00     0.003 C 
ATOM     21  C   UNL     1      26.723  56.930  44.947  1.00  0.00     0.010 C 
ATOM     22  C   UNL     1      28.065  57.834  42.499  1.00  0.00    -0.006 C 
ATOM     23  C   UNL     1      26.577  58.403  44.586  1.00  0.00     0.033 C 
ATOM     24  C   UNL     1      29.206  59.213  52.263  1.00  0.00     0.011 C 
ATOM     25  C   UNL     1      30.435  61.024  51.055  1.00  0.00     0.011 C 
ATOM     26  C   UNL     1      31.614  54.781  47.878  1.00  0.00     0.017 C 
ATOM     27  C   UNL     1      31.168  55.390  45.183  1.00  0.00     0.012 C 
ATOM     28  C   UNL     1      28.066  54.887  44.411  1.00  0.00     0.012 C 
ATOM     29  C   UNL     1      27.665  56.668  41.542  1.00  0.00     0.014 C 
ATOM     30  C   UNL     1      28.844  58.819  41.583  1.00  0.00     0.014 C 
BRANCH   8  31
ATOM     31  C   UNL     1      32.556  56.079  51.280  1.00  0.00     0.315 C 
ATOM     32  O   UNL     1      33.623  55.982  51.869  1.00  0.00    -0.252 OA
BRANCH  31  33
ATOM     33  O   UNL     1      31.552  55.190  51.530  1.00  0.00    -0.432 OA
BRANCH  33  34
ATOM     34  C   UNL     1      31.711  53.843  51.829  1.00  0.00     0.342 C 
ATOM     35  O   UNL     1      31.150  53.068  50.787  1.00  0.00    -0.338 OA
ATOM     36  C   UNL     1      31.076  53.494  53.213  1.00  0.00     0.214 C 
ATOM     37  C   UNL     1      29.744  53.288  50.604  1.00  0.00     0.199 C 
ATOM     38  C   UNL     1      29.605  53.031  53.066  1.00  0.00     0.180 C 
ATOM     39  C   UNL     1      28.945  53.736  51.865  1.00  0.00     0.171 C 
BRANCH  36  40
ATOM     40  O   UNL     1      31.809  52.510  53.898  1.00  0.00    -0.384 OA
ATOM     41  H   UNL     1      31.664  51.648  53.429  1.00  0.00     0.211 HD
ENDBRANCH  36  40
BRANCH  38  42
ATOM     42  O   UNL     1      28.882  53.153  54.264  1.00  0.00    -0.387 OA
ATOM     43  H   UNL     1      28.345  53.984  54.222  1.00  0.00     0.211 HD
ENDBRANCH  38  42
BRANCH  39  44
ATOM     44  O   UNL     1      28.927  55.145  51.953  1.00  0.00    -0.388 OA
ATOM     45  H   UNL     1      28.042  55.470  52.253  1.00  0.00     0.211 HD
ENDBRANCH  39  44
ENDBRANCH  33  34
ENDBRANCH  31  33
ENDBRANCH   8  31
ENDBRANCH   1   2
BRANCH   1  46
ATOM     46  C   UNL     1      24.938  58.834  41.544  1.00  0.00     0.281 C 
ATOM     47  O   UNL     1      25.293  58.459  40.228  1.00  0.00    -0.347 OA
ATOM     48  C   UNL     1      25.377  60.297  41.857  1.00  0.00     0.202 C 
ATOM     49  C   UNL     1      24.656  59.258  39.226  1.00  0.00     0.198 C 
ATOM     50  C   UNL     1      25.225  61.235  40.632  1.00  0.00     0.179 C 
ATOM     51  C   UNL     1      24.162  60.655  39.703  1.00  0.00     0.179 C 
BRANCH  48  52
ATOM     52  O   UNL     1      24.645  60.778  42.959  1.00  0.00    -0.385 OA
ATOM     53  H   UNL     1      24.086  61.536  42.644  1.00  0.00     0.211 HD
ENDBRANCH  48  52
BRANCH  50  54
ATOM     54  O   UNL     1      26.444  61.393  39.933  1.00  0.00    -0.387 OA
ATOM     55  H   UNL     1      26.896  62.221  40.240  1.00  0.00     0.211 HD
ENDBRANCH  50  54
BRANCH  51  56
ATOM     56  O   UNL     1      23.992  61.492  38.577  1.00  0.00    -0.341 OA
BRANCH  56  57
ATOM     57  C   UNL     1      22.693  61.438  38.011  1.00  0.00     0.282 C 
ATOM     58  O   UNL     1      22.818  61.682  36.625  1.00  0.00    -0.341 OA
ATOM     59  C   UNL     1      21.808  62.526  38.679  1.00  0.00     0.202 C 
ATOM     60  C   UNL     1      21.593  61.415  35.943  1.00  0.00     0.178 C 
ATOM     61  C   UNL     1      20.820  63.158  37.652  1.00  0.00     0.179 C 
ATOM     62  C   UNL     1      20.348  62.109  36.627  1.00  0.00     0.177 C 
BRANCH  59  63
ATOM     63  O   UNL     1      21.160  62.006  39.814  1.00  0.00    -0.385 OA
ATOM     64  H   UNL     1      21.651  62.302  40.621  1.00  0.00     0.211 HD
ENDBRANCH  59  63
BRANCH  60  65
ATOM     65  C   UNL     1      21.772  61.874  34.488  1.00  0.00     0.191 C 
BRANCH  65  66
ATOM     66  O   UNL     1      22.201  63.207  34.432  1.00  0.00    -0.394 OA
ATOM     67  H   UNL     1      23.148  63.215  34.744  1.00  0.00     0.210 HD
ENDBRANCH  65  66
ENDBRANCH  60  65
BRANCH  61  68
ATOM     68  O   UNL     1      21.419  64.233  36.957  1.00  0.00    -0.387 OA
ATOM     69  H   UNL     1      20.910  64.432  36.131  1.00  0.00     0.211 HD
ENDBRANCH  61  68
BRANCH  62  70
ATOM     70  O   UNL     1      19.479  61.184  37.240  1.00  0.00    -0.387 OA
ATOM     71  H   UNL     1      18.791  60.887  36.595  1.00  0.00     0.211 HD
ENDBRANCH  62  70
ENDBRANCH  56  57
ENDBRANCH  51  56
ENDBRANCH   1  46
TORSDOF 17
ENDMDL
MODEL 8
REMARK VINA RESULT:   -10.801      3.417      5.775
REMARK INTER + INTRA:         -20.854
REMARK INTER:                 -18.791
REMARK INTRA:                  -2.063
REMARK UNBOUND:                -2.159
REMARK SMILES CC1(C)CC[C@]2(C(=O)O[C@@H]3OC[C@H](O)[C@H](O)[C@H]3O)CC[C@@]3(C)C(=CC[C@@H]4[C@@]5(C)CC[C@H](O[C@@H]6OC[C@H](O[C@@H]7O[C@H](CO)[C@@H](O)[C@H](O)[C@H]7O)[C@H](O)[C@H]6O)C(C)(C)[C@H]5CC[C@]43C)[C@@H]2C1
REMARK SMILES IDX 32 1 31 2 2 3 4 4 62 5 5 6 61 7 6 8 23 9 19 10 21 11 24 12
REMARK SMILES IDX 20 13 59 14 25 15 58 16 26 17 57 18 27 19 56 20 29 21 53 22
REMARK SMILES IDX 30 23 1 24 3 25 22 26 60 27 28 28 54 29 55 30 7 31 8 32 9 33
REMARK SMILES IDX 10 34 11 35 17 36 12 37 15 38 13 39 18 40 16 42 14 44 33 46
REMARK SMILES IDX 34 47 51 48 35 49 49 50 36 51 52 52 50 54 37 56 38 57 39 58
REMARK SMILES IDX 47 59 40 60 45 61 43 62 48 63 41 65 42 66 46 68 44 70
REMARK H PARENT 18 41 16 43 14 45 52 53 50 55 48 64 42 67 46 69 44 71
ROOT
ATOM      1  O   UNL     1      27.855  60.181  41.440  1.00  0.00    -0.346 OA
ENDROOT
BRANCH   1   2
ATOM      2  C   UNL     1      27.712  59.120  42.375  1.00  0.00     0.127 C 
ATOM      3  C   UNL     1      31.795  51.342  44.610  1.00  0.00    -0.035 C 
ATOM      4  C   UNL     1      32.520  50.770  45.874  1.00  0.00     0.007 C 
ATOM      5  C   UNL     1      31.532  52.879  44.744  1.00  0.00     0.015 C 
ATOM      6  C   UNL     1      32.209  51.614  47.111  1.00  0.00     0.020 C 
ATOM      7  C   UNL     1      32.680  53.591  45.481  1.00  0.00     0.033 C 
ATOM      8  C   UNL     1      32.862  53.038  46.980  1.00  0.00     0.075 C 
ATOM      9  C   UNL     1      32.507  55.100  45.348  1.00  0.00    -0.063 C 
ATOM     10  C   UNL     1      32.256  53.958  48.098  1.00  0.00     0.020 C 
ATOM     11  C   UNL     1      32.021  55.965  46.505  1.00  0.00    -0.006 C 
ATOM     12  C   UNL     1      32.794  55.688  44.166  1.00  0.00    -0.027 C 
ATOM     13  C   UNL     1      31.340  55.051  47.577  1.00  0.00     0.013 C 
ATOM     14  C   UNL     1      30.989  57.147  46.003  1.00  0.00    -0.020 C 
ATOM     15  C   UNL     1      32.548  57.160  43.949  1.00  0.00     0.032 C 
ATOM     16  C   UNL     1      29.473  56.795  46.179  1.00  0.00     0.008 C 
ATOM     17  C   UNL     1      31.110  57.423  44.440  1.00  0.00     0.006 C 
ATOM     18  C   UNL     1      28.468  57.606  45.298  1.00  0.00     0.005 C 
ATOM     19  C   UNL     1      30.397  58.748  43.913  1.00  0.00    -0.025 C 
ATOM     20  C   UNL     1      28.990  58.955  44.687  1.00  0.00     0.003 C 
ATOM     21  C   UNL     1      30.163  58.624  42.357  1.00  0.00     0.010 C 
ATOM     22  C   UNL     1      27.880  59.718  43.840  1.00  0.00    -0.006 C 
ATOM     23  C   UNL     1      28.787  58.076  42.004  1.00  0.00     0.033 C 
ATOM     24  C   UNL     1      32.668  51.035  43.371  1.00  0.00     0.011 C 
ATOM     25  C   UNL     1      30.427  50.653  44.415  1.00  0.00     0.011 C 
ATOM     26  C   UNL     1      33.363  56.535  47.104  1.00  0.00     0.017 C 
ATOM     27  C   UNL     1      31.267  58.381  46.930  1.00  0.00     0.012 C 
ATOM     28  C   UNL     1      31.376  59.949  44.100  1.00  0.00     0.012 C 
ATOM     29  C   UNL     1      28.243  61.235  43.788  1.00  0.00     0.014 C 
ATOM     30  C   UNL     1      26.497  59.689  44.550  1.00  0.00     0.014 C 
BRANCH   8  31
ATOM     31  C   UNL     1      34.354  52.914  47.326  1.00  0.00     0.315 C 
ATOM     32  O   UNL     1      34.718  52.550  48.434  1.00  0.00    -0.252 OA
BRANCH  31  33
ATOM     33  O   UNL     1      35.271  53.137  46.341  1.00  0.00    -0.432 OA
BRANCH  33  34
ATOM     34  C   UNL     1      36.296  54.073  46.378  1.00  0.00     0.342 C 
ATOM     35  O   UNL     1      36.120  54.995  45.321  1.00  0.00    -0.338 OA
ATOM     36  C   UNL     1      37.695  53.379  46.313  1.00  0.00     0.214 C 
ATOM     37  C   UNL     1      36.161  54.388  44.021  1.00  0.00     0.199 C 
ATOM     38  C   UNL     1      38.201  53.253  44.854  1.00  0.00     0.180 C 
ATOM     39  C   UNL     1      37.009  53.087  43.891  1.00  0.00     0.171 C 
BRANCH  36  40
ATOM     40  O   UNL     1      38.656  54.054  47.083  1.00  0.00    -0.384 OA
ATOM     41  H   UNL     1      39.511  53.559  46.997  1.00  0.00     0.211 HD
ENDBRANCH  36  40
BRANCH  38  42
ATOM     42  O   UNL     1      39.187  52.261  44.713  1.00  0.00    -0.387 OA
ATOM     43  H   UNL     1      38.738  51.397  44.530  1.00  0.00     0.211 HD
ENDBRANCH  38  42
BRANCH  39  44
ATOM     44  O   UNL     1      36.203  51.956  44.148  1.00  0.00    -0.388 OA
ATOM     45  H   UNL     1      35.743  51.654  43.326  1.00  0.00     0.211 HD
ENDBRANCH  39  44
ENDBRANCH  33  34
ENDBRANCH  31  33
ENDBRANCH   8  31
ENDBRANCH   1   2
BRANCH   1  46
ATOM     46  C   UNL     1      26.755  60.409  40.592  1.00  0.00     0.281 C 
ATOM     47  O   UNL     1      25.925  61.391  41.180  1.00  0.00    -0.347 OA
ATOM     48  C   UNL     1      26.013  59.046  40.452  1.00  0.00     0.202 C 
ATOM     49  C   UNL     1      24.762  61.683  40.400  1.00  0.00     0.198 C 
ATOM     50  C   UNL     1      24.514  59.222  40.095  1.00  0.00     0.179 C 
ATOM     51  C   UNL     1      24.334  60.569  39.400  1.00  0.00     0.179 C 
BRANCH  48  52
ATOM     52  O   UNL     1      26.673  58.251  39.496  1.00  0.00    -0.385 OA
ATOM     53  H   UNL     1      26.892  58.830  38.720  1.00  0.00     0.211 HD
ENDBRANCH  48  52
BRANCH  50  54
ATOM     54  O   UNL     1      23.686  59.154  41.240  1.00  0.00    -0.387 OA
ATOM     55  H   UNL     1      24.219  59.377  42.046  1.00  0.00     0.211 HD
ENDBRANCH  50  54
BRANCH  51  56
ATOM     56  O   UNL     1      22.977  60.759  39.052  1.00  0.00    -0.341 OA
BRANCH  56  57
ATOM     57  C   UNL     1      22.788  61.460  37.835  1.00  0.00     0.282 C 
ATOM     58  O   UNL     1      21.423  61.809  37.748  1.00  0.00    -0.341 OA
ATOM     59  C   UNL     1      23.191  60.534  36.654  1.00  0.00     0.202 C 
ATOM     60  C   UNL     1      21.191  62.717  36.671  1.00  0.00     0.178 C 
ATOM     61  C   UNL     1      22.262  60.755  35.422  1.00  0.00     0.179 C 
ATOM     62  C   UNL     1      21.837  62.232  35.312  1.00  0.00     0.177 C 
BRANCH  59  63
ATOM     63  O   UNL     1      24.555  60.692  36.346  1.00  0.00    -0.385 OA
ATOM     64  H   UNL     1      24.981  59.799  36.332  1.00  0.00     0.211 HD
ENDBRANCH  59  63
BRANCH  60  65
ATOM     65  C   UNL     1      19.671  62.897  36.547  1.00  0.00     0.191 C 
BRANCH  65  66
ATOM     66  O   UNL     1      19.006  61.671  36.694  1.00  0.00    -0.394 OA
ATOM     67  H   UNL     1      18.518  61.716  37.562  1.00  0.00     0.210 HD
ENDBRANCH  65  66
ENDBRANCH  60  65
BRANCH  61  68
ATOM     68  O   UNL     1      21.099  59.954  35.505  1.00  0.00    -0.387 OA
ATOM     69  H   UNL     1      20.584  60.012  34.661  1.00  0.00     0.211 HD
ENDBRANCH  61  68
BRANCH  62  70
ATOM     70  O   UNL     1      22.932  63.027  34.917  1.00  0.00    -0.387 OA
ATOM     71  H   UNL     1      23.315  62.679  34.074  1.00  0.00     0.211 HD
ENDBRANCH  62  70
ENDBRANCH  56  57
ENDBRANCH  51  56
ENDBRANCH   1  46
TORSDOF 17
ENDMDL
MODEL 9
REMARK VINA RESULT:   -10.772      2.639      4.147
REMARK INTER + INTRA:         -20.802
REMARK INTER:                 -19.036
REMARK INTRA:                  -1.766
REMARK UNBOUND:                -2.159
REMARK SMILES CC1(C)CC[C@]2(C(=O)O[C@@H]3OC[C@H](O)[C@H](O)[C@H]3O)CC[C@@]3(C)C(=CC[C@@H]4[C@@]5(C)CC[C@H](O[C@@H]6OC[C@H](O[C@@H]7O[C@H](CO)[C@@H](O)[C@H](O)[C@H]7O)[C@H](O)[C@H]6O)C(C)(C)[C@H]5CC[C@]43C)[C@@H]2C1
REMARK SMILES IDX 32 1 31 2 2 3 4 4 62 5 5 6 61 7 6 8 23 9 19 10 21 11 24 12
REMARK SMILES IDX 20 13 59 14 25 15 58 16 26 17 57 18 27 19 56 20 29 21 53 22
REMARK SMILES IDX 30 23 1 24 3 25 22 26 60 27 28 28 54 29 55 30 7 31 8 32 9 33
REMARK SMILES IDX 10 34 11 35 17 36 12 37 15 38 13 39 18 40 16 42 14 44 33 46
REMARK SMILES IDX 34 47 51 48 35 49 49 50 36 51 52 52 50 54 37 56 38 57 39 58
REMARK SMILES IDX 47 59 40 60 45 61 43 62 48 63 41 65 42 66 46 68 44 70
REMARK H PARENT 18 41 16 43 14 45 52 53 50 55 48 64 42 67 46 69 44 71
ROOT
ATOM      1  O   UNL     1      26.493  58.299  42.480  1.00  0.00    -0.346 OA
ENDROOT
BRANCH   1   2
ATOM      2  C   UNL     1      27.844  58.201  42.909  1.00  0.00     0.127 C 
ATOM      3  C   UNL     1      33.163  61.241  49.590  1.00  0.00    -0.035 C 
ATOM      4  C   UNL     1      33.994  60.600  50.752  1.00  0.00     0.007 C 
ATOM      5  C   UNL     1      32.214  60.194  48.916  1.00  0.00     0.015 C 
ATOM      6  C   UNL     1      34.183  59.099  50.526  1.00  0.00     0.020 C 
ATOM      7  C   UNL     1      31.645  59.198  49.942  1.00  0.00     0.033 C 
ATOM      8  C   UNL     1      32.808  58.349  50.659  1.00  0.00     0.075 C 
ATOM      9  C   UNL     1      30.535  58.381  49.290  1.00  0.00    -0.063 C 
ATOM     10  C   UNL     1      32.992  56.891  50.109  1.00  0.00     0.020 C 
ATOM     11  C   UNL     1      30.733  56.928  48.877  1.00  0.00    -0.006 C 
ATOM     12  C   UNL     1      29.336  58.967  49.073  1.00  0.00    -0.027 C 
ATOM     13  C   UNL     1      32.266  56.621  48.803  1.00  0.00     0.013 C 
ATOM     14  C   UNL     1      29.998  56.587  47.443  1.00  0.00    -0.020 C 
ATOM     15  C   UNL     1      28.235  58.238  48.346  1.00  0.00     0.032 C 
ATOM     16  C   UNL     1      30.955  56.633  46.202  1.00  0.00     0.008 C 
ATOM     17  C   UNL     1      28.884  57.661  47.071  1.00  0.00     0.006 C 
ATOM     18  C   UNL     1      30.270  56.819  44.809  1.00  0.00     0.005 C 
ATOM     19  C   UNL     1      27.904  57.259  45.880  1.00  0.00    -0.025 C 
ATOM     20  C   UNL     1      28.738  56.492  44.723  1.00  0.00     0.003 C 
ATOM     21  C   UNL     1      27.227  58.563  45.305  1.00  0.00     0.010 C 
ATOM     22  C   UNL     1      28.150  56.678  43.256  1.00  0.00    -0.006 C 
ATOM     23  C   UNL     1      27.979  59.151  44.118  1.00  0.00     0.033 C 
ATOM     24  C   UNL     1      32.358  62.427  50.168  1.00  0.00     0.011 C 
ATOM     25  C   UNL     1      34.102  61.789  48.494  1.00  0.00     0.011 C 
ATOM     26  C   UNL     1      30.114  56.132  50.089  1.00  0.00     0.017 C 
ATOM     27  C   UNL     1      29.496  55.106  47.560  1.00  0.00     0.012 C 
ATOM     28  C   UNL     1      26.739  56.397  46.461  1.00  0.00     0.012 C 
ATOM     29  C   UNL     1      26.865  55.803  43.115  1.00  0.00     0.014 C 
ATOM     30  C   UNL     1      29.112  56.106  42.177  1.00  0.00     0.014 C 
BRANCH   8  31
ATOM     31  C   UNL     1      32.500  58.178  52.154  1.00  0.00     0.315 C 
ATOM     32  O   UNL     1      33.265  57.580  52.895  1.00  0.00    -0.252 OA
BRANCH  31  33
ATOM     33  O   UNL     1      31.389  58.786  52.663  1.00  0.00    -0.432 OA
BRANCH  33  34
ATOM     34  C   UNL     1      30.437  58.191  53.483  1.00  0.00     0.342 C 
ATOM     35  O   UNL     1      29.181  58.225  52.834  1.00  0.00    -0.338 OA
ATOM     36  C   UNL     1      30.385  58.886  54.880  1.00  0.00     0.214 C 
ATOM     37  C   UNL     1      28.716  59.555  52.558  1.00  0.00     0.199 C 
ATOM     38  C   UNL     1      29.336  60.026  54.912  1.00  0.00     0.180 C 
ATOM     39  C   UNL     1      29.216  60.675  53.519  1.00  0.00     0.171 C 
BRANCH  36  40
ATOM     40  O   UNL     1      30.115  57.975  55.915  1.00  0.00    -0.384 OA
ATOM     41  H   UNL     1      29.789  58.494  56.694  1.00  0.00     0.211 HD
ENDBRANCH  36  40
BRANCH  38  42
ATOM     42  O   UNL     1      29.573  60.945  55.949  1.00  0.00    -0.387 OA
ATOM     43  H   UNL     1      30.542  61.150  55.969  1.00  0.00     0.211 HD
ENDBRANCH  38  42
BRANCH  39  44
ATOM     44  O   UNL     1      30.418  61.234  53.030  1.00  0.00    -0.388 OA
ATOM     45  H   UNL     1      30.404  61.294  52.042  1.00  0.00     0.211 HD
ENDBRANCH  39  44
ENDBRANCH  33  34
ENDBRANCH  31  33
ENDBRANCH   8  31
ENDBRANCH   1   2
BRANCH   1  46
ATOM     46  C   UNL     1      26.206  59.340  41.577  1.00  0.00     0.281 C 
ATOM     47  O   UNL     1      26.240  60.569  42.276  1.00  0.00    -0.347 OA
ATOM     48  C   UNL     1      24.786  59.050  41.003  1.00  0.00     0.202 C 
ATOM     49  C   UNL     1      25.942  61.694  41.445  1.00  0.00     0.198 C 
ATOM     50  C   UNL     1      24.076  60.336  40.505  1.00  0.00     0.179 C 
ATOM     51  C   UNL     1      25.138  61.373  40.151  1.00  0.00     0.179 C 
BRANCH  48  52
ATOM     52  O   UNL     1      24.884  58.093  39.975  1.00  0.00    -0.385 OA
ATOM     53  H   UNL     1      25.794  57.699  40.015  1.00  0.00     0.211 HD
ENDBRANCH  48  52
BRANCH  50  54
ATOM     54  O   UNL     1      23.192  60.862  41.476  1.00  0.00    -0.387 OA
ATOM     55  H   UNL     1      23.644  60.881  42.358  1.00  0.00     0.211 HD
ENDBRANCH  50  54
BRANCH  51  56
ATOM     56  O   UNL     1      24.525  62.558  39.684  1.00  0.00    -0.341 OA
BRANCH  56  57
ATOM     57  C   UNL     1      24.020  62.462  38.363  1.00  0.00     0.282 C 
ATOM     58  O   UNL     1      22.757  61.834  38.429  1.00  0.00    -0.341 OA
ATOM     59  C   UNL     1      25.006  61.618  37.509  1.00  0.00     0.202 C 
ATOM     60  C   UNL     1      22.078  61.908  37.176  1.00  0.00     0.178 C 
ATOM     61  C   UNL     1      24.242  60.730  36.479  1.00  0.00     0.179 C 
ATOM     62  C   UNL     1      22.982  61.450  35.962  1.00  0.00     0.177 C 
BRANCH  59  63
ATOM     63  O   UNL     1      25.972  62.445  36.908  1.00  0.00    -0.385 OA
ATOM     64  H   UNL     1      25.896  63.353  37.296  1.00  0.00     0.211 HD
ENDBRANCH  59  63
BRANCH  60  65
ATOM     65  C   UNL     1      20.808  61.054  37.295  1.00  0.00     0.191 C 
BRANCH  65  66
ATOM     66  O   UNL     1      20.406  60.574  36.040  1.00  0.00    -0.394 OA
ATOM     67  H   UNL     1      21.185  60.690  35.429  1.00  0.00     0.210 HD
ENDBRANCH  65  66
ENDBRANCH  60  65
BRANCH  61  68
ATOM     68  O   UNL     1      23.857  59.496  37.051  1.00  0.00    -0.387 OA
ATOM     69  H   UNL     1      23.068  59.131  36.576  1.00  0.00     0.211 HD
ENDBRANCH  61  68
BRANCH  62  70
ATOM     70  O   UNL     1      23.342  62.520  35.118  1.00  0.00    -0.387 OA
ATOM     71  H   UNL     1      23.150  63.381  35.564  1.00  0.00     0.211 HD
ENDBRANCH  62  70
ENDBRANCH  56  57
ENDBRANCH  51  56
ENDBRANCH   1  46
TORSDOF 17
ENDMDL
