REMARK  Name = 
REMARK  22 active torsions:
REMARK  status: ('A' for Active; 'I' for Inactive)
REMARK    1  A    between atoms: C_1  and  C_2
REMARK    2  A    between atoms: C_3  and  C_4
REMARK    3  A    between atoms: C_8  and  C_9
REMARK    4  A    between atoms: C_9  and  C_10
REMARK    5  A    between atoms: C_9  and  C_11
REMARK    6  A    between atoms: C_12  and  O_13
REMARK    7  A    between atoms: C_20  and  O_21
REMARK    8  A    between atoms: C_23  and  O_24
REMARK    9  A    between atoms: O_24  and  C_25
REMARK   10  A    between atoms: C_27  and  C_28
REMARK   11  A    between atoms: C_28  and  O_29
REMARK   12  A    between atoms: C_30  and  O_31
REMARK   13  A    between atoms: O_31  and  C_32
REMARK   14  A    between atoms: C_34  and  C_35
REMARK   15  A    between atoms: C_36  and  O_37
REMARK   16  A    between atoms: C_38  and  O_39
REMARK   17  A    between atoms: C_40  and  O_41
REMARK   18  A    between atoms: C_42  and  O_43
REMARK   19  A    between atoms: C_44  and  O_45
REMARK   20  A    between atoms: C_47  and  O_48
REMARK   21  A    between atoms: C_49  and  C_50
REMARK   22  A    between atoms: C_54  and  C_55
REMARK                            x       y       z     vdW  Elec       q    Type
REMARK                         _______ _______ _______ _____ _____    ______ ____
ROOT
ATOM      1  C   UNL     1      31.831  56.555  45.048  0.00  0.00    +0.000 C 
ATOM      2  C   UNL     1      30.880  55.789  46.045  0.00  0.00    +0.000 C 
ATOM      3  C   UNL     1      29.433  55.991  45.550  0.00  0.00    +0.000 C 
ATOM      4  C   UNL     1      29.548  57.187  44.621  0.00  0.00    +0.000 C 
ATOM      5  C   UNL     1      28.337  57.464  43.688  0.00  0.00    +0.000 C 
ATOM      6  C   UNL     1      27.112  57.819  44.548  0.00  0.00    +0.000 C 
ATOM      7  O   UNL     1      25.985  57.208  44.015  0.00  0.00    +0.000 OA
ATOM      8  C   UNL     1      26.005  58.616  43.912  0.00  0.00    +0.000 C 
ATOM      9  C   UNL     1      25.990  58.954  42.390  0.00  0.00    +0.000 C 
ATOM     10  C   UNL     1      25.269  60.327  42.183  0.00  0.00    +0.000 C 
ATOM     11  C   UNL     1      25.202  60.670  40.680  0.00  0.00    +0.000 C 
ATOM     12  C   UNL     1      26.594  60.723  40.007  0.00  0.00    +0.000 C 
ATOM     13  C   UNL     1      27.750  60.304  40.936  0.00  0.00    +0.000 C 
ATOM     14  C   UNL     1      27.466  58.940  41.705  0.00  0.00    +0.000 C 
ATOM     15  C   UNL     1      27.485  57.808  40.617  0.00  0.00    +0.000 C 
ATOM     16  C   UNL     1      28.646  58.674  42.758  0.00  0.00    +0.000 C 
ATOM     17  C   UNL     1      30.061  58.569  42.091  0.00  0.00    +0.000 C 
ATOM     18  C   UNL     1      31.182  58.226  43.093  0.00  0.00    +0.000 C 
ATOM     19  C   UNL     1      30.864  56.905  43.854  0.00  0.00    +0.000 C 
ATOM     20  C   UNL     1      30.764  55.695  42.857  0.00  0.00    +0.000 C 
ENDROOT
BRANCH   1  21
ATOM     21  C   UNL     1      33.230  55.877  44.753  0.00  0.00    +0.000 C 
ATOM     22  C   UNL     1      33.088  54.566  43.950  0.00  0.00    +0.000 C 
BRANCH  21  30
ATOM     23  C   UNL     1      35.338  59.205  46.815  0.00  0.00    +0.000 C 
ATOM     24  C   UNL     1      35.586  58.187  45.726  0.00  0.00    +0.000 C 
ATOM     25  C   UNL     1      36.665  57.361  45.634  0.00  0.00    +0.000 C 
ATOM     26  C   UNL     1      37.838  57.350  46.590  0.00  0.00    +0.000 C 
ATOM     27  C   UNL     1      36.673  56.359  44.525  0.00  0.00    +0.000 C 
ATOM     28  O   UNL     1      37.669  55.687  44.307  0.00  0.00    +0.000 OA
ATOM     29  O   UNL     1      35.524  56.081  43.845  0.00  0.00    +0.000 OA
ATOM     30  C   UNL     1      34.325  56.754  44.035  0.00  0.00    +0.000 C 
ATOM     31  C   UNL     1      34.597  58.168  44.591  0.00  0.00    +0.000 C 
ENDBRANCH  21  30
ENDBRANCH   1  21
BRANCH   2  32
ATOM     32  O   UNL     1      31.145  54.418  46.214  0.00  0.00    +0.000 OA
ATOM     33  H   UNL     1      31.202  54.224  47.182  0.00  0.00    +0.000 HD
ENDBRANCH   2  32
BRANCH   9  34
ATOM     34  O   UNL     1      25.162  57.988  41.758  0.00  0.00    +0.000 OA
ATOM     35  H   UNL     1      25.730  57.259  41.391  0.00  0.00    +0.000 HD
ENDBRANCH   9  34
BRANCH  13  36
ATOM     36  O   UNL     1      28.065  61.402  41.770  0.00  0.00    +0.000 OA
ATOM     37  H   UNL     1      27.516  61.409  42.588  0.00  0.00    +0.000 HD
ENDBRANCH  13  36
BRANCH  11  38
ATOM     38  O   UNL     1      24.535  61.913  40.492  0.00  0.00    +0.000 OA
BRANCH  38  39
ATOM     39  C   UNL     1      23.578  61.900  39.440  0.00  0.00    +0.000 C 
ATOM     40  O   UNL     1      23.976  60.925  38.489  0.00  0.00    +0.000 OA
ATOM     41  C   UNL     1      23.097  60.921  37.371  0.00  0.00    +0.000 C 
ATOM     42  C   UNL     1      21.671  60.484  37.797  0.00  0.00    +0.000 C 
ATOM     43  C   UNL     1      21.169  61.436  38.899  0.00  0.00    +0.000 C 
ATOM     44  C   UNL     1      22.207  61.520  40.035  0.00  0.00    +0.000 C 
BRANCH  43  45
ATOM     45  O   UNL     1      19.912  61.039  39.386  0.00  0.00    +0.000 OA
ATOM     46  H   UNL     1      19.688  60.167  38.966  0.00  0.00    +0.000 HD
ENDBRANCH  43  45
BRANCH  44  47
ATOM     47  O   UNL     1      21.803  62.438  41.019  0.00  0.00    +0.000 OA
ATOM     48  H   UNL     1      22.281  62.209  41.859  0.00  0.00    +0.000 HD
ENDBRANCH  44  47
BRANCH  41  49
ATOM     49  C   UNL     1      23.675  59.988  36.297  0.00  0.00    +0.000 C 
BRANCH  49  50
ATOM     50  O   UNL     1      25.065  59.853  36.435  0.00  0.00    +0.000 OA
ATOM     51  H   UNL     1      25.464  60.071  35.553  0.00  0.00    +0.000 HD
ENDBRANCH  49  50
ENDBRANCH  41  49
BRANCH  42  52
ATOM     52  O   UNL     1      20.795  60.580  36.681  0.00  0.00    +0.000 OA
BRANCH  52  53
ATOM     53  C   UNL     1      20.833  61.828  36.004  0.00  0.00    +0.000 C 
ATOM     54  O   UNL     1      19.561  62.442  36.159  0.00  0.00    +0.000 OA
ATOM     55  C   UNL     1      19.525  63.726  35.547  0.00  0.00    +0.000 C 
ATOM     56  C   UNL     1      18.173  64.367  35.862  0.00  0.00    +0.000 C 
ATOM     57  C   UNL     1      19.724  63.597  34.009  0.00  0.00    +0.000 C 
ATOM     58  C   UNL     1      21.049  62.867  33.693  0.00  0.00    +0.000 C 
ATOM     59  C   UNL     1      21.119  61.555  34.502  0.00  0.00    +0.000 C 
BRANCH  57  60
ATOM     60  O   UNL     1      19.663  64.840  33.354  0.00  0.00    +0.000 OA
ATOM     61  H   UNL     1      19.464  64.665  32.397  0.00  0.00    +0.000 HD
ENDBRANCH  57  60
BRANCH  58  62
ATOM     62  O   UNL     1      22.177  63.676  33.939  0.00  0.00    +0.000 OA
ATOM     63  H   UNL     1      21.956  64.361  34.616  0.00  0.00    +0.000 HD
ENDBRANCH  58  62
BRANCH  59  64
ATOM     64  O   UNL     1      20.218  60.603  33.977  0.00  0.00    +0.000 OA
ATOM     65  H   UNL     1      19.344  61.040  33.811  0.00  0.00    +0.000 HD
ENDBRANCH  59  64
ENDBRANCH  52  53
ENDBRANCH  42  52
ENDBRANCH  38  39
ENDBRANCH  11  38
TORSDOF 16
