MODEL 1
REMARK VINA RESULT:   -12.211      0.000      0.000
REMARK INTER + INTRA:         -20.217
REMARK INTER:                 -19.350
REMARK INTRA:                  -0.867
REMARK UNBOUND:                -0.867
REMARK SMILES C[C@H]1O[C@@H](O[C@H]2[C@@H](O)C[C@H](O[C@H]3[C@@H](O)C[C@H](O[C@H]4CC[C@@]5(C)[C@H](CC[C@@H]6[C@@H]5CC[C@]5(C)[C@@H](C7=CCOC7=O)[C@@H](O)C[C@]65O)C4)O[C@@H]3C)O[C@@H]2C)C[C@H](O)[C@@H]1O
REMARK SMILES IDX 11 1 10 2 6 3 7 4 49 5 9 6 48 7 50 8 5 9 4 10 2 11 3 12
REMARK SMILES IDX 54 13 52 14 51 15 1 16 55 17 53 19 8 21 12 23 13 24 46 25
REMARK SMILES IDX 15 26 45 27 16 28 47 29 14 30 17 32 18 33 19 34 44 35 20 36
REMARK SMILES IDX 23 37 21 38 24 39 27 40 25 41 26 42 28 43 42 44 29 45 41 46
REMARK SMILES IDX 30 47 39 48 32 49 22 50 31 51 43 52 40 54 33 56 34 57 37 58
REMARK SMILES IDX 35 59 36 60 38 61
REMARK H PARENT 55 18 53 20 8 22 14 31 43 53 40 55
ROOT
ATOM      1  O   UNL     1      23.527  61.171  40.388  1.00  0.00    -0.344 OA
ENDROOT
BRANCH   1   2
ATOM      2  C   UNL     1      23.245  62.530  40.055  1.00  0.00     0.253 C 
ATOM      3  C   UNL     1      22.275  61.572  37.675  1.00  0.00     0.179 C 
ATOM      4  C   UNL     1      23.258  62.740  37.480  1.00  0.00     0.151 C 
ATOM      5  C   UNL     1      21.276  62.012  38.795  1.00  0.00     0.150 C 
ATOM      6  C   UNL     1      24.037  62.966  38.796  1.00  0.00     0.096 C 
ATOM      7  O   UNL     1      21.847  62.706  39.910  1.00  0.00    -0.347 OA
ATOM      8  C   UNL     1      20.428  60.835  39.277  1.00  0.00     0.041 C 
BRANCH   3   9
ATOM      9  O   UNL     1      21.512  61.265  36.515  1.00  0.00    -0.344 OA
BRANCH   9  10
ATOM     10  C   UNL     1      21.259  62.389  35.694  1.00  0.00     0.253 C 
ATOM     11  C   UNL     1      19.571  63.923  35.117  1.00  0.00     0.149 C 
ATOM     12  O   UNL     1      19.908  62.784  35.895  1.00  0.00    -0.347 OA
ATOM     13  C   UNL     1      19.683  63.587  33.604  1.00  0.00     0.172 C 
ATOM     14  C   UNL     1      21.101  63.084  33.263  1.00  0.00     0.150 C 
ATOM     15  C   UNL     1      21.467  61.949  34.231  1.00  0.00     0.096 C 
ATOM     16  C   UNL     1      18.140  64.328  35.471  1.00  0.00     0.041 C 
BRANCH  13  17
ATOM     17  O   UNL     1      19.316  64.668  32.784  1.00  0.00    -0.388 OA
ATOM     18  H   UNL     1      18.365  64.544  32.530  1.00  0.00     0.211 HD
ENDBRANCH  13  17
BRANCH  14  19
ATOM     19  O   UNL     1      22.066  64.114  33.284  1.00  0.00    -0.390 OA
ATOM     20  H   UNL     1      21.970  64.676  32.477  1.00  0.00     0.211 HD
ENDBRANCH  14  19
ENDBRANCH   9  10
ENDBRANCH   3   9
BRANCH   4  21
ATOM     21  O   UNL     1      22.558  63.897  37.072  1.00  0.00    -0.390 OA
ATOM     22  H   UNL     1      22.260  64.402  37.872  1.00  0.00     0.211 HD
ENDBRANCH   4  21
ENDBRANCH   1   2
BRANCH   1  23
ATOM     23  C   UNL     1      24.923  60.893  40.419  1.00  0.00     0.179 C 
ATOM     24  C   UNL     1      25.503  61.151  41.821  1.00  0.00     0.151 C 
ATOM     25  C   UNL     1      25.204  59.429  40.000  1.00  0.00     0.150 C 
ATOM     26  C   UNL     1      26.988  60.754  41.816  1.00  0.00     0.096 C 
ATOM     27  O   UNL     1      26.605  59.182  39.995  1.00  0.00    -0.347 OA
ATOM     28  C   UNL     1      27.175  59.304  41.288  1.00  0.00     0.253 C 
ATOM     29  C   UNL     1      24.682  59.175  38.584  1.00  0.00     0.041 C 
BRANCH  24  30
ATOM     30  O   UNL     1      24.783  60.485  42.833  1.00  0.00    -0.390 OA
ATOM     31  H   UNL     1      23.889  60.894  42.935  1.00  0.00     0.211 HD
ENDBRANCH  24  30
BRANCH  28  32
ATOM     32  O   UNL     1      28.556  59.012  41.154  1.00  0.00    -0.349 OA
BRANCH  32  33
ATOM     33  C   UNL     1      28.947  57.863  41.889  1.00  0.00     0.121 C 
ATOM     34  C   UNL     1      30.410  58.039  42.350  1.00  0.00     0.033 C 
ATOM     35  C   UNL     1      27.968  57.645  43.062  1.00  0.00     0.036 C 
ATOM     36  C   UNL     1      30.650  57.278  43.656  1.00  0.00     0.010 C 
ATOM     37  C   UNL     1      28.388  58.403  44.337  1.00  0.00    -0.002 C 
ATOM     38  C   UNL     1      29.836  57.928  44.842  1.00  0.00    -0.026 C 
ATOM     39  C   UNL     1      27.245  58.204  45.387  1.00  0.00     0.005 C 
ATOM     40  C   UNL     1      29.622  56.873  45.971  1.00  0.00     0.001 C 
ATOM     41  C   UNL     1      27.740  58.479  46.796  1.00  0.00     0.007 C 
ATOM     42  C   UNL     1      28.849  57.454  47.194  1.00  0.00     0.025 C 
ATOM     43  C   UNL     1      30.874  56.157  46.519  1.00  0.00     0.005 C 
ATOM     44  C   UNL     1      28.334  56.308  48.141  1.00  0.00     0.076 C 
ATOM     45  C   UNL     1      30.395  54.908  47.261  1.00  0.00     0.011 C 
ATOM     46  C   UNL     1      27.140  55.491  47.622  1.00  0.00     0.068 C 
ATOM     47  C   UNL     1      29.408  55.172  48.461  1.00  0.00     0.006 C 
ATOM     48  C   UNL     1      27.058  54.336  48.635  1.00  0.00     0.125 C 
ATOM     49  C   UNL     1      28.528  53.858  48.637  1.00  0.00     0.064 C 
ATOM     50  C   UNL     1      30.658  59.141  45.372  1.00  0.00     0.012 C 
ATOM     51  C   UNL     1      30.245  55.541  49.711  1.00  0.00     0.015 C 
BRANCH  44  52
ATOM     52  O   UNL     1      27.872  56.925  49.331  1.00  0.00    -0.389 OA
ATOM     53  H   UNL     1      28.483  57.664  49.587  1.00  0.00     0.211 HD
ENDBRANCH  44  52
BRANCH  48  54
ATOM     54  O   UNL     1      26.588  54.806  49.883  1.00  0.00    -0.392 OA
ATOM     55  H   UNL     1      27.312  54.766  50.558  1.00  0.00     0.210 HD
ENDBRANCH  48  54
BRANCH  49  56
ATOM     56  C   UNL     1      28.941  52.784  49.631  1.00  0.00     0.043 C 
ATOM     57  C   UNL     1      29.600  51.659  49.379  1.00  0.00     0.025 C 
ATOM     58  C   UNL     1      28.770  52.815  51.073  1.00  0.00     0.334 C 
ATOM     59  C   UNL     1      29.860  50.922  50.662  1.00  0.00     0.261 C 
ATOM     60  O   UNL     1      29.304  51.722  51.640  1.00  0.00    -0.458 OA
ATOM     61  O   UNL     1      28.254  53.715  51.712  1.00  0.00    -0.247 OA
ENDBRANCH  49  56
ENDBRANCH  32  33
ENDBRANCH  28  32
ENDBRANCH   1  23
TORSDOF 13
ENDMDL
MODEL 2
REMARK VINA RESULT:   -12.032      1.932      2.327
REMARK INTER + INTRA:         -19.932
REMARK INTER:                 -19.089
REMARK INTRA:                  -0.843
REMARK UNBOUND:                -0.867
REMARK SMILES C[C@H]1O[C@@H](O[C@H]2[C@@H](O)C[C@H](O[C@H]3[C@@H](O)C[C@H](O[C@H]4CC[C@@]5(C)[C@H](CC[C@@H]6[C@@H]5CC[C@]5(C)[C@@H](C7=CCOC7=O)[C@@H](O)C[C@]65O)C4)O[C@@H]3C)O[C@@H]2C)C[C@H](O)[C@@H]1O
REMARK SMILES IDX 11 1 10 2 6 3 7 4 49 5 9 6 48 7 50 8 5 9 4 10 2 11 3 12
REMARK SMILES IDX 54 13 52 14 51 15 1 16 55 17 53 19 8 21 12 23 13 24 46 25
REMARK SMILES IDX 15 26 45 27 16 28 47 29 14 30 17 32 18 33 19 34 44 35 20 36
REMARK SMILES IDX 23 37 21 38 24 39 27 40 25 41 26 42 28 43 42 44 29 45 41 46
REMARK SMILES IDX 30 47 39 48 32 49 22 50 31 51 43 52 40 54 33 56 34 57 37 58
REMARK SMILES IDX 35 59 36 60 38 61
REMARK H PARENT 55 18 53 20 8 22 14 31 43 53 40 55
ROOT
ATOM      1  O   UNL     1      23.505  61.151  40.445  1.00  0.00    -0.344 OA
ENDROOT
BRANCH   1   2
ATOM      2  C   UNL     1      23.340  62.514  40.055  1.00  0.00     0.253 C 
ATOM      3  C   UNL     1      22.312  61.545  37.705  1.00  0.00     0.179 C 
ATOM      4  C   UNL     1      23.391  62.618  37.474  1.00  0.00     0.151 C 
ATOM      5  C   UNL     1      21.345  62.111  38.794  1.00  0.00     0.150 C 
ATOM      6  C   UNL     1      24.176  62.831  38.789  1.00  0.00     0.096 C 
ATOM      7  O   UNL     1      21.964  62.800  39.888  1.00  0.00    -0.347 OA
ATOM      8  C   UNL     1      20.398  61.030  39.314  1.00  0.00     0.041 C 
BRANCH   3   9
ATOM      9  O   UNL     1      21.536  61.255  36.549  1.00  0.00    -0.344 OA
BRANCH   9  10
ATOM     10  C   UNL     1      21.291  62.387  35.737  1.00  0.00     0.253 C 
ATOM     11  C   UNL     1      19.630  63.967  35.209  1.00  0.00     0.149 C 
ATOM     12  O   UNL     1      19.957  62.818  35.975  1.00  0.00    -0.347 OA
ATOM     13  C   UNL     1      19.692  63.632  33.692  1.00  0.00     0.172 C 
ATOM     14  C   UNL     1      21.087  63.093  33.312  1.00  0.00     0.150 C 
ATOM     15  C   UNL     1      21.449  61.946  34.268  1.00  0.00     0.096 C 
ATOM     16  C   UNL     1      18.219  64.409  35.602  1.00  0.00     0.041 C 
BRANCH  13  17
ATOM     17  O   UNL     1      19.332  64.725  32.885  1.00  0.00    -0.388 OA
ATOM     18  H   UNL     1      18.500  65.115  33.259  1.00  0.00     0.211 HD
ENDBRANCH  13  17
BRANCH  14  19
ATOM     19  O   UNL     1      22.079  64.097  33.310  1.00  0.00    -0.390 OA
ATOM     20  H   UNL     1      21.671  64.966  33.078  1.00  0.00     0.211 HD
ENDBRANCH  14  19
ENDBRANCH   9  10
ENDBRANCH   3   9
BRANCH   4  21
ATOM     21  O   UNL     1      22.794  63.811  37.012  1.00  0.00    -0.390 OA
ATOM     22  H   UNL     1      21.809  63.746  37.110  1.00  0.00     0.211 HD
ENDBRANCH   4  21
ENDBRANCH   1   2
BRANCH   1  23
ATOM     23  C   UNL     1      24.870  60.747  40.460  1.00  0.00     0.179 C 
ATOM     24  C   UNL     1      25.535  61.106  41.800  1.00  0.00     0.151 C 
ATOM     25  C   UNL     1      24.997  59.224  40.207  1.00  0.00     0.150 C 
ATOM     26  C   UNL     1      26.976  60.571  41.789  1.00  0.00     0.096 C 
ATOM     27  O   UNL     1      26.368  58.845  40.181  1.00  0.00    -0.347 OA
ATOM     28  C   UNL     1      27.006  59.059  41.430  1.00  0.00     0.253 C 
ATOM     29  C   UNL     1      24.389  58.862  38.850  1.00  0.00     0.041 C 
BRANCH  24  30
ATOM     30  O   UNL     1      24.805  60.632  42.909  1.00  0.00    -0.390 OA
ATOM     31  H   UNL     1      25.315  59.923  43.370  1.00  0.00     0.211 HD
ENDBRANCH  24  30
BRANCH  28  32
ATOM     32  O   UNL     1      28.347  58.623  41.283  1.00  0.00    -0.349 OA
BRANCH  32  33
ATOM     33  C   UNL     1      28.506  57.239  41.552  1.00  0.00     0.121 C 
ATOM     34  C   UNL     1      29.994  56.865  41.380  1.00  0.00     0.033 C 
ATOM     35  C   UNL     1      27.965  56.924  42.963  1.00  0.00     0.036 C 
ATOM     36  C   UNL     1      30.354  55.690  42.293  1.00  0.00     0.010 C 
ATOM     37  C   UNL     1      29.032  57.094  44.062  1.00  0.00    -0.002 C 
ATOM     38  C   UNL     1      30.281  56.117  43.812  1.00  0.00    -0.026 C 
ATOM     39  C   UNL     1      28.314  56.879  45.435  1.00  0.00     0.005 C 
ATOM     40  C   UNL     1      30.080  54.852  44.703  1.00  0.00     0.001 C 
ATOM     41  C   UNL     1      29.313  56.547  46.530  1.00  0.00     0.007 C 
ATOM     42  C   UNL     1      30.029  55.193  46.223  1.00  0.00     0.025 C 
ATOM     43  C   UNL     1      31.084  53.694  44.526  1.00  0.00     0.005 C 
ATOM     44  C   UNL     1      29.473  53.984  47.061  1.00  0.00     0.076 C 
ATOM     45  C   UNL     1      30.454  52.447  45.148  1.00  0.00     0.011 C 
ATOM     46  C   UNL     1      27.962  53.723  46.947  1.00  0.00     0.068 C 
ATOM     47  C   UNL     1      30.092  52.563  46.678  1.00  0.00     0.006 C 
ATOM     48  C   UNL     1      27.801  52.370  47.659  1.00  0.00     0.125 C 
ATOM     49  C   UNL     1      28.901  51.545  46.953  1.00  0.00     0.064 C 
ATOM     50  C   UNL     1      31.618  56.833  44.167  1.00  0.00     0.012 C 
ATOM     51  C   UNL     1      31.369  52.278  47.505  1.00  0.00     0.015 C 
BRANCH  44  52
ATOM     52  O   UNL     1      29.694  54.286  48.429  1.00  0.00    -0.389 OA
ATOM     53  H   UNL     1      28.827  54.457  48.880  1.00  0.00     0.211 HD
ENDBRANCH  44  52
BRANCH  48  54
ATOM     54  O   UNL     1      27.980  52.521  49.054  1.00  0.00    -0.392 OA
ATOM     55  H   UNL     1      28.505  53.340  49.245  1.00  0.00     0.210 HD
ENDBRANCH  48  54
BRANCH  49  56
ATOM     56  C   UNL     1      29.193  50.140  47.457  1.00  0.00     0.043 C 
ATOM     57  C   UNL     1      29.022  49.671  48.688  1.00  0.00     0.025 C 
ATOM     58  C   UNL     1      29.639  49.004  46.671  1.00  0.00     0.334 C 
ATOM     59  C   UNL     1      29.372  48.211  48.730  1.00  0.00     0.261 C 
ATOM     60  O   UNL     1      29.741  47.905  47.435  1.00  0.00    -0.458 OA
ATOM     61  O   UNL     1      29.858  49.007  45.472  1.00  0.00    -0.247 OA
ENDBRANCH  49  56
ENDBRANCH  32  33
ENDBRANCH  28  32
ENDBRANCH   1  23
TORSDOF 13
ENDMDL
MODEL 3
REMARK VINA RESULT:   -11.765      2.323     13.871
REMARK INTER + INTRA:         -19.510
REMARK INTER:                 -17.725
REMARK INTRA:                  -1.785
REMARK UNBOUND:                -0.867
REMARK SMILES C[C@H]1O[C@@H](O[C@H]2[C@@H](O)C[C@H](O[C@H]3[C@@H](O)C[C@H](O[C@H]4CC[C@@]5(C)[C@H](CC[C@@H]6[C@@H]5CC[C@]5(C)[C@@H](C7=CCOC7=O)[C@@H](O)C[C@]65O)C4)O[C@@H]3C)O[C@@H]2C)C[C@H](O)[C@@H]1O
REMARK SMILES IDX 11 1 10 2 6 3 7 4 49 5 9 6 48 7 50 8 5 9 4 10 2 11 3 12
REMARK SMILES IDX 54 13 52 14 51 15 1 16 55 17 53 19 8 21 12 23 13 24 46 25
REMARK SMILES IDX 15 26 45 27 16 28 47 29 14 30 17 32 18 33 19 34 44 35 20 36
REMARK SMILES IDX 23 37 21 38 24 39 27 40 25 41 26 42 28 43 42 44 29 45 41 46
REMARK SMILES IDX 30 47 39 48 32 49 22 50 31 51 43 52 40 54 33 56 34 57 37 58
REMARK SMILES IDX 35 59 36 60 38 61
REMARK H PARENT 55 18 53 20 8 22 14 31 43 53 40 55
ROOT
ATOM      1  O   UNL     1      30.685  55.272  44.603  1.00  0.00    -0.344 OA
ENDROOT
BRANCH   1   2
ATOM      2  C   UNL     1      31.926  54.863  45.177  1.00  0.00     0.253 C 
ATOM      3  C   UNL     1      30.439  53.293  46.864  1.00  0.00     0.179 C 
ATOM      4  C   UNL     1      31.478  54.141  47.617  1.00  0.00     0.151 C 
ATOM      5  C   UNL     1      31.188  52.637  45.659  1.00  0.00     0.150 C 
ATOM      6  C   UNL     1      31.996  55.253  46.676  1.00  0.00     0.096 C 
ATOM      7  O   UNL     1      32.118  53.477  44.963  1.00  0.00    -0.347 OA
ATOM      8  C   UNL     1      30.208  51.999  44.675  1.00  0.00     0.041 C 
BRANCH   3   9
ATOM      9  O   UNL     1      29.881  52.244  47.645  1.00  0.00    -0.344 OA
BRANCH   9  10
ATOM     10  C   UNL     1      29.030  52.703  48.678  1.00  0.00     0.253 C 
ATOM     11  C   UNL     1      27.681  51.938  50.447  1.00  0.00     0.149 C 
ATOM     12  O   UNL     1      28.536  51.566  49.376  1.00  0.00    -0.347 OA
ATOM     13  C   UNL     1      26.423  52.667  49.899  1.00  0.00     0.172 C 
ATOM     14  C   UNL     1      26.831  53.900  49.065  1.00  0.00     0.150 C 
ATOM     15  C   UNL     1      27.865  53.463  48.015  1.00  0.00     0.096 C 
ATOM     16  C   UNL     1      27.280  50.664  51.192  1.00  0.00     0.041 C 
BRANCH  13  17
ATOM     17  O   UNL     1      25.519  53.018  50.916  1.00  0.00    -0.388 OA
ATOM     18  H   UNL     1      25.289  53.977  50.797  1.00  0.00     0.211 HD
ENDBRANCH  13  17
BRANCH  14  19
ATOM     19  O   UNL     1      27.315  54.961  49.858  1.00  0.00    -0.390 OA
ATOM     20  H   UNL     1      27.828  54.598  50.621  1.00  0.00     0.211 HD
ENDBRANCH  14  19
ENDBRANCH   9  10
ENDBRANCH   3   9
BRANCH   4  21
ATOM     21  O   UNL     1      32.522  53.317  48.092  1.00  0.00    -0.390 OA
ATOM     22  H   UNL     1      33.058  53.816  48.761  1.00  0.00     0.211 HD
ENDBRANCH   4  21
ENDBRANCH   1   2
BRANCH   1  23
ATOM     23  C   UNL     1      30.494  56.682  44.659  1.00  0.00     0.179 C 
ATOM     24  C   UNL     1      31.372  57.397  43.616  1.00  0.00     0.151 C 
ATOM     25  C   UNL     1      29.008  57.048  44.426  1.00  0.00     0.150 C 
ATOM     26  C   UNL     1      31.061  58.901  43.665  1.00  0.00     0.096 C 
ATOM     27  O   UNL     1      28.828  58.455  44.528  1.00  0.00    -0.347 OA
ATOM     28  C   UNL     1      29.536  59.159  43.521  1.00  0.00     0.253 C 
ATOM     29  C   UNL     1      28.129  56.388  45.492  1.00  0.00     0.041 C 
BRANCH  24  30
ATOM     30  O   UNL     1      31.210  56.866  42.320  1.00  0.00    -0.390 OA
ATOM     31  H   UNL     1      30.284  57.014  42.009  1.00  0.00     0.211 HD
ENDBRANCH  24  30
BRANCH  28  32
ATOM     32  O   UNL     1      29.257  60.536  43.714  1.00  0.00    -0.349 OA
BRANCH  32  33
ATOM     33  C   UNL     1      28.679  61.145  42.570  1.00  0.00     0.121 C 
ATOM     34  C   UNL     1      29.116  60.360  41.313  1.00  0.00     0.033 C 
ATOM     35  C   UNL     1      27.146  61.205  42.739  1.00  0.00     0.036 C 
ATOM     36  C   UNL     1      28.046  60.465  40.224  1.00  0.00     0.010 C 
ATOM     37  C   UNL     1      26.439  59.936  42.220  1.00  0.00    -0.002 C 
ATOM     38  C   UNL     1      26.729  59.711  40.657  1.00  0.00    -0.026 C 
ATOM     39  C   UNL     1      24.923  60.078  42.578  1.00  0.00     0.005 C 
ATOM     40  C   UNL     1      25.513  60.280  39.862  1.00  0.00     0.001 C 
ATOM     41  C   UNL     1      24.069  59.159  41.722  1.00  0.00     0.007 C 
ATOM     42  C   UNL     1      24.177  59.559  40.216  1.00  0.00     0.025 C 
ATOM     43  C   UNL     1      25.624  60.310  38.323  1.00  0.00     0.005 C 
ATOM     44  C   UNL     1      22.935  60.370  39.691  1.00  0.00     0.076 C 
ATOM     45  C   UNL     1      24.555  61.275  37.809  1.00  0.00     0.011 C 
ATOM     46  C   UNL     1      22.589  61.650  40.468  1.00  0.00     0.068 C 
ATOM     47  C   UNL     1      23.071  60.907  38.194  1.00  0.00     0.006 C 
ATOM     48  C   UNL     1      21.526  62.309  39.572  1.00  0.00     0.125 C 
ATOM     49  C   UNL     1      22.242  62.266  38.204  1.00  0.00     0.064 C 
ATOM     50  C   UNL     1      26.927  58.197  40.349  1.00  0.00     0.012 C 
ATOM     51  C   UNL     1      22.549  59.858  37.183  1.00  0.00     0.015 C 
BRANCH  44  52
ATOM     52  O   UNL     1      21.799  59.533  39.833  1.00  0.00    -0.389 OA
ATOM     53  H   UNL     1      21.762  58.885  39.082  1.00  0.00     0.211 HD
ENDBRANCH  44  52
BRANCH  48  54
ATOM     54  O   UNL     1      20.314  61.581  39.628  1.00  0.00    -0.392 OA
ATOM     55  H   UNL     1      20.500  60.613  39.726  1.00  0.00     0.210 HD
ENDBRANCH  48  54
BRANCH  49  56
ATOM     56  C   UNL     1      21.474  62.705  36.967  1.00  0.00     0.043 C 
ATOM     57  C   UNL     1      20.181  62.993  36.878  1.00  0.00     0.025 C 
ATOM     58  C   UNL     1      22.021  62.979  35.650  1.00  0.00     0.334 C 
ATOM     59  C   UNL     1      19.855  63.450  35.485  1.00  0.00     0.261 C 
ATOM     60  O   UNL     1      21.060  63.400  34.813  1.00  0.00    -0.458 OA
ATOM     61  O   UNL     1      23.194  62.889  35.330  1.00  0.00    -0.247 OA
ENDBRANCH  49  56
ENDBRANCH  32  33
ENDBRANCH  28  32
ENDBRANCH   1  23
TORSDOF 13
ENDMDL
MODEL 4
REMARK VINA RESULT:   -11.745      3.402      4.410
REMARK INTER + INTRA:         -19.478
REMARK INTER:                 -18.913
REMARK INTRA:                  -0.564
REMARK UNBOUND:                -0.867
REMARK SMILES C[C@H]1O[C@@H](O[C@H]2[C@@H](O)C[C@H](O[C@H]3[C@@H](O)C[C@H](O[C@H]4CC[C@@]5(C)[C@H](CC[C@@H]6[C@@H]5CC[C@]5(C)[C@@H](C7=CCOC7=O)[C@@H](O)C[C@]65O)C4)O[C@@H]3C)O[C@@H]2C)C[C@H](O)[C@@H]1O
REMARK SMILES IDX 11 1 10 2 6 3 7 4 49 5 9 6 48 7 50 8 5 9 4 10 2 11 3 12
REMARK SMILES IDX 54 13 52 14 51 15 1 16 55 17 53 19 8 21 12 23 13 24 46 25
REMARK SMILES IDX 15 26 45 27 16 28 47 29 14 30 17 32 18 33 19 34 44 35 20 36
REMARK SMILES IDX 23 37 21 38 24 39 27 40 25 41 26 42 28 43 42 44 29 45 41 46
REMARK SMILES IDX 30 47 39 48 32 49 22 50 31 51 43 52 40 54 33 56 34 57 37 58
REMARK SMILES IDX 35 59 36 60 38 61
REMARK H PARENT 55 18 53 20 8 22 14 31 43 53 40 55
ROOT
ATOM      1  O   UNL     1      23.026  59.759  39.416  1.00  0.00    -0.344 OA
ENDROOT
BRANCH   1   2
ATOM      2  C   UNL     1      21.756  60.324  39.741  1.00  0.00     0.253 C 
ATOM      3  C   UNL     1      22.075  61.903  37.522  1.00  0.00     0.179 C 
ATOM      4  C   UNL     1      21.671  62.715  38.766  1.00  0.00     0.151 C 
ATOM      5  C   UNL     1      21.114  60.672  37.461  1.00  0.00     0.150 C 
ATOM      6  C   UNL     1      21.883  61.843  40.025  1.00  0.00     0.096 C 
ATOM      7  O   UNL     1      20.828  60.035  38.712  1.00  0.00    -0.347 OA
ATOM      8  C   UNL     1      21.592  59.643  36.437  1.00  0.00     0.041 C 
BRANCH   3   9
ATOM      9  O   UNL     1      21.936  62.619  36.301  1.00  0.00    -0.344 OA
BRANCH   9  10
ATOM     10  C   UNL     1      20.591  62.885  35.955  1.00  0.00     0.253 C 
ATOM     11  C   UNL     1      18.981  62.445  34.296  1.00  0.00     0.149 C 
ATOM     12  O   UNL     1      20.322  62.242  34.714  1.00  0.00    -0.347 OA
ATOM     13  C   UNL     1      18.722  63.956  34.045  1.00  0.00     0.172 C 
ATOM     14  C   UNL     1      19.036  64.779  35.312  1.00  0.00     0.150 C 
ATOM     15  C   UNL     1      20.446  64.412  35.800  1.00  0.00     0.096 C 
ATOM     16  C   UNL     1      18.761  61.643  33.013  1.00  0.00     0.041 C 
BRANCH  13  17
ATOM     17  O   UNL     1      17.418  64.210  33.585  1.00  0.00    -0.388 OA
ATOM     18  H   UNL     1      17.396  65.141  33.241  1.00  0.00     0.211 HD
ENDBRANCH  13  17
BRANCH  14  19
ATOM     19  O   UNL     1      18.074  64.605  36.329  1.00  0.00    -0.390 OA
ATOM     20  H   UNL     1      17.475  63.855  36.095  1.00  0.00     0.211 HD
ENDBRANCH  14  19
ENDBRANCH   9  10
ENDBRANCH   3   9
BRANCH   4  21
ATOM     21  O   UNL     1      20.335  63.154  38.642  1.00  0.00    -0.390 OA
ATOM     22  H   UNL     1      20.270  63.809  37.900  1.00  0.00     0.211 HD
ENDBRANCH   4  21
ENDBRANCH   1   2
BRANCH   1  23
ATOM     23  C   UNL     1      24.066  60.220  40.274  1.00  0.00     0.179 C 
ATOM     24  C   UNL     1      24.291  59.240  41.439  1.00  0.00     0.151 C 
ATOM     25  C   UNL     1      25.387  60.408  39.489  1.00  0.00     0.150 C 
ATOM     26  C   UNL     1      25.475  59.744  42.278  1.00  0.00     0.096 C 
ATOM     27  O   UNL     1      26.402  60.909  40.351  1.00  0.00    -0.347 OA
ATOM     28  C   UNL     1      26.723  59.995  41.387  1.00  0.00     0.253 C 
ATOM     29  C   UNL     1      25.191  61.424  38.361  1.00  0.00     0.041 C 
BRANCH  24  30
ATOM     30  O   UNL     1      24.481  57.914  41.000  1.00  0.00    -0.390 OA
ATOM     31  H   UNL     1      24.491  57.301  41.774  1.00  0.00     0.211 HD
ENDBRANCH  24  30
BRANCH  28  32
ATOM     32  O   UNL     1      27.754  60.595  42.154  1.00  0.00    -0.349 OA
BRANCH  32  33
ATOM     33  C   UNL     1      28.993  59.915  42.034  1.00  0.00     0.121 C 
ATOM     34  C   UNL     1      30.045  60.637  42.904  1.00  0.00     0.033 C 
ATOM     35  C   UNL     1      28.805  58.433  42.423  1.00  0.00     0.036 C 
ATOM     36  C   UNL     1      31.103  59.644  43.391  1.00  0.00     0.010 C 
ATOM     37  C   UNL     1      29.000  58.183  43.931  1.00  0.00    -0.002 C 
ATOM     38  C   UNL     1      30.475  58.606  44.402  1.00  0.00    -0.026 C 
ATOM     39  C   UNL     1      28.647  56.682  44.197  1.00  0.00     0.005 C 
ATOM     40  C   UNL     1      31.350  57.315  44.440  1.00  0.00     0.001 C 
ATOM     41  C   UNL     1      29.247  56.201  45.506  1.00  0.00     0.007 C 
ATOM     42  C   UNL     1      30.807  56.254  45.445  1.00  0.00     0.025 C 
ATOM     43  C   UNL     1      32.857  57.489  44.726  1.00  0.00     0.005 C 
ATOM     44  C   UNL     1      31.474  54.850  45.207  1.00  0.00     0.076 C 
ATOM     45  C   UNL     1      33.553  56.199  44.289  1.00  0.00     0.011 C 
ATOM     46  C   UNL     1      31.006  54.084  43.960  1.00  0.00     0.068 C 
ATOM     47  C   UNL     1      33.058  54.886  45.008  1.00  0.00     0.006 C 
ATOM     48  C   UNL     1      32.003  52.915  43.890  1.00  0.00     0.125 C 
ATOM     49  C   UNL     1      33.342  53.676  44.014  1.00  0.00     0.064 C 
ATOM     50  C   UNL     1      30.430  59.282  45.805  1.00  0.00     0.012 C 
ATOM     51  C   UNL     1      33.787  54.769  46.369  1.00  0.00     0.015 C 
BRANCH  44  52
ATOM     52  O   UNL     1      31.116  54.025  46.304  1.00  0.00    -0.389 OA
ATOM     53  H   UNL     1      30.203  53.659  46.166  1.00  0.00     0.211 HD
ENDBRANCH  44  52
BRANCH  48  54
ATOM     54  O   UNL     1      31.752  51.989  44.929  1.00  0.00    -0.392 OA
ATOM     55  H   UNL     1      31.848  51.062  44.592  1.00  0.00     0.210 HD
ENDBRANCH  48  54
BRANCH  49  56
ATOM     56  C   UNL     1      34.627  52.872  44.131  1.00  0.00     0.043 C 
ATOM     57  C   UNL     1      34.753  51.588  44.446  1.00  0.00     0.025 C 
ATOM     58  C   UNL     1      35.974  53.330  43.839  1.00  0.00     0.334 C 
ATOM     59  C   UNL     1      36.198  51.186  44.379  1.00  0.00     0.261 C 
ATOM     60  O   UNL     1      36.861  52.336  43.999  1.00  0.00    -0.458 OA
ATOM     61  O   UNL     1      36.283  54.447  43.460  1.00  0.00    -0.247 OA
ENDBRANCH  49  56
ENDBRANCH  32  33
ENDBRANCH  28  32
ENDBRANCH   1  23
TORSDOF 13
ENDMDL
MODEL 5
REMARK VINA RESULT:   -11.719      1.662      2.230
REMARK INTER + INTRA:         -19.437
REMARK INTER:                 -19.278
REMARK INTRA:                  -0.159
REMARK UNBOUND:                -0.867
REMARK SMILES C[C@H]1O[C@@H](O[C@H]2[C@@H](O)C[C@H](O[C@H]3[C@@H](O)C[C@H](O[C@H]4CC[C@@]5(C)[C@H](CC[C@@H]6[C@@H]5CC[C@]5(C)[C@@H](C7=CCOC7=O)[C@@H](O)C[C@]65O)C4)O[C@@H]3C)O[C@@H]2C)C[C@H](O)[C@@H]1O
REMARK SMILES IDX 11 1 10 2 6 3 7 4 49 5 9 6 48 7 50 8 5 9 4 10 2 11 3 12
REMARK SMILES IDX 54 13 52 14 51 15 1 16 55 17 53 19 8 21 12 23 13 24 46 25
REMARK SMILES IDX 15 26 45 27 16 28 47 29 14 30 17 32 18 33 19 34 44 35 20 36
REMARK SMILES IDX 23 37 21 38 24 39 27 40 25 41 26 42 28 43 42 44 29 45 41 46
REMARK SMILES IDX 30 47 39 48 32 49 22 50 31 51 43 52 40 54 33 56 34 57 37 58
REMARK SMILES IDX 35 59 36 60 38 61
REMARK H PARENT 55 18 53 20 8 22 14 31 43 53 40 55
ROOT
ATOM      1  O   UNL     1      24.833  60.545  39.028  1.00  0.00    -0.344 OA
ENDROOT
BRANCH   1   2
ATOM      2  C   UNL     1      24.603  61.902  38.652  1.00  0.00     0.253 C 
ATOM      3  C   UNL     1      23.054  60.904  36.621  1.00  0.00     0.179 C 
ATOM      4  C   UNL     1      24.067  61.951  36.125  1.00  0.00     0.151 C 
ATOM      5  C   UNL     1      22.368  61.512  37.888  1.00  0.00     0.150 C 
ATOM      6  C   UNL     1      25.134  62.176  37.220  1.00  0.00     0.096 C 
ATOM      7  O   UNL     1      23.229  62.211  38.794  1.00  0.00    -0.347 OA
ATOM      8  C   UNL     1      21.549  60.460  38.635  1.00  0.00     0.041 C 
BRANCH   3   9
ATOM      9  O   UNL     1      22.031  60.606  35.680  1.00  0.00    -0.344 OA
BRANCH   9  10
ATOM     10  C   UNL     1      21.396  61.755  35.154  1.00  0.00     0.253 C 
ATOM     11  C   UNL     1      19.278  62.741  34.876  1.00  0.00     0.149 C 
ATOM     12  O   UNL     1      19.996  61.616  35.361  1.00  0.00    -0.347 OA
ATOM     13  C   UNL     1      19.458  62.866  33.337  1.00  0.00     0.172 C 
ATOM     14  C   UNL     1      20.954  62.966  32.973  1.00  0.00     0.150 C 
ATOM     15  C   UNL     1      21.703  61.804  33.644  1.00  0.00     0.096 C 
ATOM     16  C   UNL     1      17.802  62.545  35.228  1.00  0.00     0.041 C 
BRANCH  13  17
ATOM     17  O   UNL     1      18.730  63.940  32.795  1.00  0.00    -0.388 OA
ATOM     18  H   UNL     1      17.780  63.819  33.054  1.00  0.00     0.211 HD
ENDBRANCH  13  17
BRANCH  14  19
ATOM     19  O   UNL     1      21.519  64.213  33.316  1.00  0.00    -0.390 OA
ATOM     20  H   UNL     1      22.410  64.075  33.719  1.00  0.00     0.211 HD
ENDBRANCH  14  19
ENDBRANCH   9  10
ENDBRANCH   3   9
BRANCH   4  21
ATOM     21  O   UNL     1      23.397  63.145  35.781  1.00  0.00    -0.390 OA
ATOM     22  H   UNL     1      23.988  63.920  35.965  1.00  0.00     0.211 HD
ENDBRANCH   4  21
ENDBRANCH   1   2
BRANCH   1  23
ATOM     23  C   UNL     1      25.699  60.427  40.153  1.00  0.00     0.179 C 
ATOM     24  C   UNL     1      25.328  61.451  41.240  1.00  0.00     0.151 C 
ATOM     25  C   UNL     1      25.644  58.997  40.744  1.00  0.00     0.150 C 
ATOM     26  C   UNL     1      26.237  61.219  42.458  1.00  0.00     0.096 C 
ATOM     27  O   UNL     1      26.546  58.884  41.838  1.00  0.00    -0.347 OA
ATOM     28  C   UNL     1      26.188  59.735  42.915  1.00  0.00     0.253 C 
ATOM     29  C   UNL     1      26.065  57.972  39.687  1.00  0.00     0.041 C 
BRANCH  24  30
ATOM     30  O   UNL     1      23.962  61.401  41.584  1.00  0.00    -0.390 OA
ATOM     31  H   UNL     1      23.435  61.060  40.822  1.00  0.00     0.211 HD
ENDBRANCH  24  30
BRANCH  28  32
ATOM     32  O   UNL     1      27.140  59.514  43.942  1.00  0.00    -0.349 OA
BRANCH  32  33
ATOM     33  C   UNL     1      27.461  58.141  44.105  1.00  0.00     0.121 C 
ATOM     34  C   UNL     1      28.997  57.992  44.177  1.00  0.00     0.033 C 
ATOM     35  C   UNL     1      26.744  57.591  45.357  1.00  0.00     0.036 C 
ATOM     36  C   UNL     1      29.373  56.776  45.027  1.00  0.00     0.010 C 
ATOM     37  C   UNL     1      27.572  57.769  46.645  1.00  0.00    -0.002 C 
ATOM     38  C   UNL     1      28.980  57.005  46.539  1.00  0.00    -0.026 C 
ATOM     39  C   UNL     1      26.674  57.298  47.836  1.00  0.00     0.005 C 
ATOM     40  C   UNL     1      28.827  55.628  47.255  1.00  0.00     0.001 C 
ATOM     41  C   UNL     1      27.512  56.974  49.060  1.00  0.00     0.007 C 
ATOM     42  C   UNL     1      28.468  55.775  48.765  1.00  0.00     0.025 C 
ATOM     43  C   UNL     1      30.012  54.643  47.159  1.00  0.00     0.005 C 
ATOM     44  C   UNL     1      27.970  54.411  49.369  1.00  0.00     0.076 C 
ATOM     45  C   UNL     1      29.483  53.258  47.535  1.00  0.00     0.011 C 
ATOM     46  C   UNL     1      26.559  53.966  48.955  1.00  0.00     0.068 C 
ATOM     47  C   UNL     1      28.855  53.142  48.976  1.00  0.00     0.006 C 
ATOM     48  C   UNL     1      26.488  52.528  49.496  1.00  0.00     0.125 C 
ATOM     49  C   UNL     1      27.804  51.948  48.930  1.00  0.00     0.064 C 
ATOM     50  C   UNL     1      30.112  57.846  47.200  1.00  0.00     0.012 C 
ATOM     51  C   UNL     1      30.003  52.933  49.994  1.00  0.00     0.015 C 
BRANCH  44  52
ATOM     52  O   UNL     1      27.908  54.574  50.777  1.00  0.00    -0.389 OA
ATOM     53  H   UNL     1      28.321  53.791  51.225  1.00  0.00     0.211 HD
ENDBRANCH  44  52
BRANCH  48  54
ATOM     54  O   UNL     1      26.404  52.534  50.907  1.00  0.00    -0.392 OA
ATOM     55  H   UNL     1      27.086  53.144  51.288  1.00  0.00     0.210 HD
ENDBRANCH  48  54
BRANCH  49  56
ATOM     56  C   UNL     1      28.218  50.545  49.346  1.00  0.00     0.043 C 
ATOM     57  C   UNL     1      28.174  50.016  50.563  1.00  0.00     0.025 C 
ATOM     58  C   UNL     1      28.666  49.472  48.476  1.00  0.00     0.334 C 
ATOM     59  C   UNL     1      28.612  48.580  50.511  1.00  0.00     0.261 C 
ATOM     60  O   UNL     1      28.894  48.351  49.179  1.00  0.00    -0.458 OA
ATOM     61  O   UNL     1      28.789  49.538  47.265  1.00  0.00    -0.247 OA
ENDBRANCH  49  56
ENDBRANCH  32  33
ENDBRANCH  28  32
ENDBRANCH   1  23
TORSDOF 13
ENDMDL
MODEL 6
REMARK VINA RESULT:   -11.668      2.461     14.756
REMARK INTER + INTRA:         -19.356
REMARK INTER:                 -17.636
REMARK INTRA:                  -1.720
REMARK UNBOUND:                -0.867
REMARK SMILES C[C@H]1O[C@@H](O[C@H]2[C@@H](O)C[C@H](O[C@H]3[C@@H](O)C[C@H](O[C@H]4CC[C@@]5(C)[C@H](CC[C@@H]6[C@@H]5CC[C@]5(C)[C@@H](C7=CCOC7=O)[C@@H](O)C[C@]65O)C4)O[C@@H]3C)O[C@@H]2C)C[C@H](O)[C@@H]1O
REMARK SMILES IDX 11 1 10 2 6 3 7 4 49 5 9 6 48 7 50 8 5 9 4 10 2 11 3 12
REMARK SMILES IDX 54 13 52 14 51 15 1 16 55 17 53 19 8 21 12 23 13 24 46 25
REMARK SMILES IDX 15 26 45 27 16 28 47 29 14 30 17 32 18 33 19 34 44 35 20 36
REMARK SMILES IDX 23 37 21 38 24 39 27 40 25 41 26 42 28 43 42 44 29 45 41 46
REMARK SMILES IDX 30 47 39 48 32 49 22 50 31 51 43 52 40 54 33 56 34 57 37 58
REMARK SMILES IDX 35 59 36 60 38 61
REMARK H PARENT 55 18 53 20 8 22 14 31 43 53 40 55
ROOT
ATOM      1  O   UNL     1      27.520  59.019  45.947  1.00  0.00    -0.344 OA
ENDROOT
BRANCH   1   2
ATOM      2  C   UNL     1      26.850  58.559  47.120  1.00  0.00     0.253 C 
ATOM      3  C   UNL     1      28.412  56.313  46.930  1.00  0.00     0.179 C 
ATOM      4  C   UNL     1      26.922  55.976  47.120  1.00  0.00     0.151 C 
ATOM      5  C   UNL     1      28.761  57.407  47.990  1.00  0.00     0.150 C 
ATOM      6  C   UNL     1      26.082  57.242  46.837  1.00  0.00     0.096 C 
ATOM      7  O   UNL     1      27.778  58.433  48.182  1.00  0.00    -0.347 OA
ATOM      8  C   UNL     1      30.131  58.026  47.720  1.00  0.00     0.041 C 
BRANCH   3   9
ATOM      9  O   UNL     1      29.281  55.209  47.150  1.00  0.00    -0.344 OA
BRANCH   9  10
ATOM     10  C   UNL     1      29.379  54.339  46.039  1.00  0.00     0.253 C 
ATOM     11  C   UNL     1      29.834  52.102  45.468  1.00  0.00     0.149 C 
ATOM     12  O   UNL     1      29.729  53.048  46.522  1.00  0.00    -0.347 OA
ATOM     13  C   UNL     1      30.980  52.507  44.500  1.00  0.00     0.172 C 
ATOM     14  C   UNL     1      30.746  53.928  43.946  1.00  0.00     0.150 C 
ATOM     15  C   UNL     1      30.496  54.881  45.125  1.00  0.00     0.096 C 
ATOM     16  C   UNL     1      30.116  50.734  46.090  1.00  0.00     0.041 C 
BRANCH  13  17
ATOM     17  O   UNL     1      31.158  51.579  43.459  1.00  0.00    -0.388 OA
ATOM     18  H   UNL     1      30.901  50.685  43.806  1.00  0.00     0.211 HD
ENDBRANCH  13  17
BRANCH  14  19
ATOM     19  O   UNL     1      29.696  53.982  43.005  1.00  0.00    -0.390 OA
ATOM     20  H   UNL     1      29.466  53.067  42.711  1.00  0.00     0.211 HD
ENDBRANCH  14  19
ENDBRANCH   9  10
ENDBRANCH   3   9
BRANCH   4  21
ATOM     21  O   UNL     1      26.703  55.472  48.420  1.00  0.00    -0.390 OA
ATOM     22  H   UNL     1      27.031  56.128  49.088  1.00  0.00     0.211 HD
ENDBRANCH   4  21
ENDBRANCH   1   2
BRANCH   1  23
ATOM     23  C   UNL     1      26.789  58.745  44.756  1.00  0.00     0.179 C 
ATOM     24  C   UNL     1      25.543  59.643  44.656  1.00  0.00     0.151 C 
ATOM     25  C   UNL     1      27.678  58.947  43.504  1.00  0.00     0.150 C 
ATOM     26  C   UNL     1      24.846  59.363  43.317  1.00  0.00     0.096 C 
ATOM     27  O   UNL     1      26.946  58.627  42.327  1.00  0.00    -0.347 OA
ATOM     28  C   UNL     1      25.842  59.496  42.131  1.00  0.00     0.253 C 
ATOM     29  C   UNL     1      28.892  58.017  43.563  1.00  0.00     0.041 C 
BRANCH  24  30
ATOM     30  O   UNL     1      25.850  61.010  44.817  1.00  0.00    -0.390 OA
ATOM     31  H   UNL     1      26.829  61.130  44.879  1.00  0.00     0.211 HD
ENDBRANCH  24  30
BRANCH  28  32
ATOM     32  O   UNL     1      25.215  59.092  40.925  1.00  0.00    -0.349 OA
BRANCH  32  33
ATOM     33  C   UNL     1      24.152  59.952  40.545  1.00  0.00     0.121 C 
ATOM     34  C   UNL     1      24.688  61.397  40.450  1.00  0.00     0.033 C 
ATOM     35  C   UNL     1      23.534  59.451  39.222  1.00  0.00     0.036 C 
ATOM     36  C   UNL     1      23.887  62.193  39.417  1.00  0.00     0.010 C 
ATOM     37  C   UNL     1      24.234  60.035  37.978  1.00  0.00    -0.002 C 
ATOM     38  C   UNL     1      24.139  61.637  37.961  1.00  0.00    -0.026 C 
ATOM     39  C   UNL     1      23.600  59.341  36.728  1.00  0.00     0.005 C 
ATOM     40  C   UNL     1      22.949  62.033  37.034  1.00  0.00     0.001 C 
ATOM     41  C   UNL     1      23.847  60.151  35.467  1.00  0.00     0.007 C 
ATOM     42  C   UNL     1      23.144  61.543  35.567  1.00  0.00     0.025 C 
ATOM     43  C   UNL     1      22.565  63.526  36.972  1.00  0.00     0.005 C 
ATOM     44  C   UNL     1      21.801  61.628  34.753  1.00  0.00     0.076 C 
ATOM     45  C   UNL     1      21.157  63.609  36.380  1.00  0.00     0.011 C 
ATOM     46  C   UNL     1      20.739  60.570  35.092  1.00  0.00     0.068 C 
ATOM     47  C   UNL     1      20.992  62.992  34.939  1.00  0.00     0.006 C 
ATOM     48  C   UNL     1      19.504  61.077  34.329  1.00  0.00     0.125 C 
ATOM     49  C   UNL     1      19.470  62.550  34.794  1.00  0.00     0.064 C 
ATOM     50  C   UNL     1      25.470  62.259  37.442  1.00  0.00     0.012 C 
ATOM     51  C   UNL     1      21.444  64.047  33.900  1.00  0.00     0.015 C 
BRANCH  44  52
ATOM     52  O   UNL     1      22.123  61.407  33.390  1.00  0.00    -0.389 OA
ATOM     53  H   UNL     1      22.961  60.880  33.323  1.00  0.00     0.211 HD
ENDBRANCH  44  52
BRANCH  48  54
ATOM     54  O   UNL     1      19.677  60.902  32.936  1.00  0.00    -0.392 OA
ATOM     55  H   UNL     1      20.595  60.582  32.743  1.00  0.00     0.210 HD
ENDBRANCH  48  54
BRANCH  49  56
ATOM     56  C   UNL     1      18.455  63.490  34.160  1.00  0.00     0.043 C 
ATOM     57  C   UNL     1      17.608  64.303  34.779  1.00  0.00     0.025 C 
ATOM     58  C   UNL     1      18.269  63.747  32.743  1.00  0.00     0.334 C 
ATOM     59  C   UNL     1      16.836  65.101  33.768  1.00  0.00     0.261 C 
ATOM     60  O   UNL     1      17.321  64.677  32.547  1.00  0.00    -0.458 OA
ATOM     61  O   UNL     1      18.900  63.235  31.834  1.00  0.00    -0.247 OA
ENDBRANCH  49  56
ENDBRANCH  32  33
ENDBRANCH  28  32
ENDBRANCH   1  23
TORSDOF 13
ENDMDL
MODEL 7
REMARK VINA RESULT:   -11.304      2.805     14.988
REMARK INTER + INTRA:         -18.779
REMARK INTER:                 -17.065
REMARK INTRA:                  -1.714
REMARK UNBOUND:                -0.867
REMARK SMILES C[C@H]1O[C@@H](O[C@H]2[C@@H](O)C[C@H](O[C@H]3[C@@H](O)C[C@H](O[C@H]4CC[C@@]5(C)[C@H](CC[C@@H]6[C@@H]5CC[C@]5(C)[C@@H](C7=CCOC7=O)[C@@H](O)C[C@]65O)C4)O[C@@H]3C)O[C@@H]2C)C[C@H](O)[C@@H]1O
REMARK SMILES IDX 11 1 10 2 6 3 7 4 49 5 9 6 48 7 50 8 5 9 4 10 2 11 3 12
REMARK SMILES IDX 54 13 52 14 51 15 1 16 55 17 53 19 8 21 12 23 13 24 46 25
REMARK SMILES IDX 15 26 45 27 16 28 47 29 14 30 17 32 18 33 19 34 44 35 20 36
REMARK SMILES IDX 23 37 21 38 24 39 27 40 25 41 26 42 28 43 42 44 29 45 41 46
REMARK SMILES IDX 30 47 39 48 32 49 22 50 31 51 43 52 40 54 33 56 34 57 37 58
REMARK SMILES IDX 35 59 36 60 38 61
REMARK H PARENT 55 18 53 20 8 22 14 31 43 53 40 55
ROOT
ATOM      1  O   UNL     1      27.899  59.563  45.377  1.00  0.00    -0.344 OA
ENDROOT
BRANCH   1   2
ATOM      2  C   UNL     1      27.550  58.976  46.631  1.00  0.00     0.253 C 
ATOM      3  C   UNL     1      30.116  58.010  46.705  1.00  0.00     0.179 C 
ATOM      4  C   UNL     1      29.071  56.920  47.001  1.00  0.00     0.151 C 
ATOM      5  C   UNL     1      29.731  59.247  47.581  1.00  0.00     0.150 C 
ATOM      6  C   UNL     1      27.676  57.432  46.572  1.00  0.00     0.096 C 
ATOM      7  O   UNL     1      28.333  59.550  47.661  1.00  0.00    -0.347 OA
ATOM      8  C   UNL     1      30.523  60.488  47.169  1.00  0.00     0.041 C 
BRANCH   3   9
ATOM      9  O   UNL     1      31.445  57.638  47.048  1.00  0.00    -0.344 OA
BRANCH   9  10
ATOM     10  C   UNL     1      32.297  57.498  45.928  1.00  0.00     0.253 C 
ATOM     11  C   UNL     1      32.759  56.074  44.114  1.00  0.00     0.149 C 
ATOM     12  O   UNL     1      31.958  56.286  45.266  1.00  0.00    -0.347 OA
ATOM     13  C   UNL     1      34.251  55.920  44.521  1.00  0.00     0.172 C 
ATOM     14  C   UNL     1      34.730  57.159  45.306  1.00  0.00     0.150 C 
ATOM     15  C   UNL     1      33.744  57.425  46.455  1.00  0.00     0.096 C 
ATOM     16  C   UNL     1      32.260  54.805  43.420  1.00  0.00     0.041 C 
BRANCH  13  17
ATOM     17  O   UNL     1      35.086  55.662  43.420  1.00  0.00    -0.388 OA
ATOM     18  H   UNL     1      36.010  55.915  43.677  1.00  0.00     0.211 HD
ENDBRANCH  13  17
BRANCH  14  19
ATOM     19  O   UNL     1      34.890  58.297  44.487  1.00  0.00    -0.390 OA
ATOM     20  H   UNL     1      34.168  58.325  43.813  1.00  0.00     0.211 HD
ENDBRANCH  14  19
ENDBRANCH   9  10
ENDBRANCH   3   9
BRANCH   4  21
ATOM     21  O   UNL     1      29.111  56.571  48.368  1.00  0.00    -0.390 OA
ATOM     22  H   UNL     1      28.968  57.383  48.921  1.00  0.00     0.211 HD
ENDBRANCH   4  21
ENDBRANCH   1   2
BRANCH   1  23
ATOM     23  C   UNL     1      27.049  59.138  44.317  1.00  0.00     0.179 C 
ATOM     24  C   UNL     1      25.619  59.673  44.512  1.00  0.00     0.151 C 
ATOM     25  C   UNL     1      27.598  59.606  42.947  1.00  0.00     0.150 C 
ATOM     26  C   UNL     1      24.772  59.255  43.300  1.00  0.00     0.096 C 
ATOM     27  O   UNL     1      26.760  59.135  41.898  1.00  0.00    -0.347 OA
ATOM     28  C   UNL     1      25.454  59.683  41.970  1.00  0.00     0.253 C 
ATOM     29  C   UNL     1      28.998  59.033  42.716  1.00  0.00     0.041 C 
BRANCH  24  30
ATOM     30  O   UNL     1      25.589  61.066  44.722  1.00  0.00    -0.390 OA
ATOM     31  H   UNL     1      24.730  61.326  45.134  1.00  0.00     0.211 HD
ENDBRANCH  24  30
BRANCH  28  32
ATOM     32  O   UNL     1      24.732  59.161  40.866  1.00  0.00    -0.349 OA
BRANCH  32  33
ATOM     33  C   UNL     1      23.688  60.021  40.439  1.00  0.00     0.121 C 
ATOM     34  C   UNL     1      24.223  61.469  40.383  1.00  0.00     0.033 C 
ATOM     35  C   UNL     1      23.141  59.529  39.081  1.00  0.00     0.036 C 
ATOM     36  C   UNL     1      23.474  62.270  39.317  1.00  0.00     0.010 C 
ATOM     37  C   UNL     1      23.902  60.126  37.881  1.00  0.00    -0.002 C 
ATOM     38  C   UNL     1      23.804  61.728  37.871  1.00  0.00    -0.026 C 
ATOM     39  C   UNL     1      23.337  59.440  36.593  1.00  0.00     0.005 C 
ATOM     40  C   UNL     1      22.662  62.127  36.887  1.00  0.00     0.001 C 
ATOM     41  C   UNL     1      23.646  60.262  35.354  1.00  0.00     0.007 C 
ATOM     42  C   UNL     1      22.935  61.650  35.428  1.00  0.00     0.025 C 
ATOM     43  C   UNL     1      22.278  63.621  36.817  1.00  0.00     0.005 C 
ATOM     44  C   UNL     1      21.636  61.739  34.546  1.00  0.00     0.076 C 
ATOM     45  C   UNL     1      20.902  63.705  36.153  1.00  0.00     0.011 C 
ATOM     46  C   UNL     1      20.561  60.675  34.821  1.00  0.00     0.068 C 
ATOM     47  C   UNL     1      20.814  63.099  34.701  1.00  0.00     0.006 C 
ATOM     48  C   UNL     1      19.366  61.186  33.998  1.00  0.00     0.125 C 
ATOM     49  C   UNL     1      19.303  62.655  34.473  1.00  0.00     0.064 C 
ATOM     50  C   UNL     1      25.158  62.357  37.427  1.00  0.00     0.012 C 
ATOM     51  C   UNL     1      21.316  64.164  33.695  1.00  0.00     0.015 C 
BRANCH  44  52
ATOM     52  O   UNL     1      22.029  61.530  33.200  1.00  0.00    -0.389 OA
ATOM     53  H   UNL     1      21.228  61.519  32.613  1.00  0.00     0.211 HD
ENDBRANCH  44  52
BRANCH  48  54
ATOM     54  O   UNL     1      19.612  61.022  32.615  1.00  0.00    -0.392 OA
ATOM     55  H   UNL     1      18.927  61.505  32.087  1.00  0.00     0.210 HD
ENDBRANCH  48  54
BRANCH  49  56
ATOM     56  C   UNL     1      18.320  63.596  33.795  1.00  0.00     0.043 C 
ATOM     57  C   UNL     1      17.437  64.400  34.376  1.00  0.00     0.025 C 
ATOM     58  C   UNL     1      18.209  63.868  32.372  1.00  0.00     0.334 C 
ATOM     59  C   UNL     1      16.717  65.206  33.333  1.00  0.00     0.261 C 
ATOM     60  O   UNL     1      17.269  64.796  32.135  1.00  0.00    -0.458 OA
ATOM     61  O   UNL     1      18.890  63.367  31.494  1.00  0.00    -0.247 OA
ENDBRANCH  49  56
ENDBRANCH  32  33
ENDBRANCH  28  32
ENDBRANCH   1  23
TORSDOF 13
ENDMDL
MODEL 8
REMARK VINA RESULT:   -11.242      3.000     15.391
REMARK INTER + INTRA:         -18.680
REMARK INTER:                 -18.146
REMARK INTRA:                  -0.534
REMARK UNBOUND:                -0.867
REMARK SMILES C[C@H]1O[C@@H](O[C@H]2[C@@H](O)C[C@H](O[C@H]3[C@@H](O)C[C@H](O[C@H]4CC[C@@]5(C)[C@H](CC[C@@H]6[C@@H]5CC[C@]5(C)[C@@H](C7=CCOC7=O)[C@@H](O)C[C@]65O)C4)O[C@@H]3C)O[C@@H]2C)C[C@H](O)[C@@H]1O
REMARK SMILES IDX 11 1 10 2 6 3 7 4 49 5 9 6 48 7 50 8 5 9 4 10 2 11 3 12
REMARK SMILES IDX 54 13 52 14 51 15 1 16 55 17 53 19 8 21 12 23 13 24 46 25
REMARK SMILES IDX 15 26 45 27 16 28 47 29 14 30 17 32 18 33 19 34 44 35 20 36
REMARK SMILES IDX 23 37 21 38 24 39 27 40 25 41 26 42 28 43 42 44 29 45 41 46
REMARK SMILES IDX 30 47 39 48 32 49 22 50 31 51 43 52 40 54 33 56 34 57 37 58
REMARK SMILES IDX 35 59 36 60 38 61
REMARK H PARENT 55 18 53 20 8 22 14 31 43 53 40 55
ROOT
ATOM      1  O   UNL     1      28.131  59.787  45.242  1.00  0.00    -0.344 OA
ENDROOT
BRANCH   1   2
ATOM      2  C   UNL     1      29.552  59.682  45.159  1.00  0.00     0.253 C 
ATOM      3  C   UNL     1      29.479  58.876  47.780  1.00  0.00     0.179 C 
ATOM      4  C   UNL     1      30.515  59.988  47.537  1.00  0.00     0.151 C 
ATOM      5  C   UNL     1      29.692  57.815  46.652  1.00  0.00     0.150 C 
ATOM      6  C   UNL     1      30.236  60.643  46.165  1.00  0.00     0.096 C 
ATOM      7  O   UNL     1      29.943  58.333  45.340  1.00  0.00    -0.347 OA
ATOM      8  C   UNL     1      28.545  56.805  46.615  1.00  0.00     0.041 C 
BRANCH   3   9
ATOM      9  O   UNL     1      29.632  58.213  49.028  1.00  0.00    -0.344 OA
BRANCH   9  10
ATOM     10  C   UNL     1      29.415  59.056  50.144  1.00  0.00     0.253 C 
ATOM     11  C   UNL     1      30.339  60.890  51.291  1.00  0.00     0.149 C 
ATOM     12  O   UNL     1      30.486  59.989  50.203  1.00  0.00    -0.347 OA
ATOM     13  C   UNL     1      30.390  60.115  52.637  1.00  0.00     0.172 C 
ATOM     14  C   UNL     1      29.303  59.021  52.674  1.00  0.00     0.150 C 
ATOM     15  C   UNL     1      29.420  58.166  51.403  1.00  0.00     0.096 C 
ATOM     16  C   UNL     1      31.478  61.909  51.216  1.00  0.00     0.041 C 
BRANCH  13  17
ATOM     17  O   UNL     1      30.294  60.966  53.752  1.00  0.00    -0.388 OA
ATOM     18  H   UNL     1      31.217  61.178  54.048  1.00  0.00     0.211 HD
ENDBRANCH  13  17
BRANCH  14  19
ATOM     19  O   UNL     1      28.003  59.547  52.826  1.00  0.00    -0.390 OA
ATOM     20  H   UNL     1      27.594  59.190  53.652  1.00  0.00     0.211 HD
ENDBRANCH  14  19
ENDBRANCH   9  10
ENDBRANCH   3   9
BRANCH   4  21
ATOM     21  O   UNL     1      31.821  59.457  47.618  1.00  0.00    -0.390 OA
ATOM     22  H   UNL     1      31.871  58.621  47.086  1.00  0.00     0.211 HD
ENDBRANCH   4  21
ENDBRANCH   1   2
BRANCH   1  23
ATOM     23  C   UNL     1      27.482  59.389  44.038  1.00  0.00     0.179 C 
ATOM     24  C   UNL     1      26.230  58.547  44.342  1.00  0.00     0.151 C 
ATOM     25  C   UNL     1      27.086  60.623  43.191  1.00  0.00     0.150 C 
ATOM     26  C   UNL     1      25.528  58.220  43.015  1.00  0.00     0.096 C 
ATOM     27  O   UNL     1      26.478  60.206  41.974  1.00  0.00    -0.347 OA
ATOM     28  C   UNL     1      25.261  59.512  42.194  1.00  0.00     0.253 C 
ATOM     29  C   UNL     1      28.330  61.440  42.834  1.00  0.00     0.041 C 
BRANCH  24  30
ATOM     30  O   UNL     1      25.364  59.179  45.257  1.00  0.00    -0.390 OA
ATOM     31  H   UNL     1      24.451  59.220  44.882  1.00  0.00     0.211 HD
ENDBRANCH  24  30
BRANCH  28  32
ATOM     32  O   UNL     1      24.747  59.176  40.915  1.00  0.00    -0.349 OA
BRANCH  32  33
ATOM     33  C   UNL     1      23.712  60.050  40.494  1.00  0.00     0.121 C 
ATOM     34  C   UNL     1      24.272  61.487  40.414  1.00  0.00     0.033 C 
ATOM     35  C   UNL     1      23.135  59.553  39.151  1.00  0.00     0.036 C 
ATOM     36  C   UNL     1      23.521  62.290  39.349  1.00  0.00     0.010 C 
ATOM     37  C   UNL     1      23.889  60.122  37.932  1.00  0.00    -0.002 C 
ATOM     38  C   UNL     1      23.819  61.725  37.905  1.00  0.00    -0.026 C 
ATOM     39  C   UNL     1      23.291  59.432  36.661  1.00  0.00     0.005 C 
ATOM     40  C   UNL     1      22.669  62.134  36.934  1.00  0.00     0.001 C 
ATOM     41  C   UNL     1      23.595  60.234  35.408  1.00  0.00     0.007 C 
ATOM     42  C   UNL     1      22.911  61.636  35.477  1.00  0.00     0.025 C 
ATOM     43  C   UNL     1      22.311  63.633  36.853  1.00  0.00     0.005 C 
ATOM     44  C   UNL     1      21.600  61.738  34.614  1.00  0.00     0.076 C 
ATOM     45  C   UNL     1      20.926  63.735  36.209  1.00  0.00     0.011 C 
ATOM     46  C   UNL     1      20.511  60.697  34.917  1.00  0.00     0.068 C 
ATOM     47  C   UNL     1      20.805  63.114  34.766  1.00  0.00     0.006 C 
ATOM     48  C   UNL     1      19.312  61.220  34.108  1.00  0.00     0.125 C 
ATOM     49  C   UNL     1      19.283  62.695  34.566  1.00  0.00     0.064 C 
ATOM     50  C   UNL     1      25.177  62.325  37.433  1.00  0.00     0.012 C 
ATOM     51  C   UNL     1      21.310  64.158  33.740  1.00  0.00     0.015 C 
BRANCH  44  52
ATOM     52  O   UNL     1      21.968  61.506  33.264  1.00  0.00    -0.389 OA
ATOM     53  H   UNL     1      22.668  62.154  32.990  1.00  0.00     0.211 HD
ENDBRANCH  44  52
BRANCH  48  54
ATOM     54  O   UNL     1      19.533  61.036  32.723  1.00  0.00    -0.392 OA
ATOM     55  H   UNL     1      19.753  60.088  32.534  1.00  0.00     0.210 HD
ENDBRANCH  48  54
BRANCH  49  56
ATOM     56  C   UNL     1      18.306  63.647  33.892  1.00  0.00     0.043 C 
ATOM     57  C   UNL     1      17.445  64.470  34.477  1.00  0.00     0.025 C 
ATOM     58  C   UNL     1      18.181  63.906  32.469  1.00  0.00     0.334 C 
ATOM     59  C   UNL     1      16.724  65.278  33.436  1.00  0.00     0.261 C 
ATOM     60  O   UNL     1      17.253  64.848  32.236  1.00  0.00    -0.458 OA
ATOM     61  O   UNL     1      18.842  63.386  31.586  1.00  0.00    -0.247 OA
ENDBRANCH  49  56
ENDBRANCH  32  33
ENDBRANCH  28  32
ENDBRANCH   1  23
TORSDOF 13
ENDMDL
MODEL 9
REMARK VINA RESULT:   -11.067      2.010      3.295
REMARK INTER + INTRA:         -18.404
REMARK INTER:                 -18.010
REMARK INTRA:                  -0.394
REMARK UNBOUND:                -0.867
REMARK SMILES C[C@H]1O[C@@H](O[C@H]2[C@@H](O)C[C@H](O[C@H]3[C@@H](O)C[C@H](O[C@H]4CC[C@@]5(C)[C@H](CC[C@@H]6[C@@H]5CC[C@]5(C)[C@@H](C7=CCOC7=O)[C@@H](O)C[C@]65O)C4)O[C@@H]3C)O[C@@H]2C)C[C@H](O)[C@@H]1O
REMARK SMILES IDX 11 1 10 2 6 3 7 4 49 5 9 6 48 7 50 8 5 9 4 10 2 11 3 12
REMARK SMILES IDX 54 13 52 14 51 15 1 16 55 17 53 19 8 21 12 23 13 24 46 25
REMARK SMILES IDX 15 26 45 27 16 28 47 29 14 30 17 32 18 33 19 34 44 35 20 36
REMARK SMILES IDX 23 37 21 38 24 39 27 40 25 41 26 42 28 43 42 44 29 45 41 46
REMARK SMILES IDX 30 47 39 48 32 49 22 50 31 51 43 52 40 54 33 56 34 57 37 58
REMARK SMILES IDX 35 59 36 60 38 61
REMARK H PARENT 55 18 53 20 8 22 14 31 43 53 40 55
ROOT
ATOM      1  O   UNL     1      24.261  60.295  40.001  1.00  0.00    -0.344 OA
ENDROOT
BRANCH   1   2
ATOM      2  C   UNL     1      22.834  60.244  40.027  1.00  0.00     0.253 C 
ATOM      3  C   UNL     1      22.895  62.215  38.121  1.00  0.00     0.179 C 
ATOM      4  C   UNL     1      21.939  62.550  39.280  1.00  0.00     0.151 C 
ATOM      5  C   UNL     1      22.585  60.742  37.698  1.00  0.00     0.150 C 
ATOM      6  C   UNL     1      22.241  61.607  40.468  1.00  0.00     0.096 C 
ATOM      7  O   UNL     1      22.349  59.817  38.767  1.00  0.00    -0.347 OA
ATOM      8  C   UNL     1      23.653  60.200  36.750  1.00  0.00     0.041 C 
BRANCH   3   9
ATOM      9  O   UNL     1      22.715  63.038  36.976  1.00  0.00    -0.344 OA
BRANCH   9  10
ATOM     10  C   UNL     1      21.564  62.711  36.222  1.00  0.00     0.253 C 
ATOM     11  C   UNL     1      20.869  62.160  34.043  1.00  0.00     0.149 C 
ATOM     12  O   UNL     1      21.966  62.511  34.872  1.00  0.00    -0.347 OA
ATOM     13  C   UNL     1      19.839  63.323  33.999  1.00  0.00     0.172 C 
ATOM     14  C   UNL     1      19.364  63.681  35.423  1.00  0.00     0.150 C 
ATOM     15  C   UNL     1      20.597  63.908  36.311  1.00  0.00     0.096 C 
ATOM     16  C   UNL     1      21.410  61.871  32.642  1.00  0.00     0.041 C 
BRANCH  13  17
ATOM     17  O   UNL     1      18.750  63.047  33.154  1.00  0.00    -0.388 OA
ATOM     18  H   UNL     1      18.978  63.387  32.250  1.00  0.00     0.211 HD
ENDBRANCH  13  17
BRANCH  14  19
ATOM     19  O   UNL     1      18.503  62.707  35.973  1.00  0.00    -0.390 OA
ATOM     20  H   UNL     1      18.847  62.417  36.852  1.00  0.00     0.211 HD
ENDBRANCH  14  19
ENDBRANCH   9  10
ENDBRANCH   3   9
BRANCH   4  21
ATOM     21  O   UNL     1      20.600  62.446  38.847  1.00  0.00    -0.390 OA
ATOM     22  H   UNL     1      20.003  62.880  39.510  1.00  0.00     0.211 HD
ENDBRANCH   4  21
ENDBRANCH   1   2
BRANCH   1  23
ATOM     23  C   UNL     1      24.848  59.802  41.201  1.00  0.00     0.179 C 
ATOM     24  C   UNL     1      24.817  58.264  41.237  1.00  0.00     0.151 C 
ATOM     25  C   UNL     1      26.308  60.298  41.345  1.00  0.00     0.150 C 
ATOM     26  C   UNL     1      25.538  57.791  42.509  1.00  0.00     0.096 C 
ATOM     27  O   UNL     1      26.865  59.833  42.569  1.00  0.00    -0.347 OA
ATOM     28  C   UNL     1      26.956  58.418  42.611  1.00  0.00     0.253 C 
ATOM     29  C   UNL     1      26.347  61.827  41.368  1.00  0.00     0.041 C 
BRANCH  24  30
ATOM     30  O   UNL     1      25.366  57.687  40.074  1.00  0.00    -0.390 OA
ATOM     31  H   UNL     1      26.311  57.449  40.230  1.00  0.00     0.211 HD
ENDBRANCH  24  30
BRANCH  28  32
ATOM     32  O   UNL     1      27.544  58.086  43.859  1.00  0.00    -0.349 OA
BRANCH  32  33
ATOM     33  C   UNL     1      27.758  56.691  44.010  1.00  0.00     0.121 C 
ATOM     34  C   UNL     1      29.253  56.386  43.766  1.00  0.00     0.033 C 
ATOM     35  C   UNL     1      27.272  56.245  45.406  1.00  0.00     0.036 C 
ATOM     36  C   UNL     1      29.680  55.157  44.570  1.00  0.00     0.010 C 
ATOM     37  C   UNL     1      28.367  56.365  46.484  1.00  0.00    -0.002 C 
ATOM     38  C   UNL     1      29.640  55.457  46.120  1.00  0.00    -0.026 C 
ATOM     39  C   UNL     1      27.700  56.015  47.855  1.00  0.00     0.005 C 
ATOM     40  C   UNL     1      29.510  54.118  46.911  1.00  0.00     0.001 C 
ATOM     41  C   UNL     1      28.743  55.632  48.891  1.00  0.00     0.007 C 
ATOM     42  C   UNL     1      29.495  54.335  48.454  1.00  0.00     0.025 C 
ATOM     43  C   UNL     1      30.547  53.015  46.612  1.00  0.00     0.005 C 
ATOM     44  C   UNL     1      29.007  53.043  49.207  1.00  0.00     0.076 C 
ATOM     45  C   UNL     1      29.979  51.700  47.148  1.00  0.00     0.011 C 
ATOM     46  C   UNL     1      27.503  52.737  49.115  1.00  0.00     0.068 C 
ATOM     47  C   UNL     1      29.662  51.681  48.692  1.00  0.00     0.006 C 
ATOM     48  C   UNL     1      27.411  51.326  49.719  1.00  0.00     0.125 C 
ATOM     49  C   UNL     1      28.515  50.601  48.918  1.00  0.00     0.064 C 
ATOM     50  C   UNL     1      30.962  56.191  46.494  1.00  0.00     0.012 C 
ATOM     51  C   UNL     1      30.973  51.376  49.457  1.00  0.00     0.015 C 
BRANCH  44  52
ATOM     52  O   UNL     1      29.260  53.242  50.588  1.00  0.00    -0.389 OA
ATOM     53  H   UNL     1      28.573  52.771  51.128  1.00  0.00     0.211 HD
ENDBRANCH  44  52
BRANCH  48  54
ATOM     54  O   UNL     1      27.628  51.371  51.116  1.00  0.00    -0.392 OA
ATOM     55  H   UNL     1      27.388  50.503  51.528  1.00  0.00     0.210 HD
ENDBRANCH  48  54
BRANCH  49  56
ATOM     56  C   UNL     1      28.870  49.172  49.298  1.00  0.00     0.043 C 
ATOM     57  C   UNL     1      28.703  48.582  50.476  1.00  0.00     0.025 C 
ATOM     58  C   UNL     1      29.388  48.137  48.420  1.00  0.00     0.334 C 
ATOM     59  C   UNL     1      29.127  47.144  50.392  1.00  0.00     0.261 C 
ATOM     60  O   UNL     1      29.534  46.979  49.083  1.00  0.00    -0.458 OA
ATOM     61  O   UNL     1      29.629  48.262  47.232  1.00  0.00    -0.247 OA
ENDBRANCH  49  56
ENDBRANCH  32  33
ENDBRANCH  28  32
ENDBRANCH   1  23
TORSDOF 13
ENDMDL
