REMARK  Name = 
REMARK  16 active torsions:
REMARK  status: ('A' for Active; 'I' for Inactive)
REMARK    1  A    between atoms: C_1  and  C_2
REMARK    2  A    between atoms: C_17  and  O_18
REMARK    3  A    between atoms: O_18  and  C_19
REMARK    4  A    between atoms: C_21  and  C_22
REMARK    5  A    between atoms: C_23  and  O_24
REMARK    6  A    between atoms: O_24  and  C_25
REMARK    7  A    between atoms: C_27  and  C_28
REMARK    8  A    between atoms: C_28  and  O_29
REMARK    9  A    between atoms: C_30  and  O_31
REMARK   10  A    between atoms: C_32  and  O_33
REMARK   11  A    between atoms: C_34  and  O_35
REMARK   12  A    between atoms: C_36  and  O_37
REMARK   13  A    between atoms: C_38  and  O_39
REMARK   14  A    between atoms: C_42  and  C_43
REMARK   15  A    between atoms: C_47  and  C_48
REMARK   16  A    between atoms: C_50  and  C_51
REMARK                            x       y       z     vdW  Elec       q    Type
REMARK                         _______ _______ _______ _____ _____    ______ ____
ROOT
ATOM      1  C   UNL     1      31.338  53.598  52.249  0.00  0.00    +0.000 C 
ATOM      2  C   UNL     1      30.134  53.302  51.346  0.00  0.00    +0.000 C 
ATOM      3  C   UNL     1      30.507  53.405  49.843  0.00  0.00    +0.000 C 
ATOM      4  C   UNL     1      30.064  54.756  49.294  0.00  0.00    +0.000 C 
ATOM      5  C   UNL     1      28.494  54.841  49.357  0.00  0.00    +0.000 C 
ATOM      6  N   UNL     1      27.958  54.272  50.642  0.00  0.00    +0.000 NA
ATOM      7  C   UNL     1      28.963  54.264  51.711  0.00  0.00    +0.000 C 
ATOM      8  O   UNL     1      28.132  56.217  49.309  0.00  0.00    +0.000 OA
ATOM      9  C   UNL     1      26.925  56.300  48.576  0.00  0.00    +0.000 C 
ATOM     10  C   UNL     1      26.789  57.675  47.850  0.00  0.00    +0.000 C 
ATOM     11  C   UNL     1      26.650  57.291  46.370  0.00  0.00    +0.000 C 
ATOM     12  C   UNL     1      26.907  58.348  45.268  0.00  0.00    +0.000 C 
ATOM     13  C   UNL     1      25.907  59.522  45.381  0.00  0.00    +0.000 C 
ATOM     14  C   UNL     1      25.715  60.313  44.105  0.00  0.00    +0.000 C 
ATOM     15  C   UNL     1      26.254  59.965  42.916  0.00  0.00    +0.000 C 
ATOM     16  C   UNL     1      25.849  60.685  41.656  0.00  0.00    +0.000 C 
ATOM     17  C   UNL     1      25.111  59.706  40.701  0.00  0.00    +0.000 C 
ATOM     18  C   UNL     1      25.607  58.235  40.825  0.00  0.00    +0.000 C 
ATOM     19  C   UNL     1      27.066  58.208  41.275  0.00  0.00    +0.000 C 
ATOM     20  C   UNL     1      27.190  58.760  42.748  0.00  0.00    +0.000 C 
ATOM     21  C   UNL     1      28.655  59.263  42.896  0.00  0.00    +0.000 C 
ATOM     22  C   UNL     1      26.800  57.686  43.848  0.00  0.00    +0.000 C 
ATOM     23  C   UNL     1      27.629  56.364  43.742  0.00  0.00    +0.000 C 
ATOM     24  C   UNL     1      27.323  55.393  44.899  0.00  0.00    +0.000 C 
ATOM     25  C   UNL     1      27.579  56.076  46.260  0.00  0.00    +0.000 C 
ATOM     26  C   UNL     1      29.102  56.439  46.391  0.00  0.00    +0.000 C 
ATOM     27  C   UNL     1      27.030  55.266  47.467  0.00  0.00    +0.000 C 
ATOM     28  C   UNL     1      27.873  54.159  48.068  0.00  0.00    +0.000 C 
ATOM     29  C   UNL     1      27.036  52.881  48.263  0.00  0.00    +0.000 C 
ATOM     30  H   UNL     1      27.660  53.278  50.571  0.00  0.00    +0.000 HD
ENDROOT
BRANCH  17  31
ATOM     31  O   UNL     1      25.318  60.170  39.369  0.00  0.00    +0.000 OA
BRANCH  31  32
ATOM     32  C   UNL     1      24.201  59.977  38.510  0.00  0.00    +0.000 C 
ATOM     33  O   UNL     1      23.166  60.826  39.013  0.00  0.00    +0.000 OA
ATOM     34  C   UNL     1      22.176  61.121  38.050  0.00  0.00    +0.000 C 
ATOM     35  C   UNL     1      21.019  61.834  38.747  0.00  0.00    +0.000 C 
ATOM     36  C   UNL     1      22.743  61.979  36.869  0.00  0.00    +0.000 C 
ATOM     37  C   UNL     1      24.285  61.790  36.749  0.00  0.00    +0.000 C 
ATOM     38  C   UNL     1      24.643  60.330  37.041  0.00  0.00    +0.000 C 
BRANCH  37  39
ATOM     39  O   UNL     1      25.008  62.631  37.624  0.00  0.00    +0.000 OA
ATOM     40  H   UNL     1      25.755  63.066  37.138  0.00  0.00    +0.000 HD
ENDBRANCH  37  39
BRANCH  38  41
ATOM     41  O   UNL     1      24.070  59.489  36.061  0.00  0.00    +0.000 OA
ATOM     42  H   UNL     1      23.828  60.010  35.257  0.00  0.00    +0.000 HD
ENDBRANCH  38  41
BRANCH  36  43
ATOM     43  O   UNL     1      22.136  61.540  35.657  0.00  0.00    +0.000 OA
BRANCH  43  44
ATOM     44  C   UNL     1      20.770  61.912  35.520  0.00  0.00    +0.000 C 
ATOM     45  O   UNL     1      20.756  63.329  35.288  0.00  0.00    +0.000 OA
ATOM     46  C   UNL     1      19.716  63.741  34.421  0.00  0.00    +0.000 C 
ATOM     47  C   UNL     1      19.936  63.174  32.983  0.00  0.00    +0.000 C 
ATOM     48  C   UNL     1      20.507  61.722  33.020  0.00  0.00    +0.000 C 
ATOM     49  C   UNL     1      20.149  61.059  34.358  0.00  0.00    +0.000 C 
BRANCH  47  50
ATOM     50  O   UNL     1      18.732  63.233  32.254  0.00  0.00    +0.000 OA
ATOM     51  H   UNL     1      18.115  62.552  32.623  0.00  0.00    +0.000 HD
ENDBRANCH  47  50
BRANCH  48  52
ATOM     52  O   UNL     1      21.908  61.702  32.842  0.00  0.00    +0.000 OA
ATOM     53  H   UNL     1      22.201  62.563  32.447  0.00  0.00    +0.000 HD
ENDBRANCH  48  52
BRANCH  49  54
ATOM     54  O   UNL     1      18.749  60.992  34.475  0.00  0.00    +0.000 OA
ATOM     55  H   UNL     1      18.550  60.456  35.286  0.00  0.00    +0.000 HD
ENDBRANCH  49  54
BRANCH  46  56
ATOM     56  C   UNL     1      19.633  65.273  34.415  0.00  0.00    +0.000 C 
BRANCH  56  57
ATOM     57  O   UNL     1      20.279  65.817  35.536  0.00  0.00    +0.000 OA
ATOM     58  H   UNL     1      21.004  65.187  35.788  0.00  0.00    +0.000 HD
ENDBRANCH  56  57
ENDBRANCH  46  56
ENDBRANCH  43  44
ENDBRANCH  36  43
ENDBRANCH  31  32
ENDBRANCH  17  31
TORSDOF 11
