MODEL 1
REMARK VINA RESULT:   -10.359      0.000      0.000
REMARK INTER + INTRA:         -19.900
REMARK INTER:                 -17.323
REMARK INTRA:                  -2.577
REMARK UNBOUND:                -2.577
REMARK SMILES C[C@@H]1CN[C@@]2(O[C@H]3C[C@H]4[C@@H]5CC=C6C[C@H](O[C@H]7O[C@@H](CO)[C@H](O[C@H]8O[C@@H](C)[C@H](O)[C@@H](O)[C@@H]8O[C@H]8O[C@@H](C)[C@H](O)[C@@H](O)[C@@H]8O)[C@@H](O)[C@@H]7O)CC[C@@]6(C)[C@H]5CC[C@]4(C)[C@H]3[C@@H]2C)[C@@H](O)C1
REMARK SMILES IDX 23 1 22 2 17 3 18 4 46 5 19 6 44 7 16 8 15 9 2 10 3 11 62 12
REMARK SMILES IDX 4 13 60 14 5 15 6 16 58 17 7 18 57 19 8 20 55 21 9 22 54 23
REMARK SMILES IDX 10 24 53 25 11 26 52 27 12 28 50 29 13 30 49 31 14 32 48 33
REMARK SMILES IDX 1 34 59 36 56 37 51 38 61 39 47 41 20 43 21 44 45 46 24 48
REMARK SMILES IDX 25 49 32 50 26 51 30 52 28 53 27 54 33 55 34 56 35 57 42 58
REMARK SMILES IDX 36 59 40 60 38 61 37 62 43 63 41 65 39 67 31 69 29 71
REMARK H PARENT 4 35 61 40 47 42 21 45 45 47 43 64 41 66 39 68 31 70 29 72
ROOT
ATOM      1  O   UNL     1      29.820  55.135  48.114  1.00  0.00    -0.341 OA
ENDROOT
BRANCH   1   2
ATOM      2  C   UNL     1      29.274  56.390  47.711  1.00  0.00     0.184 C 
ATOM      3  C   UNL     1      27.594  58.185  46.173  1.00  0.00     0.282 C 
ATOM      4  O   UNL     1      28.933  57.865  45.825  1.00  0.00    -0.341 OA
ATOM      5  C   UNL     1      27.303  57.912  47.672  1.00  0.00     0.202 C 
ATOM      6  C   UNL     1      29.301  56.542  46.174  1.00  0.00     0.178 C 
ATOM      7  C   UNL     1      27.795  56.530  48.128  1.00  0.00     0.180 C 
BRANCH   3   8
ATOM      8  O   UNL     1      27.494  59.583  46.014  1.00  0.00    -0.346 OA
BRANCH   8   9
ATOM      9  C   UNL     1      26.686  60.057  44.959  1.00  0.00     0.125 C 
ATOM     10  C   UNL     1      20.883  63.877  34.062  1.00  0.00     0.002 C 
ATOM     11  C   UNL     1      21.401  62.546  33.510  1.00  0.00     0.087 C 
ATOM     12  C   UNL     1      19.712  63.628  35.041  1.00  0.00     0.041 C 
ATOM     13  N   UNL     1      21.956  61.702  34.597  1.00  0.00    -0.287 NA
ATOM     14  C   UNL     1      19.842  62.275  35.774  1.00  0.00     0.162 C 
ATOM     15  C   UNL     1      21.329  61.862  35.948  1.00  0.00     0.148 C 
ATOM     16  O   UNL     1      22.024  62.848  36.708  1.00  0.00    -0.354 OA
ATOM     17  C   UNL     1      21.467  60.564  36.769  1.00  0.00     0.042 C 
ATOM     18  C   UNL     1      23.152  62.179  37.243  1.00  0.00     0.125 C 
ATOM     19  C   UNL     1      22.905  60.662  37.248  1.00  0.00     0.031 C 
ATOM     20  C   UNL     1      23.565  62.563  38.673  1.00  0.00     0.037 C 
ATOM     21  C   UNL     1      23.301  60.180  38.683  1.00  0.00    -0.024 C 
ATOM     22  C   UNL     1      24.310  61.280  39.069  1.00  0.00     0.002 C 
ATOM     23  C   UNL     1      24.041  58.826  38.701  1.00  0.00     0.008 C 
ATOM     24  C   UNL     1      24.893  61.106  40.493  1.00  0.00     0.000 C 
ATOM     25  C   UNL     1      24.633  58.551  40.099  1.00  0.00     0.005 C 
ATOM     26  C   UNL     1      25.959  62.194  40.748  1.00  0.00     0.031 C 
ATOM     27  C   UNL     1      25.569  59.711  40.582  1.00  0.00     0.003 C 
ATOM     28  C   UNL     1      26.788  61.929  41.974  1.00  0.00    -0.027 C 
ATOM     29  C   UNL     1      26.197  59.457  42.011  1.00  0.00    -0.008 C 
ATOM     30  C   UNL     1      26.885  60.716  42.556  1.00  0.00    -0.065 C 
ATOM     31  C   UNL     1      25.152  59.095  43.114  1.00  0.00     0.014 C 
ATOM     32  C   UNL     1      27.642  60.563  43.856  1.00  0.00     0.063 C 
ATOM     33  C   UNL     1      25.827  58.860  44.487  1.00  0.00     0.033 C 
ATOM     34  C   UNL     1      20.471  64.859  32.961  1.00  0.00     0.009 C 
ATOM     35  H   UNL     1      22.993  61.821  34.642  1.00  0.00     0.125 HD
ATOM     36  C   UNL     1      21.135  59.248  36.056  1.00  0.00     0.013 C 
ATOM     37  C   UNL     1      22.067  60.118  39.656  1.00  0.00     0.012 C 
ATOM     38  C   UNL     1      27.234  58.303  41.828  1.00  0.00     0.016 C 
BRANCH  14  39
ATOM     39  O   UNL     1      19.109  62.299  36.974  1.00  0.00    -0.389 OA
ATOM     40  H   UNL     1      18.859  63.243  37.149  1.00  0.00     0.211 HD
ENDBRANCH  14  39
ENDBRANCH   8   9
ENDBRANCH   3   8
BRANCH   5  41
ATOM     41  O   UNL     1      25.943  58.093  47.968  1.00  0.00    -0.385 OA
ATOM     42  H   UNL     1      25.713  59.033  47.733  1.00  0.00     0.211 HD
ENDBRANCH   5  41
BRANCH   6  43
ATOM     43  C   UNL     1      30.704  56.279  45.618  1.00  0.00     0.191 C 
BRANCH  43  44
ATOM     44  O   UNL     1      30.844  54.932  45.251  1.00  0.00    -0.394 OA
ATOM     45  H   UNL     1      30.381  54.396  45.946  1.00  0.00     0.210 HD
ENDBRANCH  43  44
ENDBRANCH   6  43
BRANCH   7  46
ATOM     46  O   UNL     1      27.617  56.381  49.514  1.00  0.00    -0.387 OA
ATOM     47  H   UNL     1      27.061  57.139  49.832  1.00  0.00     0.211 HD
ENDBRANCH   7  46
ENDBRANCH   1   2
BRANCH   1  48
ATOM     48  C   UNL     1      28.830  54.107  48.168  1.00  0.00     0.282 C 
ATOM     49  O   UNL     1      28.815  53.379  46.933  1.00  0.00    -0.344 OA
ATOM     50  C   UNL     1      28.977  53.265  49.480  1.00  0.00     0.209 C 
ATOM     51  C   UNL     1      29.372  52.082  46.991  1.00  0.00     0.150 C 
ATOM     52  C   UNL     1      28.141  52.000  49.267  1.00  0.00     0.180 C 
ATOM     53  C   UNL     1      28.694  51.187  48.073  1.00  0.00     0.174 C 
ATOM     54  C   UNL     1      30.911  52.155  47.068  1.00  0.00     0.041 C 
BRANCH  50  55
ATOM     55  O   UNL     1      28.457  54.021  50.569  1.00  0.00    -0.338 OA
BRANCH  55  56
ATOM     56  C   UNL     1      29.463  54.482  51.460  1.00  0.00     0.282 C 
ATOM     57  O   UNL     1      29.291  55.877  51.640  1.00  0.00    -0.344 OA
ATOM     58  C   UNL     1      29.286  53.750  52.809  1.00  0.00     0.202 C 
ATOM     59  C   UNL     1      30.291  56.424  52.486  1.00  0.00     0.150 C 
ATOM     60  C   UNL     1      30.311  54.292  53.827  1.00  0.00     0.179 C 
ATOM     61  C   UNL     1      30.179  55.823  53.910  1.00  0.00     0.174 C 
ATOM     62  C   UNL     1      30.096  57.941  52.529  1.00  0.00     0.041 C 
BRANCH  58  63
ATOM     63  O   UNL     1      29.410  52.358  52.657  1.00  0.00    -0.385 OA
ATOM     64  H   UNL     1      29.143  52.132  51.728  1.00  0.00     0.211 HD
ENDBRANCH  58  63
BRANCH  60  65
ATOM     65  O   UNL     1      30.148  53.693  55.088  1.00  0.00    -0.387 OA
ATOM     66  H   UNL     1      29.663  54.338  55.667  1.00  0.00     0.211 HD
ENDBRANCH  60  65
BRANCH  61  67
ATOM     67  O   UNL     1      31.147  56.360  54.780  1.00  0.00    -0.388 OA
ATOM     68  H   UNL     1      31.962  56.545  54.243  1.00  0.00     0.211 HD
ENDBRANCH  61  67
ENDBRANCH  55  56
ENDBRANCH  50  55
BRANCH  52  69
ATOM     69  O   UNL     1      28.037  51.198  50.414  1.00  0.00    -0.387 OA
ATOM     70  H   UNL     1      28.608  51.605  51.116  1.00  0.00     0.211 HD
ENDBRANCH  52  69
BRANCH  53  71
ATOM     71  O   UNL     1      27.654  50.412  47.527  1.00  0.00    -0.388 OA
ATOM     72  H   UNL     1      27.227  50.949  46.808  1.00  0.00     0.211 HD
ENDBRANCH  53  71
ENDBRANCH   1  48
TORSDOF 16
ENDMDL
MODEL 2
REMARK VINA RESULT:   -10.350      1.942      4.037
REMARK INTER + INTRA:         -19.884
REMARK INTER:                 -17.301
REMARK INTRA:                  -2.583
REMARK UNBOUND:                -2.577
REMARK SMILES C[C@@H]1CN[C@@]2(O[C@H]3C[C@H]4[C@@H]5CC=C6C[C@H](O[C@H]7O[C@@H](CO)[C@H](O[C@H]8O[C@@H](C)[C@H](O)[C@@H](O)[C@@H]8O[C@H]8O[C@@H](C)[C@H](O)[C@@H](O)[C@@H]8O)[C@@H](O)[C@@H]7O)CC[C@@]6(C)[C@H]5CC[C@]4(C)[C@H]3[C@@H]2C)[C@@H](O)C1
REMARK SMILES IDX 23 1 22 2 17 3 18 4 46 5 19 6 44 7 16 8 15 9 2 10 3 11 62 12
REMARK SMILES IDX 4 13 60 14 5 15 6 16 58 17 7 18 57 19 8 20 55 21 9 22 54 23
REMARK SMILES IDX 10 24 53 25 11 26 52 27 12 28 50 29 13 30 49 31 14 32 48 33
REMARK SMILES IDX 1 34 59 36 56 37 51 38 61 39 47 41 20 43 21 44 45 46 24 48
REMARK SMILES IDX 25 49 32 50 26 51 30 52 28 53 27 54 33 55 34 56 35 57 42 58
REMARK SMILES IDX 36 59 40 60 38 61 37 62 43 63 41 65 39 67 31 69 29 71
REMARK H PARENT 4 35 61 40 47 42 21 45 45 47 43 64 41 66 39 68 31 70 29 72
ROOT
ATOM      1  O   UNL     1      29.787  57.418  50.233  1.00  0.00    -0.341 OA
ENDROOT
BRANCH   1   2
ATOM      2  C   UNL     1      30.031  57.963  48.937  1.00  0.00     0.184 C 
ATOM      3  C   UNL     1      29.407  59.414  46.504  1.00  0.00     0.282 C 
ATOM      4  O   UNL     1      29.247  58.009  46.649  1.00  0.00    -0.341 OA
ATOM      5  C   UNL     1      30.400  59.995  47.545  1.00  0.00     0.202 C 
ATOM      6  C   UNL     1      28.883  57.621  47.963  1.00  0.00     0.178 C 
ATOM      7  C   UNL     1      30.117  59.503  48.972  1.00  0.00     0.180 C 
BRANCH   3   8
ATOM      8  O   UNL     1      30.025  59.588  45.248  1.00  0.00    -0.346 OA
BRANCH   8   9
ATOM      9  C   UNL     1      29.209  60.015  44.180  1.00  0.00     0.125 C 
ATOM     10  C   UNL     1      21.401  61.892  34.054  1.00  0.00     0.002 C 
ATOM     11  C   UNL     1      20.528  60.834  34.736  1.00  0.00     0.087 C 
ATOM     12  C   UNL     1      21.328  63.226  34.834  1.00  0.00     0.041 C 
ATOM     13  N   UNL     1      21.029  60.533  36.100  1.00  0.00    -0.287 NA
ATOM     14  C   UNL     1      21.098  63.007  36.346  1.00  0.00     0.162 C 
ATOM     15  C   UNL     1      21.703  61.659  36.825  1.00  0.00     0.148 C 
ATOM     16  O   UNL     1      23.107  61.641  36.582  1.00  0.00    -0.354 OA
ATOM     17  C   UNL     1      21.565  61.483  38.351  1.00  0.00     0.042 C 
ATOM     18  C   UNL     1      23.627  60.673  37.476  1.00  0.00     0.125 C 
ATOM     19  C   UNL     1      22.640  60.448  38.632  1.00  0.00     0.031 C 
ATOM     20  C   UNL     1      24.988  60.988  38.116  1.00  0.00     0.037 C 
ATOM     21  C   UNL     1      23.500  60.527  39.938  1.00  0.00    -0.024 C 
ATOM     22  C   UNL     1      24.877  60.121  39.377  1.00  0.00     0.002 C 
ATOM     23  C   UNL     1      23.096  59.494  41.011  1.00  0.00     0.008 C 
ATOM     24  C   UNL     1      25.999  60.123  40.446  1.00  0.00     0.000 C 
ATOM     25  C   UNL     1      24.147  59.449  42.140  1.00  0.00     0.005 C 
ATOM     26  C   UNL     1      27.311  59.612  39.813  1.00  0.00     0.031 C 
ATOM     27  C   UNL     1      25.588  59.162  41.594  1.00  0.00     0.003 C 
ATOM     28  C   UNL     1      28.371  59.295  40.832  1.00  0.00    -0.027 C 
ATOM     29  C   UNL     1      26.688  59.104  42.728  1.00  0.00    -0.008 C 
ATOM     30  C   UNL     1      28.105  59.086  42.138  1.00  0.00    -0.065 C 
ATOM     31  C   UNL     1      26.695  60.343  43.678  1.00  0.00     0.014 C 
ATOM     32  C   UNL     1      29.242  58.894  43.117  1.00  0.00     0.063 C 
ATOM     33  C   UNL     1      27.792  60.227  44.764  1.00  0.00     0.033 C 
ATOM     34  C   UNL     1      21.039  62.104  32.582  1.00  0.00     0.009 C 
ATOM     35  H   UNL     1      21.635  59.682  36.074  1.00  0.00     0.125 HD
ATOM     36  C   UNL     1      20.179  61.108  38.888  1.00  0.00     0.013 C 
ATOM     37  C   UNL     1      23.500  61.967  40.567  1.00  0.00     0.012 C 
ATOM     38  C   UNL     1      26.413  57.791  43.529  1.00  0.00     0.016 C 
BRANCH  14  39
ATOM     39  O   UNL     1      21.541  64.125  37.073  1.00  0.00    -0.389 OA
ATOM     40  H   UNL     1      22.275  64.543  36.554  1.00  0.00     0.211 HD
ENDBRANCH  14  39
ENDBRANCH   8   9
ENDBRANCH   3   8
BRANCH   5  41
ATOM     41  O   UNL     1      30.438  61.397  47.485  1.00  0.00    -0.385 OA
ATOM     42  H   UNL     1      30.261  61.656  46.540  1.00  0.00     0.211 HD
ENDBRANCH   5  41
BRANCH   6  43
ATOM     43  C   UNL     1      28.601  56.115  47.949  1.00  0.00     0.191 C 
BRANCH  43  44
ATOM     44  O   UNL     1      29.801  55.389  47.982  1.00  0.00    -0.394 OA
ATOM     45  H   UNL     1      30.420  55.885  48.578  1.00  0.00     0.210 HD
ENDBRANCH  43  44
ENDBRANCH   6  43
BRANCH   7  46
ATOM     46  O   UNL     1      31.112  59.961  49.853  1.00  0.00    -0.387 OA
ATOM     47  H   UNL     1      31.047  59.428  50.687  1.00  0.00     0.211 HD
ENDBRANCH   7  46
ENDBRANCH   1   2
BRANCH   1  48
ATOM     48  C   UNL     1      30.971  56.887  50.828  1.00  0.00     0.282 C 
ATOM     49  O   UNL     1      31.668  57.922  51.534  1.00  0.00    -0.344 OA
ATOM     50  C   UNL     1      30.650  55.580  51.629  1.00  0.00     0.209 C 
ATOM     51  C   UNL     1      31.589  57.848  52.943  1.00  0.00     0.150 C 
ATOM     52  C   UNL     1      31.874  55.312  52.508  1.00  0.00     0.180 C 
ATOM     53  C   UNL     1      32.089  56.480  53.499  1.00  0.00     0.174 C 
ATOM     54  C   UNL     1      30.195  58.287  53.433  1.00  0.00     0.041 C 
BRANCH  50  55
ATOM     55  O   UNL     1      30.464  54.512  50.706  1.00  0.00    -0.338 OA
BRANCH  55  56
ATOM     56  C   UNL     1      29.358  53.681  51.030  1.00  0.00     0.282 C 
ATOM     57  O   UNL     1      28.295  53.992  50.146  1.00  0.00    -0.344 OA
ATOM     58  C   UNL     1      29.788  52.209  50.840  1.00  0.00     0.202 C 
ATOM     59  C   UNL     1      27.132  53.231  50.436  1.00  0.00     0.150 C 
ATOM     60  C   UNL     1      28.583  51.283  51.101  1.00  0.00     0.179 C 
ATOM     61  C   UNL     1      27.406  51.722  50.213  1.00  0.00     0.174 C 
ATOM     62  C   UNL     1      26.010  53.713  49.515  1.00  0.00     0.041 C 
BRANCH  58  63
ATOM     63  O   UNL     1      30.870  51.880  51.675  1.00  0.00    -0.385 OA
ATOM     64  H   UNL     1      31.492  51.309  51.152  1.00  0.00     0.211 HD
ENDBRANCH  58  63
BRANCH  60  65
ATOM     65  O   UNL     1      28.914  49.934  50.885  1.00  0.00    -0.387 OA
ATOM     66  H   UNL     1      28.197  49.534  50.325  1.00  0.00     0.211 HD
ENDBRANCH  60  65
BRANCH  61  67
ATOM     67  O   UNL     1      26.264  50.941  50.475  1.00  0.00    -0.388 OA
ATOM     68  H   UNL     1      26.575  50.057  50.802  1.00  0.00     0.211 HD
ENDBRANCH  61  67
ENDBRANCH  55  56
ENDBRANCH  50  55
BRANCH  52  69
ATOM     69  O   UNL     1      31.819  54.084  53.185  1.00  0.00    -0.387 OA
ATOM     70  H   UNL     1      32.169  54.232  54.102  1.00  0.00     0.211 HD
ENDBRANCH  52  69
BRANCH  53  71
ATOM     71  O   UNL     1      33.449  56.531  53.858  1.00  0.00    -0.388 OA
ATOM     72  H   UNL     1      33.862  57.283  53.355  1.00  0.00     0.211 HD
ENDBRANCH  53  71
ENDBRANCH   1  48
TORSDOF 16
ENDMDL
MODEL 3
REMARK VINA RESULT:   -10.347      2.021      4.191
REMARK INTER + INTRA:         -19.880
REMARK INTER:                 -17.837
REMARK INTRA:                  -2.043
REMARK UNBOUND:                -2.577
REMARK SMILES C[C@@H]1CN[C@@]2(O[C@H]3C[C@H]4[C@@H]5CC=C6C[C@H](O[C@H]7O[C@@H](CO)[C@H](O[C@H]8O[C@@H](C)[C@H](O)[C@@H](O)[C@@H]8O[C@H]8O[C@@H](C)[C@H](O)[C@@H](O)[C@@H]8O)[C@@H](O)[C@@H]7O)CC[C@@]6(C)[C@H]5CC[C@]4(C)[C@H]3[C@@H]2C)[C@@H](O)C1
REMARK SMILES IDX 23 1 22 2 17 3 18 4 46 5 19 6 44 7 16 8 15 9 2 10 3 11 62 12
REMARK SMILES IDX 4 13 60 14 5 15 6 16 58 17 7 18 57 19 8 20 55 21 9 22 54 23
REMARK SMILES IDX 10 24 53 25 11 26 52 27 12 28 50 29 13 30 49 31 14 32 48 33
REMARK SMILES IDX 1 34 59 36 56 37 51 38 61 39 47 41 20 43 21 44 45 46 24 48
REMARK SMILES IDX 25 49 32 50 26 51 30 52 28 53 27 54 33 55 34 56 35 57 42 58
REMARK SMILES IDX 36 59 40 60 38 61 37 62 43 63 41 65 39 67 31 69 29 71
REMARK H PARENT 4 35 61 40 47 42 21 45 45 47 43 64 41 66 39 68 31 70 29 72
ROOT
ATOM      1  O   UNL     1      29.449  58.652  47.530  1.00  0.00    -0.341 OA
ENDROOT
BRANCH   1   2
ATOM      2  C   UNL     1      28.557  58.161  46.531  1.00  0.00     0.184 C 
ATOM      3  C   UNL     1      26.786  58.321  44.240  1.00  0.00     0.282 C 
ATOM      4  O   UNL     1      26.344  58.404  45.588  1.00  0.00    -0.341 OA
ATOM      5  C   UNL     1      28.174  57.638  44.126  1.00  0.00     0.202 C 
ATOM      6  C   UNL     1      27.282  59.027  46.447  1.00  0.00     0.178 C 
ATOM      7  C   UNL     1      29.195  58.201  45.126  1.00  0.00     0.180 C 
BRANCH   3   8
ATOM      8  O   UNL     1      25.878  57.449  43.605  1.00  0.00    -0.346 OA
BRANCH   8   9
ATOM      9  C   UNL     1      24.995  58.010  42.659  1.00  0.00     0.125 C 
ATOM     10  C   UNL     1      18.289  64.718  33.881  1.00  0.00     0.002 C 
ATOM     11  C   UNL     1      19.653  64.887  33.205  1.00  0.00     0.087 C 
ATOM     12  C   UNL     1      17.784  63.267  33.707  1.00  0.00     0.041 C 
ATOM     13  N   UNL     1      20.674  64.024  33.849  1.00  0.00    -0.287 NA
ATOM     14  C   UNL     1      18.945  62.250  33.629  1.00  0.00     0.162 C 
ATOM     15  C   UNL     1      20.182  62.735  34.434  1.00  0.00     0.148 C 
ATOM     16  O   UNL     1      19.834  62.909  35.805  1.00  0.00    -0.354 OA
ATOM     17  C   UNL     1      21.305  61.678  34.443  1.00  0.00     0.042 C 
ATOM     18  C   UNL     1      21.060  62.833  36.512  1.00  0.00     0.125 C 
ATOM     19  C   UNL     1      22.110  62.106  35.657  1.00  0.00     0.031 C 
ATOM     20  C   UNL     1      21.027  62.116  37.871  1.00  0.00     0.037 C 
ATOM     21  C   UNL     1      22.753  61.038  36.604  1.00  0.00    -0.024 C 
ATOM     22  C   UNL     1      22.502  61.705  37.972  1.00  0.00     0.002 C 
ATOM     23  C   UNL     1      24.277  60.882  36.421  1.00  0.00     0.008 C 
ATOM     24  C   UNL     1      23.014  60.864  39.167  1.00  0.00     0.000 C 
ATOM     25  C   UNL     1      24.874  60.026  37.558  1.00  0.00     0.005 C 
ATOM     26  C   UNL     1      22.806  61.654  40.477  1.00  0.00     0.031 C 
ATOM     27  C   UNL     1      24.532  60.604  38.973  1.00  0.00     0.003 C 
ATOM     28  C   UNL     1      23.537  61.056  41.647  1.00  0.00    -0.027 C 
ATOM     29  C   UNL     1      25.135  59.752  40.161  1.00  0.00    -0.008 C 
ATOM     30  C   UNL     1      24.565  60.192  41.517  1.00  0.00    -0.065 C 
ATOM     31  C   UNL     1      24.798  58.228  40.091  1.00  0.00     0.014 C 
ATOM     32  C   UNL     1      25.164  59.543  42.744  1.00  0.00     0.063 C 
ATOM     33  C   UNL     1      25.414  57.450  41.278  1.00  0.00     0.033 C 
ATOM     34  C   UNL     1      17.247  65.720  33.377  1.00  0.00     0.009 C 
ATOM     35  H   UNL     1      21.213  64.579  34.551  1.00  0.00     0.125 HD
ATOM     36  C   UNL     1      22.136  61.530  33.163  1.00  0.00     0.013 C 
ATOM     37  C   UNL     1      22.061  59.632  36.477  1.00  0.00     0.012 C 
ATOM     38  C   UNL     1      26.679  59.982  40.117  1.00  0.00     0.016 C 
BRANCH  14  39
ATOM     39  O   UNL     1      18.494  60.968  33.988  1.00  0.00    -0.389 OA
ATOM     40  H   UNL     1      17.935  60.632  33.241  1.00  0.00     0.211 HD
ENDBRANCH  14  39
ENDBRANCH   8   9
ENDBRANCH   3   8
BRANCH   5  41
ATOM     41  O   UNL     1      28.662  57.693  42.811  1.00  0.00    -0.385 OA
ATOM     42  H   UNL     1      28.351  58.553  42.418  1.00  0.00     0.211 HD
ENDBRANCH   5  41
BRANCH   6  43
ATOM     43  C   UNL     1      26.630  59.185  47.824  1.00  0.00     0.191 C 
BRANCH  43  44
ATOM     44  O   UNL     1      26.657  57.969  48.524  1.00  0.00    -0.394 OA
ATOM     45  H   UNL     1      27.589  57.842  48.842  1.00  0.00     0.210 HD
ENDBRANCH  43  44
ENDBRANCH   6  43
BRANCH   7  46
ATOM     46  O   UNL     1      30.393  57.469  45.065  1.00  0.00    -0.387 OA
ATOM     47  H   UNL     1      30.160  56.505  45.070  1.00  0.00     0.211 HD
ENDBRANCH   7  46
ENDBRANCH   1   2
BRANCH   1  48
ATOM     48  C   UNL     1      30.254  57.615  48.093  1.00  0.00     0.282 C 
ATOM     49  O   UNL     1      31.605  57.740  47.629  1.00  0.00    -0.344 OA
ATOM     50  C   UNL     1      30.046  57.533  49.643  1.00  0.00     0.209 C 
ATOM     51  C   UNL     1      32.528  58.219  48.584  1.00  0.00     0.150 C 
ATOM     52  C   UNL     1      31.195  56.674  50.179  1.00  0.00     0.180 C 
ATOM     53  C   UNL     1      32.554  57.351  49.880  1.00  0.00     0.174 C 
ATOM     54  C   UNL     1      32.339  59.732  48.811  1.00  0.00     0.041 C 
BRANCH  50  55
ATOM     55  O   UNL     1      28.797  56.900  49.904  1.00  0.00    -0.338 OA
BRANCH  55  56
ATOM     56  C   UNL     1      28.880  55.482  49.906  1.00  0.00     0.282 C 
ATOM     57  O   UNL     1      28.753  55.032  51.244  1.00  0.00    -0.344 OA
ATOM     58  C   UNL     1      27.718  54.929  49.050  1.00  0.00     0.202 C 
ATOM     59  C   UNL     1      28.871  53.620  51.336  1.00  0.00     0.150 C 
ATOM     60  C   UNL     1      27.729  53.387  49.103  1.00  0.00     0.179 C 
ATOM     61  C   UNL     1      27.711  52.931  50.573  1.00  0.00     0.174 C 
ATOM     62  C   UNL     1      28.838  53.239  52.817  1.00  0.00     0.041 C 
BRANCH  58  63
ATOM     63  O   UNL     1      27.793  55.390  47.725  1.00  0.00    -0.385 OA
ATOM     64  H   UNL     1      28.571  56.005  47.663  1.00  0.00     0.211 HD
ENDBRANCH  58  63
BRANCH  60  65
ATOM     65  O   UNL     1      26.653  52.841  48.383  1.00  0.00    -0.387 OA
ATOM     66  H   UNL     1      25.815  53.107  48.846  1.00  0.00     0.211 HD
ENDBRANCH  60  65
BRANCH  61  67
ATOM     67  O   UNL     1      27.790  51.529  50.661  1.00  0.00    -0.388 OA
ATOM     68  H   UNL     1      28.665  51.303  51.073  1.00  0.00     0.211 HD
ENDBRANCH  61  67
ENDBRANCH  55  56
ENDBRANCH  50  55
BRANCH  52  69
ATOM     69  O   UNL     1      31.077  56.369  51.543  1.00  0.00    -0.387 OA
ATOM     70  H   UNL     1      30.137  56.101  51.709  1.00  0.00     0.211 HD
ENDBRANCH  52  69
BRANCH  53  71
ATOM     71  O   UNL     1      33.554  56.362  49.821  1.00  0.00    -0.388 OA
ATOM     72  H   UNL     1      33.475  55.909  48.940  1.00  0.00     0.211 HD
ENDBRANCH  53  71
ENDBRANCH   1  48
TORSDOF 16
ENDMDL
MODEL 4
REMARK VINA RESULT:   -10.275      3.008      6.861
REMARK INTER + INTRA:         -19.759
REMARK INTER:                 -16.907
REMARK INTRA:                  -2.852
REMARK UNBOUND:                -2.577
REMARK SMILES C[C@@H]1CN[C@@]2(O[C@H]3C[C@H]4[C@@H]5CC=C6C[C@H](O[C@H]7O[C@@H](CO)[C@H](O[C@H]8O[C@@H](C)[C@H](O)[C@@H](O)[C@@H]8O[C@H]8O[C@@H](C)[C@H](O)[C@@H](O)[C@@H]8O)[C@@H](O)[C@@H]7O)CC[C@@]6(C)[C@H]5CC[C@]4(C)[C@H]3[C@@H]2C)[C@@H](O)C1
REMARK SMILES IDX 23 1 22 2 17 3 18 4 46 5 19 6 44 7 16 8 15 9 2 10 3 11 62 12
REMARK SMILES IDX 4 13 60 14 5 15 6 16 58 17 7 18 57 19 8 20 55 21 9 22 54 23
REMARK SMILES IDX 10 24 53 25 11 26 52 27 12 28 50 29 13 30 49 31 14 32 48 33
REMARK SMILES IDX 1 34 59 36 56 37 51 38 61 39 47 41 20 43 21 44 45 46 24 48
REMARK SMILES IDX 25 49 32 50 26 51 30 52 28 53 27 54 33 55 34 56 35 57 42 58
REMARK SMILES IDX 36 59 40 60 38 61 37 62 43 63 41 65 39 67 31 69 29 71
REMARK H PARENT 4 35 61 40 47 42 21 45 45 47 43 64 41 66 39 68 31 70 29 72
ROOT
ATOM      1  O   UNL     1      29.934  51.254  51.170  1.00  0.00    -0.341 OA
ENDROOT
BRANCH   1   2
ATOM      2  C   UNL     1      30.187  52.655  51.085  1.00  0.00     0.184 C 
ATOM      3  C   UNL     1      30.486  55.366  52.073  1.00  0.00     0.282 C 
ATOM      4  O   UNL     1      29.272  54.845  51.548  1.00  0.00    -0.341 OA
ATOM      5  C   UNL     1      31.718  54.551  51.599  1.00  0.00     0.202 C 
ATOM      6  C   UNL     1      29.094  53.465  51.815  1.00  0.00     0.178 C 
ATOM      7  C   UNL     1      31.523  53.036  51.758  1.00  0.00     0.180 C 
BRANCH   3   8
ATOM      8  O   UNL     1      30.624  56.642  51.488  1.00  0.00    -0.346 OA
BRANCH   8   9
ATOM      9  C   UNL     1      29.866  56.908  50.328  1.00  0.00     0.125 C 
ATOM     10  C   UNL     1      23.380  61.353  40.072  1.00  0.00     0.002 C 
ATOM     11  C   UNL     1      24.629  62.213  39.857  1.00  0.00     0.087 C 
ATOM     12  C   UNL     1      23.680  59.879  39.714  1.00  0.00     0.041 C 
ATOM     13  N   UNL     1      25.725  61.791  40.765  1.00  0.00    -0.287 NA
ATOM     14  C   UNL     1      25.156  59.503  39.975  1.00  0.00     0.162 C 
ATOM     15  C   UNL     1      25.760  60.339  41.136  1.00  0.00     0.148 C 
ATOM     16  O   UNL     1      25.024  60.112  42.335  1.00  0.00    -0.354 OA
ATOM     17  C   UNL     1      27.200  59.897  41.467  1.00  0.00     0.042 C 
ATOM     18  C   UNL     1      25.907  60.465  43.386  1.00  0.00     0.125 C 
ATOM     19  C   UNL     1      27.358  60.426  42.882  1.00  0.00     0.031 C 
ATOM     20  C   UNL     1      25.857  59.591  44.649  1.00  0.00     0.037 C 
ATOM     21  C   UNL     1      28.151  59.607  43.954  1.00  0.00    -0.024 C 
ATOM     22  C   UNL     1      27.267  59.858  45.192  1.00  0.00     0.002 C 
ATOM     23  C   UNL     1      29.558  60.169  44.250  1.00  0.00     0.008 C 
ATOM     24  C   UNL     1      27.778  59.141  46.466  1.00  0.00     0.000 C 
ATOM     25  C   UNL     1      30.163  59.485  45.494  1.00  0.00     0.005 C 
ATOM     26  C   UNL     1      26.887  59.529  47.666  1.00  0.00     0.031 C 
ATOM     27  C   UNL     1      29.231  59.610  46.747  1.00  0.00     0.003 C 
ATOM     28  C   UNL     1      27.476  59.127  48.990  1.00  0.00    -0.027 C 
ATOM     29  C   UNL     1      29.826  58.923  48.042  1.00  0.00    -0.008 C 
ATOM     30  C   UNL     1      28.782  58.836  49.164  1.00  0.00    -0.065 C 
ATOM     31  C   UNL     1      30.274  57.442  47.832  1.00  0.00     0.014 C 
ATOM     32  C   UNL     1      29.268  58.322  50.500  1.00  0.00     0.063 C 
ATOM     33  C   UNL     1      30.846  56.827  49.133  1.00  0.00     0.033 C 
ATOM     34  C   UNL     1      22.164  61.864  39.295  1.00  0.00     0.009 C 
ATOM     35  H   UNL     1      25.735  62.401  41.614  1.00  0.00     0.125 HD
ATOM     36  C   UNL     1      28.306  60.344  40.505  1.00  0.00     0.013 C 
ATOM     37  C   UNL     1      28.260  58.084  43.583  1.00  0.00     0.012 C 
ATOM     38  C   UNL     1      31.032  59.811  48.486  1.00  0.00     0.016 C 
BRANCH  14  39
ATOM     39  O   UNL     1      25.282  58.113  40.143  1.00  0.00    -0.389 OA
ATOM     40  H   UNL     1      25.158  57.695  39.253  1.00  0.00     0.211 HD
ENDBRANCH  14  39
ENDBRANCH   8   9
ENDBRANCH   3   8
BRANCH   5  41
ATOM     41  O   UNL     1      32.891  54.985  52.238  1.00  0.00    -0.385 OA
ATOM     42  H   UNL     1      32.780  55.956  52.430  1.00  0.00     0.211 HD
ENDBRANCH   5  41
BRANCH   6  43
ATOM     43  C   UNL     1      27.697  53.067  51.331  1.00  0.00     0.191 C 
BRANCH  43  44
ATOM     44  O   UNL     1      27.209  51.981  52.073  1.00  0.00    -0.394 OA
ATOM     45  H   UNL     1      26.520  52.342  52.690  1.00  0.00     0.210 HD
ENDBRANCH  43  44
ENDBRANCH   6  43
BRANCH   7  46
ATOM     46  O   UNL     1      32.613  52.342  51.207  1.00  0.00    -0.387 OA
ATOM     47  H   UNL     1      32.927  52.851  50.414  1.00  0.00     0.211 HD
ENDBRANCH   7  46
ENDBRANCH   1   2
BRANCH   1  48
ATOM     48  C   UNL     1      30.576  50.524  50.125  1.00  0.00     0.282 C 
ATOM     49  O   UNL     1      30.806  49.172  50.544  1.00  0.00    -0.344 OA
ATOM     50  C   UNL     1      29.823  50.722  48.766  1.00  0.00     0.209 C 
ATOM     51  C   UNL     1      29.964  48.206  49.950  1.00  0.00     0.150 C 
ATOM     52  C   UNL     1      30.352  49.636  47.826  1.00  0.00     0.180 C 
ATOM     53  C   UNL     1      30.027  48.233  48.391  1.00  0.00     0.174 C 
ATOM     54  C   UNL     1      28.546  48.279  50.551  1.00  0.00     0.041 C 
BRANCH  50  55
ATOM     55  O   UNL     1      30.138  52.012  48.253  1.00  0.00    -0.338 OA
BRANCH  55  56
ATOM     56  C   UNL     1      29.060  52.611  47.547  1.00  0.00     0.282 C 
ATOM     57  O   UNL     1      28.537  53.661  48.343  1.00  0.00    -0.344 OA
ATOM     58  C   UNL     1      29.607  53.178  46.218  1.00  0.00     0.202 C 
ATOM     59  C   UNL     1      27.422  54.283  47.724  1.00  0.00     0.150 C 
ATOM     60  C   UNL     1      28.476  53.911  45.467  1.00  0.00     0.179 C 
ATOM     61  C   UNL     1      27.850  54.964  46.399  1.00  0.00     0.174 C 
ATOM     62  C   UNL     1      26.856  55.318  48.698  1.00  0.00     0.041 C 
BRANCH  58  63
ATOM     63  O   UNL     1      30.169  52.165  45.422  1.00  0.00    -0.385 OA
ATOM     64  H   UNL     1      31.139  52.361  45.326  1.00  0.00     0.211 HD
ENDBRANCH  58  63
BRANCH  60  65
ATOM     65  O   UNL     1      28.943  54.493  44.276  1.00  0.00    -0.387 OA
ATOM     66  H   UNL     1      29.433  53.792  43.771  1.00  0.00     0.211 HD
ENDBRANCH  60  65
BRANCH  61  67
ATOM     67  O   UNL     1      26.767  55.606  45.769  1.00  0.00    -0.388 OA
ATOM     68  H   UNL     1      26.244  54.911  45.292  1.00  0.00     0.211 HD
ENDBRANCH  61  67
ENDBRANCH  55  56
ENDBRANCH  50  55
BRANCH  52  69
ATOM     69  O   UNL     1      29.891  49.763  46.507  1.00  0.00    -0.387 OA
ATOM     70  H   UNL     1      29.029  49.276  46.443  1.00  0.00     0.211 HD
ENDBRANCH  52  69
BRANCH  53  71
ATOM     71  O   UNL     1      30.967  47.310  47.895  1.00  0.00    -0.388 OA
ATOM     72  H   UNL     1      31.546  47.793  47.247  1.00  0.00     0.211 HD
ENDBRANCH  53  71
ENDBRANCH   1  48
TORSDOF 16
ENDMDL
MODEL 5
REMARK VINA RESULT:   -10.144      1.596      2.527
REMARK INTER + INTRA:         -19.541
REMARK INTER:                 -17.215
REMARK INTRA:                  -2.326
REMARK UNBOUND:                -2.577
REMARK SMILES C[C@@H]1CN[C@@]2(O[C@H]3C[C@H]4[C@@H]5CC=C6C[C@H](O[C@H]7O[C@@H](CO)[C@H](O[C@H]8O[C@@H](C)[C@H](O)[C@@H](O)[C@@H]8O[C@H]8O[C@@H](C)[C@H](O)[C@@H](O)[C@@H]8O)[C@@H](O)[C@@H]7O)CC[C@@]6(C)[C@H]5CC[C@]4(C)[C@H]3[C@@H]2C)[C@@H](O)C1
REMARK SMILES IDX 23 1 22 2 17 3 18 4 46 5 19 6 44 7 16 8 15 9 2 10 3 11 62 12
REMARK SMILES IDX 4 13 60 14 5 15 6 16 58 17 7 18 57 19 8 20 55 21 9 22 54 23
REMARK SMILES IDX 10 24 53 25 11 26 52 27 12 28 50 29 13 30 49 31 14 32 48 33
REMARK SMILES IDX 1 34 59 36 56 37 51 38 61 39 47 41 20 43 21 44 45 46 24 48
REMARK SMILES IDX 25 49 32 50 26 51 30 52 28 53 27 54 33 55 34 56 35 57 42 58
REMARK SMILES IDX 36 59 40 60 38 61 37 62 43 63 41 65 39 67 31 69 29 71
REMARK H PARENT 4 35 61 40 47 42 21 45 45 47 43 64 41 66 39 68 31 70 29 72
ROOT
ATOM      1  O   UNL     1      30.189  55.596  46.190  1.00  0.00    -0.341 OA
ENDROOT
BRANCH   1   2
ATOM      2  C   UNL     1      29.389  56.753  45.955  1.00  0.00     0.184 C 
ATOM      3  C   UNL     1      27.471  58.418  44.554  1.00  0.00     0.282 C 
ATOM      4  O   UNL     1      28.875  58.489  44.352  1.00  0.00    -0.341 OA
ATOM      5  C   UNL     1      27.114  57.767  45.917  1.00  0.00     0.202 C 
ATOM      6  C   UNL     1      29.526  57.238  44.496  1.00  0.00     0.178 C 
ATOM      7  C   UNL     1      27.889  56.465  46.171  1.00  0.00     0.180 C 
BRANCH   3   8
ATOM      8  O   UNL     1      27.042  59.758  44.648  1.00  0.00    -0.346 OA
BRANCH   8   9
ATOM      9  C   UNL     1      26.072  60.193  43.720  1.00  0.00     0.125 C 
ATOM     10  C   UNL     1      18.791  64.335  33.879  1.00  0.00     0.002 C 
ATOM     11  C   UNL     1      19.596  63.317  33.066  1.00  0.00     0.087 C 
ATOM     12  C   UNL     1      17.789  63.606  34.804  1.00  0.00     0.041 C 
ATOM     13  N   UNL     1      20.417  62.460  33.956  1.00  0.00    -0.287 NA
ATOM     14  C   UNL     1      18.308  62.221  35.251  1.00  0.00     0.162 C 
ATOM     15  C   UNL     1      19.859  62.190  35.320  1.00  0.00     0.148 C 
ATOM     16  O   UNL     1      20.326  63.163  36.252  1.00  0.00    -0.354 OA
ATOM     17  C   UNL     1      20.378  60.843  35.863  1.00  0.00     0.042 C 
ATOM     18  C   UNL     1      21.620  62.727  36.628  1.00  0.00     0.125 C 
ATOM     19  C   UNL     1      21.771  61.225  36.334  1.00  0.00     0.031 C 
ATOM     20  C   UNL     1      22.014  62.928  38.100  1.00  0.00     0.037 C 
ATOM     21  C   UNL     1      22.370  60.602  37.639  1.00  0.00    -0.024 C 
ATOM     22  C   UNL     1      23.086  61.836  38.223  1.00  0.00     0.002 C 
ATOM     23  C   UNL     1      23.431  59.513  37.376  1.00  0.00     0.008 C 
ATOM     24  C   UNL     1      23.786  61.556  39.576  1.00  0.00     0.000 C 
ATOM     25  C   UNL     1      24.163  59.145  38.684  1.00  0.00     0.005 C 
ATOM     26  C   UNL     1      24.551  62.818  40.029  1.00  0.00     0.031 C 
ATOM     27  C   UNL     1      24.800  60.398  39.376  1.00  0.00     0.003 C 
ATOM     28  C   UNL     1      25.498  62.555  41.167  1.00  0.00    -0.027 C 
ATOM     29  C   UNL     1      25.564  60.054  40.718  1.00  0.00    -0.008 C 
ATOM     30  C   UNL     1      25.940  61.323  41.494  1.00  0.00    -0.065 C 
ATOM     31  C   UNL     1      24.720  59.227  41.740  1.00  0.00     0.014 C 
ATOM     32  C   UNL     1      26.794  61.132  42.727  1.00  0.00     0.063 C 
ATOM     33  C   UNL     1      25.521  58.923  43.029  1.00  0.00     0.033 C 
ATOM     34  C   UNL     1      18.071  65.363  33.002  1.00  0.00     0.009 C 
ATOM     35  H   UNL     1      21.390  62.837  34.011  1.00  0.00     0.125 HD
ATOM     36  C   UNL     1      20.349  59.646  34.907  1.00  0.00     0.013 C 
ATOM     37  C   UNL     1      21.259  60.034  38.595  1.00  0.00     0.012 C 
ATOM     38  C   UNL     1      26.847  59.270  40.295  1.00  0.00     0.016 C 
BRANCH  14  39
ATOM     39  O   UNL     1      17.673  61.824  36.440  1.00  0.00    -0.389 OA
ATOM     40  H   UNL     1      17.164  62.605  36.779  1.00  0.00     0.211 HD
ENDBRANCH  14  39
ENDBRANCH   8   9
ENDBRANCH   3   8
BRANCH   5  41
ATOM     41  O   UNL     1      25.730  57.570  46.040  1.00  0.00    -0.385 OA
ATOM     42  H   UNL     1      25.303  57.959  45.228  1.00  0.00     0.211 HD
ENDBRANCH   5  41
BRANCH   6  43
ATOM     43  C   UNL     1      30.996  57.424  44.111  1.00  0.00     0.191 C 
BRANCH  43  44
ATOM     44  O   UNL     1      31.403  56.419  43.220  1.00  0.00    -0.394 OA
ATOM     45  H   UNL     1      32.256  56.053  43.570  1.00  0.00     0.210 HD
ENDBRANCH  43  44
ENDBRANCH   6  43
BRANCH   7  46
ATOM     46  O   UNL     1      27.621  55.982  47.463  1.00  0.00    -0.387 OA
ATOM     47  H   UNL     1      28.304  56.359  48.076  1.00  0.00     0.211 HD
ENDBRANCH   7  46
ENDBRANCH   1   2
BRANCH   1  48
ATOM     48  C   UNL     1      29.632  54.424  45.594  1.00  0.00     0.282 C 
ATOM     49  O   UNL     1      30.261  54.174  44.330  1.00  0.00    -0.344 OA
ATOM     50  C   UNL     1      29.610  53.239  46.617  1.00  0.00     0.209 C 
ATOM     51  C   UNL     1      31.163  53.086  44.310  1.00  0.00     0.150 C 
ATOM     52  C   UNL     1      29.355  51.973  45.794  1.00  0.00     0.180 C 
ATOM     53  C   UNL     1      30.502  51.753  44.779  1.00  0.00     0.174 C 
ATOM     54  C   UNL     1      32.476  53.456  45.027  1.00  0.00     0.041 C 
BRANCH  50  55
ATOM     55  O   UNL     1      28.545  53.449  47.538  1.00  0.00    -0.338 OA
BRANCH  55  56
ATOM     56  C   UNL     1      28.883  53.097  48.872  1.00  0.00     0.282 C 
ATOM     57  O   UNL     1      29.147  54.290  49.592  1.00  0.00    -0.344 OA
ATOM     58  C   UNL     1      27.679  52.359  49.498  1.00  0.00     0.202 C 
ATOM     59  C   UNL     1      29.538  54.020  50.929  1.00  0.00     0.150 C 
ATOM     60  C   UNL     1      27.982  52.040  50.976  1.00  0.00     0.179 C 
ATOM     61  C   UNL     1      28.381  53.337  51.702  1.00  0.00     0.174 C 
ATOM     62  C   UNL     1      29.912  55.347  51.590  1.00  0.00     0.041 C 
BRANCH  58  63
ATOM     63  O   UNL     1      27.366  51.191  48.781  1.00  0.00    -0.385 OA
ATOM     64  H   UNL     1      26.481  50.871  49.099  1.00  0.00     0.211 HD
ENDBRANCH  58  63
BRANCH  60  65
ATOM     65  O   UNL     1      26.889  51.416  51.602  1.00  0.00    -0.387 OA
ATOM     66  H   UNL     1      27.242  50.880  52.360  1.00  0.00     0.211 HD
ENDBRANCH  60  65
BRANCH  61  67
ATOM     67  O   UNL     1      28.733  53.072  53.039  1.00  0.00    -0.388 OA
ATOM     68  H   UNL     1      29.714  53.193  53.120  1.00  0.00     0.211 HD
ENDBRANCH  61  67
ENDBRANCH  55  56
ENDBRANCH  50  55
BRANCH  52  69
ATOM     69  O   UNL     1      29.152  50.827  46.577  1.00  0.00    -0.387 OA
ATOM     70  H   UNL     1      29.344  51.070  47.519  1.00  0.00     0.211 HD
ENDBRANCH  52  69
BRANCH  53  71
ATOM     71  O   UNL     1      30.014  51.006  43.691  1.00  0.00    -0.388 OA
ATOM     72  H   UNL     1      30.478  51.330  42.874  1.00  0.00     0.211 HD
ENDBRANCH  53  71
ENDBRANCH   1  48
TORSDOF 16
ENDMDL
MODEL 6
REMARK VINA RESULT:   -10.133      3.713      7.494
REMARK INTER + INTRA:         -19.521
REMARK INTER:                 -18.036
REMARK INTRA:                  -1.485
REMARK UNBOUND:                -2.577
REMARK SMILES C[C@@H]1CN[C@@]2(O[C@H]3C[C@H]4[C@@H]5CC=C6C[C@H](O[C@H]7O[C@@H](CO)[C@H](O[C@H]8O[C@@H](C)[C@H](O)[C@@H](O)[C@@H]8O[C@H]8O[C@@H](C)[C@H](O)[C@@H](O)[C@@H]8O)[C@@H](O)[C@@H]7O)CC[C@@]6(C)[C@H]5CC[C@]4(C)[C@H]3[C@@H]2C)[C@@H](O)C1
REMARK SMILES IDX 23 1 22 2 17 3 18 4 46 5 19 6 44 7 16 8 15 9 2 10 3 11 62 12
REMARK SMILES IDX 4 13 60 14 5 15 6 16 58 17 7 18 57 19 8 20 55 21 9 22 54 23
REMARK SMILES IDX 10 24 53 25 11 26 52 27 12 28 50 29 13 30 49 31 14 32 48 33
REMARK SMILES IDX 1 34 59 36 56 37 51 38 61 39 47 41 20 43 21 44 45 46 24 48
REMARK SMILES IDX 25 49 32 50 26 51 30 52 28 53 27 54 33 55 34 56 35 57 42 58
REMARK SMILES IDX 36 59 40 60 38 61 37 62 43 63 41 65 39 67 31 69 29 71
REMARK H PARENT 4 35 61 40 47 42 21 45 45 47 43 64 41 66 39 68 31 70 29 72
ROOT
ATOM      1  O   UNL     1      26.868  57.649  43.381  1.00  0.00    -0.341 OA
ENDROOT
BRANCH   1   2
ATOM      2  C   UNL     1      26.623  58.717  42.467  1.00  0.00     0.184 C 
ATOM      3  C   UNL     1      25.466  60.012  40.143  1.00  0.00     0.282 C 
ATOM      4  O   UNL     1      26.734  59.371  40.141  1.00  0.00    -0.341 OA
ATOM      5  C   UNL     1      25.014  60.397  41.577  1.00  0.00     0.202 C 
ATOM      6  C   UNL     1      26.796  58.250  41.005  1.00  0.00     0.178 C 
ATOM      7  C   UNL     1      25.177  59.244  42.579  1.00  0.00     0.180 C 
BRANCH   3   8
ATOM      8  O   UNL     1      25.667  61.233  39.466  1.00  0.00    -0.346 OA
BRANCH   8   9
ATOM      9  C   UNL     1      24.910  61.456  38.297  1.00  0.00     0.125 C 
ATOM     10  C   UNL     1      16.380  62.682  28.666  1.00  0.00     0.002 C 
ATOM     11  C   UNL     1      15.456  63.211  29.768  1.00  0.00     0.087 C 
ATOM     12  C   UNL     1      17.469  63.729  28.336  1.00  0.00     0.041 C 
ATOM     13  N   UNL     1      16.206  63.426  31.030  1.00  0.00    -0.287 NA
ATOM     14  C   UNL     1      17.839  64.592  29.563  1.00  0.00     0.162 C 
ATOM     15  C   UNL     1      17.648  63.809  30.890  1.00  0.00     0.148 C 
ATOM     16  O   UNL     1      18.476  62.648  30.895  1.00  0.00    -0.354 OA
ATOM     17  C   UNL     1      18.113  64.631  32.109  1.00  0.00     0.042 C 
ATOM     18  C   UNL     1      18.635  62.311  32.262  1.00  0.00     0.125 C 
ATOM     19  C   UNL     1      18.339  63.539  33.139  1.00  0.00     0.031 C 
ATOM     20  C   UNL     1      20.017  61.791  32.686  1.00  0.00     0.037 C 
ATOM     21  C   UNL     1      19.532  63.629  34.148  1.00  0.00    -0.024 C 
ATOM     22  C   UNL     1      19.972  62.151  34.178  1.00  0.00     0.002 C 
ATOM     23  C   UNL     1      19.109  64.031  35.576  1.00  0.00     0.008 C 
ATOM     24  C   UNL     1      21.192  61.893  35.097  1.00  0.00     0.000 C 
ATOM     25  C   UNL     1      20.280  63.834  36.563  1.00  0.00     0.005 C 
ATOM     26  C   UNL     1      21.493  60.379  35.135  1.00  0.00     0.031 C 
ATOM     27  C   UNL     1      20.839  62.371  36.531  1.00  0.00     0.003 C 
ATOM     28  C   UNL     1      22.460  60.000  36.224  1.00  0.00    -0.027 C 
ATOM     29  C   UNL     1      22.038  62.136  37.535  1.00  0.00    -0.008 C 
ATOM     30  C   UNL     1      22.723  60.785  37.288  1.00  0.00    -0.065 C 
ATOM     31  C   UNL     1      23.197  63.174  37.402  1.00  0.00     0.014 C 
ATOM     32  C   UNL     1      23.799  60.384  38.273  1.00  0.00     0.063 C 
ATOM     33  C   UNL     1      24.337  62.890  38.410  1.00  0.00     0.033 C 
ATOM     34  C   UNL     1      15.623  62.268  27.402  1.00  0.00     0.009 C 
ATOM     35  H   UNL     1      16.092  62.596  31.654  1.00  0.00     0.125 HD
ATOM     36  C   UNL     1      17.190  65.758  32.585  1.00  0.00     0.013 C 
ATOM     37  C   UNL     1      20.668  64.591  33.645  1.00  0.00     0.012 C 
ATOM     38  C   UNL     1      21.415  62.179  38.967  1.00  0.00     0.016 C 
BRANCH  14  39
ATOM     39  O   UNL     1      19.124  65.141  29.401  1.00  0.00    -0.389 OA
ATOM     40  H   UNL     1      19.573  65.108  30.285  1.00  0.00     0.211 HD
ENDBRANCH  14  39
ENDBRANCH   8   9
ENDBRANCH   3   8
BRANCH   5  41
ATOM     41  O   UNL     1      23.702  60.896  41.580  1.00  0.00    -0.385 OA
ATOM     42  H   UNL     1      23.763  61.887  41.510  1.00  0.00     0.211 HD
ENDBRANCH   5  41
BRANCH   6  43
ATOM     43  C   UNL     1      28.152  57.569  40.800  1.00  0.00     0.191 C 
BRANCH  43  44
ATOM     44  O   UNL     1      28.094  56.224  41.195  1.00  0.00    -0.394 OA
ATOM     45  H   UNL     1      28.417  55.685  40.427  1.00  0.00     0.210 HD
ENDBRANCH  43  44
ENDBRANCH   6  43
BRANCH   7  46
ATOM     46  O   UNL     1      24.869  59.679  43.879  1.00  0.00    -0.387 OA
ATOM     47  H   UNL     1      24.364  60.530  43.802  1.00  0.00     0.211 HD
ENDBRANCH   7  46
ENDBRANCH   1   2
BRANCH   1  48
ATOM     48  C   UNL     1      27.894  57.968  44.320  1.00  0.00     0.282 C 
ATOM     49  O   UNL     1      27.381  58.856  45.322  1.00  0.00    -0.344 OA
ATOM     50  C   UNL     1      28.603  56.666  44.828  1.00  0.00     0.209 C 
ATOM     51  C   UNL     1      27.165  58.273  46.591  1.00  0.00     0.150 C 
ATOM     52  C   UNL     1      29.401  57.076  46.069  1.00  0.00     0.180 C 
ATOM     53  C   UNL     1      28.450  57.604  47.169  1.00  0.00     0.174 C 
ATOM     54  C   UNL     1      25.910  57.377  46.570  1.00  0.00     0.041 C 
BRANCH  50  55
ATOM     55  O   UNL     1      29.482  56.197  43.811  1.00  0.00    -0.338 OA
BRANCH  55  56
ATOM     56  C   UNL     1      30.486  55.320  44.302  1.00  0.00     0.282 C 
ATOM     57  O   UNL     1      29.996  53.993  44.215  1.00  0.00    -0.344 OA
ATOM     58  C   UNL     1      31.741  55.478  43.416  1.00  0.00     0.202 C 
ATOM     59  C   UNL     1      30.928  53.055  44.731  1.00  0.00     0.150 C 
ATOM     60  C   UNL     1      32.822  54.475  43.870  1.00  0.00     0.179 C 
ATOM     61  C   UNL     1      32.223  53.057  43.880  1.00  0.00     0.174 C 
ATOM     62  C   UNL     1      30.273  51.673  44.704  1.00  0.00     0.041 C 
BRANCH  58  63
ATOM     63  O   UNL     1      32.229  56.796  43.448  1.00  0.00    -0.385 OA
ATOM     64  H   UNL     1      32.284  57.073  44.401  1.00  0.00     0.211 HD
ENDBRANCH  58  63
BRANCH  60  65
ATOM     65  O   UNL     1      33.964  54.545  43.054  1.00  0.00    -0.387 OA
ATOM     66  H   UNL     1      34.086  53.654  42.631  1.00  0.00     0.211 HD
ENDBRANCH  60  65
BRANCH  61  67
ATOM     67  O   UNL     1      33.162  52.123  44.357  1.00  0.00    -0.388 OA
ATOM     68  H   UNL     1      33.445  52.417  45.261  1.00  0.00     0.211 HD
ENDBRANCH  61  67
ENDBRANCH  55  56
ENDBRANCH  50  55
BRANCH  52  69
ATOM     69  O   UNL     1      30.226  56.056  46.567  1.00  0.00    -0.387 OA
ATOM     70  H   UNL     1      29.943  55.207  46.138  1.00  0.00     0.211 HD
ENDBRANCH  52  69
BRANCH  53  71
ATOM     71  O   UNL     1      29.161  58.484  48.005  1.00  0.00    -0.388 OA
ATOM     72  H   UNL     1      28.652  58.564  48.856  1.00  0.00     0.211 HD
ENDBRANCH  53  71
ENDBRANCH   1  48
TORSDOF 16
ENDMDL
MODEL 7
REMARK VINA RESULT:   -10.107      2.098      4.677
REMARK INTER + INTRA:         -19.479
REMARK INTER:                 -17.553
REMARK INTRA:                  -1.926
REMARK UNBOUND:                -2.577
REMARK SMILES C[C@@H]1CN[C@@]2(O[C@H]3C[C@H]4[C@@H]5CC=C6C[C@H](O[C@H]7O[C@@H](CO)[C@H](O[C@H]8O[C@@H](C)[C@H](O)[C@@H](O)[C@@H]8O[C@H]8O[C@@H](C)[C@H](O)[C@@H](O)[C@@H]8O)[C@@H](O)[C@@H]7O)CC[C@@]6(C)[C@H]5CC[C@]4(C)[C@H]3[C@@H]2C)[C@@H](O)C1
REMARK SMILES IDX 23 1 22 2 17 3 18 4 46 5 19 6 44 7 16 8 15 9 2 10 3 11 62 12
REMARK SMILES IDX 4 13 60 14 5 15 6 16 58 17 7 18 57 19 8 20 55 21 9 22 54 23
REMARK SMILES IDX 10 24 53 25 11 26 52 27 12 28 50 29 13 30 49 31 14 32 48 33
REMARK SMILES IDX 1 34 59 36 56 37 51 38 61 39 47 41 20 43 21 44 45 46 24 48
REMARK SMILES IDX 25 49 32 50 26 51 30 52 28 53 27 54 33 55 34 56 35 57 42 58
REMARK SMILES IDX 36 59 40 60 38 61 37 62 43 63 41 65 39 67 31 69 29 71
REMARK H PARENT 4 35 61 40 47 42 21 45 45 47 43 64 41 66 39 68 31 70 29 72
ROOT
ATOM      1  O   UNL     1      28.385  54.556  46.664  1.00  0.00    -0.341 OA
ENDROOT
BRANCH   1   2
ATOM      2  C   UNL     1      28.038  55.811  46.083  1.00  0.00     0.184 C 
ATOM      3  C   UNL     1      26.635  57.616  44.298  1.00  0.00     0.282 C 
ATOM      4  O   UNL     1      27.899  57.039  44.004  1.00  0.00    -0.341 OA
ATOM      5  C   UNL     1      26.334  57.609  45.820  1.00  0.00     0.202 C 
ATOM      6  C   UNL     1      28.059  55.737  44.541  1.00  0.00     0.178 C 
ATOM      7  C   UNL     1      26.609  56.245  46.471  1.00  0.00     0.180 C 
BRANCH   3   8
ATOM      8  O   UNL     1      26.755  58.974  43.940  1.00  0.00    -0.346 OA
BRANCH   8   9
ATOM      9  C   UNL     1      25.774  59.505  43.076  1.00  0.00     0.125 C 
ATOM     10  C   UNL     1      18.385  64.824  33.903  1.00  0.00     0.002 C 
ATOM     11  C   UNL     1      19.253  63.996  32.951  1.00  0.00     0.087 C 
ATOM     12  C   UNL     1      17.414  63.902  34.677  1.00  0.00     0.041 C 
ATOM     13  N   UNL     1      20.110  63.048  33.704  1.00  0.00    -0.287 NA
ATOM     14  C   UNL     1      18.003  62.491  34.902  1.00  0.00     0.162 C 
ATOM     15  C   UNL     1      19.553  62.529  34.995  1.00  0.00     0.148 C 
ATOM     16  O   UNL     1      19.956  63.359  36.083  1.00  0.00    -0.354 OA
ATOM     17  C   UNL     1      20.138  61.140  35.321  1.00  0.00     0.042 C 
ATOM     18  C   UNL     1      21.268  62.934  36.408  1.00  0.00     0.125 C 
ATOM     19  C   UNL     1      21.503  61.512  35.875  1.00  0.00     0.031 C 
ATOM     20  C   UNL     1      21.634  62.911  37.900  1.00  0.00     0.037 C 
ATOM     21  C   UNL     1      22.121  60.715  37.072  1.00  0.00    -0.024 C 
ATOM     22  C   UNL     1      22.762  61.872  37.864  1.00  0.00     0.002 C 
ATOM     23  C   UNL     1      23.242  59.740  36.657  1.00  0.00     0.008 C 
ATOM     24  C   UNL     1      23.461  61.410  39.167  1.00  0.00     0.000 C 
ATOM     25  C   UNL     1      23.979  59.201  37.901  1.00  0.00     0.005 C 
ATOM     26  C   UNL     1      24.153  62.619  39.834  1.00  0.00     0.031 C 
ATOM     27  C   UNL     1      24.539  60.354  38.801  1.00  0.00     0.003 C 
ATOM     28  C   UNL     1      25.100  62.221  40.932  1.00  0.00    -0.027 C 
ATOM     29  C   UNL     1      25.306  59.835  40.082  1.00  0.00    -0.008 C 
ATOM     30  C   UNL     1      25.605  60.977  41.063  1.00  0.00    -0.065 C 
ATOM     31  C   UNL     1      24.497  58.809  40.939  1.00  0.00     0.014 C 
ATOM     32  C   UNL     1      26.454  60.630  42.265  1.00  0.00     0.063 C 
ATOM     33  C   UNL     1      25.300  58.339  42.177  1.00  0.00     0.033 C 
ATOM     34  C   UNL     1      17.620  65.943  33.192  1.00  0.00     0.009 C 
ATOM     35  H   UNL     1      21.061  63.461  33.839  1.00  0.00     0.125 HD
ATOM     36  C   UNL     1      20.184  60.117  34.182  1.00  0.00     0.013 C 
ATOM     37  C   UNL     1      21.032  59.941  37.901  1.00  0.00     0.012 C 
ATOM     38  C   UNL     1      26.635  59.199  39.562  1.00  0.00     0.016 C 
BRANCH  14  39
ATOM     39  O   UNL     1      17.378  61.872  35.998  1.00  0.00    -0.389 OA
ATOM     40  H   UNL     1      17.597  62.406  36.804  1.00  0.00     0.211 HD
ENDBRANCH  14  39
ENDBRANCH   8   9
ENDBRANCH   3   8
BRANCH   5  41
ATOM     41  O   UNL     1      25.026  58.046  46.082  1.00  0.00    -0.385 OA
ATOM     42  H   UNL     1      25.073  58.663  46.863  1.00  0.00     0.211 HD
ENDBRANCH   5  41
BRANCH   6  43
ATOM     43  C   UNL     1      29.391  55.177  44.033  1.00  0.00     0.191 C 
BRANCH  43  44
ATOM     44  O   UNL     1      29.241  53.842  43.626  1.00  0.00    -0.394 OA
ATOM     45  H   UNL     1      29.973  53.328  44.055  1.00  0.00     0.210 HD
ENDBRANCH  43  44
ENDBRANCH   6  43
BRANCH   7  46
ATOM     46  O   UNL     1      26.437  56.325  47.863  1.00  0.00    -0.387 OA
ATOM     47  H   UNL     1      26.968  55.595  48.277  1.00  0.00     0.211 HD
ENDBRANCH   7  46
ENDBRANCH   1   2
BRANCH   1  48
ATOM     48  C   UNL     1      29.344  54.692  47.713  1.00  0.00     0.282 C 
ATOM     49  O   UNL     1      28.692  55.110  48.919  1.00  0.00    -0.344 OA
ATOM     50  C   UNL     1      30.247  53.415  47.807  1.00  0.00     0.209 C 
ATOM     51  C   UNL     1      28.564  54.114  49.912  1.00  0.00     0.150 C 
ATOM     52  C   UNL     1      30.964  53.503  49.156  1.00  0.00     0.180 C 
ATOM     53  C   UNL     1      29.936  53.488  50.312  1.00  0.00     0.174 C 
ATOM     54  C   UNL     1      27.467  53.101  49.528  1.00  0.00     0.041 C 
BRANCH  50  55
ATOM     55  O   UNL     1      31.194  53.446  46.744  1.00  0.00    -0.338 OA
BRANCH  55  56
ATOM     56  C   UNL     1      31.589  52.152  46.311  1.00  0.00     0.282 C 
ATOM     57  O   UNL     1      30.487  51.275  46.471  1.00  0.00    -0.344 OA
ATOM     58  C   UNL     1      31.982  52.240  44.819  1.00  0.00     0.202 C 
ATOM     59  C   UNL     1      30.817  49.945  46.101  1.00  0.00     0.150 C 
ATOM     60  C   UNL     1      32.334  50.832  44.296  1.00  0.00     0.179 C 
ATOM     61  C   UNL     1      31.165  49.875  44.592  1.00  0.00     0.174 C 
ATOM     62  C   UNL     1      29.613  49.054  46.414  1.00  0.00     0.041 C 
BRANCH  58  63
ATOM     63  O   UNL     1      33.048  53.134  44.622  1.00  0.00    -0.385 OA
ATOM     64  H   UNL     1      32.927  53.554  43.730  1.00  0.00     0.211 HD
ENDBRANCH  58  63
BRANCH  60  65
ATOM     65  O   UNL     1      32.643  50.855  42.925  1.00  0.00    -0.387 OA
ATOM     66  H   UNL     1      33.278  51.604  42.773  1.00  0.00     0.211 HD
ENDBRANCH  60  65
BRANCH  61  67
ATOM     67  O   UNL     1      31.479  48.564  44.190  1.00  0.00    -0.388 OA
ATOM     68  H   UNL     1      32.311  48.607  43.650  1.00  0.00     0.211 HD
ENDBRANCH  61  67
ENDBRANCH  55  56
ENDBRANCH  50  55
BRANCH  52  69
ATOM     69  O   UNL     1      31.938  52.509  49.339  1.00  0.00    -0.387 OA
ATOM     70  H   UNL     1      31.509  51.633  49.156  1.00  0.00     0.211 HD
ENDBRANCH  52  69
BRANCH  53  71
ATOM     71  O   UNL     1      30.495  54.136  51.430  1.00  0.00    -0.388 OA
ATOM     72  H   UNL     1      31.484  54.098  51.334  1.00  0.00     0.211 HD
ENDBRANCH  53  71
ENDBRANCH   1  48
TORSDOF 16
ENDMDL
MODEL 8
REMARK VINA RESULT:   -10.017      3.806      7.262
REMARK INTER + INTRA:         -19.328
REMARK INTER:                 -16.430
REMARK INTRA:                  -2.898
REMARK UNBOUND:                -2.577
REMARK SMILES C[C@@H]1CN[C@@]2(O[C@H]3C[C@H]4[C@@H]5CC=C6C[C@H](O[C@H]7O[C@@H](CO)[C@H](O[C@H]8O[C@@H](C)[C@H](O)[C@@H](O)[C@@H]8O[C@H]8O[C@@H](C)[C@H](O)[C@@H](O)[C@@H]8O)[C@@H](O)[C@@H]7O)CC[C@@]6(C)[C@H]5CC[C@]4(C)[C@H]3[C@@H]2C)[C@@H](O)C1
REMARK SMILES IDX 23 1 22 2 17 3 18 4 46 5 19 6 44 7 16 8 15 9 2 10 3 11 62 12
REMARK SMILES IDX 4 13 60 14 5 15 6 16 58 17 7 18 57 19 8 20 55 21 9 22 54 23
REMARK SMILES IDX 10 24 53 25 11 26 52 27 12 28 50 29 13 30 49 31 14 32 48 33
REMARK SMILES IDX 1 34 59 36 56 37 51 38 61 39 47 41 20 43 21 44 45 46 24 48
REMARK SMILES IDX 25 49 32 50 26 51 30 52 28 53 27 54 33 55 34 56 35 57 42 58
REMARK SMILES IDX 36 59 40 60 38 61 37 62 43 63 41 65 39 67 31 69 29 71
REMARK H PARENT 4 35 61 40 47 42 21 45 45 47 43 64 41 66 39 68 31 70 29 72
ROOT
ATOM      1  O   UNL     1      32.754  59.039  52.095  1.00  0.00    -0.341 OA
ENDROOT
BRANCH   1   2
ATOM      2  C   UNL     1      32.988  58.333  50.877  1.00  0.00     0.184 C 
ATOM      3  C   UNL     1      34.528  56.832  48.931  1.00  0.00     0.282 C 
ATOM      4  O   UNL     1      34.375  58.244  48.898  1.00  0.00    -0.341 OA
ATOM      5  C   UNL     1      33.410  56.147  49.760  1.00  0.00     0.202 C 
ATOM      6  C   UNL     1      34.278  58.827  50.186  1.00  0.00     0.178 C 
ATOM      7  C   UNL     1      33.185  56.822  51.122  1.00  0.00     0.180 C 
BRANCH   3   8
ATOM      8  O   UNL     1      34.330  56.408  47.600  1.00  0.00    -0.346 OA
BRANCH   8   9
ATOM      9  C   UNL     1      33.301  57.035  46.867  1.00  0.00     0.125 C 
ATOM     10  C   UNL     1      24.760  61.902  38.477  1.00  0.00     0.002 C 
ATOM     11  C   UNL     1      24.763  60.483  37.899  1.00  0.00     0.087 C 
ATOM     12  C   UNL     1      24.010  61.925  39.829  1.00  0.00     0.041 C 
ATOM     13  N   UNL     1      25.501  59.551  38.787  1.00  0.00    -0.287 NA
ATOM     14  C   UNL     1      24.131  60.584  40.587  1.00  0.00     0.162 C 
ATOM     15  C   UNL     1      25.464  59.859  40.253  1.00  0.00     0.148 C 
ATOM     16  O   UNL     1      26.571  60.679  40.620  1.00  0.00    -0.354 OA
ATOM     17  C   UNL     1      25.635  58.571  41.084  1.00  0.00     0.042 C 
ATOM     18  C   UNL     1      27.660  59.787  40.773  1.00  0.00     0.125 C 
ATOM     19  C   UNL     1      27.137  58.360  41.004  1.00  0.00     0.031 C 
ATOM     20  C   UNL     1      28.640  60.087  41.918  1.00  0.00     0.037 C 
ATOM     21  C   UNL     1      27.932  57.819  42.239  1.00  0.00    -0.024 C 
ATOM     22  C   UNL     1      29.208  58.678  42.135  1.00  0.00     0.002 C 
ATOM     23  C   UNL     1      28.342  56.337  42.113  1.00  0.00     0.008 C 
ATOM     24  C   UNL     1      30.230  58.397  43.265  1.00  0.00     0.000 C 
ATOM     25  C   UNL     1      29.342  55.956  43.225  1.00  0.00     0.005 C 
ATOM     26  C   UNL     1      31.507  59.230  43.021  1.00  0.00     0.031 C 
ATOM     27  C   UNL     1      30.600  56.890  43.233  1.00  0.00     0.003 C 
ATOM     28  C   UNL     1      32.661  58.805  43.887  1.00  0.00    -0.027 C 
ATOM     29  C   UNL     1      31.648  56.522  44.358  1.00  0.00    -0.008 C 
ATOM     30  C   UNL     1      32.724  57.607  44.503  1.00  0.00    -0.065 C 
ATOM     31  C   UNL     1      31.036  56.409  45.790  1.00  0.00     0.014 C 
ATOM     32  C   UNL     1      33.861  57.308  45.454  1.00  0.00     0.063 C 
ATOM     33  C   UNL     1      32.110  56.047  46.845  1.00  0.00     0.033 C 
ATOM     34  C   UNL     1      24.174  62.937  37.513  1.00  0.00     0.009 C 
ATOM     35  H   UNL     1      26.483  59.442  38.446  1.00  0.00     0.125 HD
ATOM     36  C   UNL     1      24.810  57.351  40.660  1.00  0.00     0.013 C 
ATOM     37  C   UNL     1      27.159  58.039  43.591  1.00  0.00     0.012 C 
ATOM     38  C   UNL     1      32.293  55.168  43.921  1.00  0.00     0.016 C 
BRANCH  14  39
ATOM     39  O   UNL     1      23.914  60.780  41.962  1.00  0.00    -0.389 OA
ATOM     40  H   UNL     1      24.592  60.244  42.448  1.00  0.00     0.211 HD
ENDBRANCH  14  39
ENDBRANCH   8   9
ENDBRANCH   3   8
BRANCH   5  41
ATOM     41  O   UNL     1      33.653  54.773  49.906  1.00  0.00    -0.385 OA
ATOM     42  H   UNL     1      33.146  54.466  50.706  1.00  0.00     0.211 HD
ENDBRANCH   5  41
BRANCH   6  43
ATOM     43  C   UNL     1      34.266  60.349  50.017  1.00  0.00     0.191 C 
BRANCH  43  44
ATOM     44  O   UNL     1      32.964  60.851  50.168  1.00  0.00    -0.394 OA
ATOM     45  H   UNL     1      32.768  60.851  51.141  1.00  0.00     0.210 HD
ENDBRANCH  43  44
ENDBRANCH   6  43
BRANCH   7  46
ATOM     46  O   UNL     1      32.087  56.242  51.779  1.00  0.00    -0.387 OA
ATOM     47  H   UNL     1      31.322  56.871  51.705  1.00  0.00     0.211 HD
ENDBRANCH   7  46
ENDBRANCH   1   2
BRANCH   1  48
ATOM     48  C   UNL     1      31.537  58.639  52.726  1.00  0.00     0.282 C 
ATOM     49  O   UNL     1      31.633  58.841  54.142  1.00  0.00    -0.344 OA
ATOM     50  C   UNL     1      30.303  59.278  52.005  1.00  0.00     0.209 C 
ATOM     51  C   UNL     1      30.891  59.932  54.647  1.00  0.00     0.150 C 
ATOM     52  C   UNL     1      29.117  59.097  52.956  1.00  0.00     0.180 C 
ATOM     53  C   UNL     1      29.376  59.844  54.285  1.00  0.00     0.174 C 
ATOM     54  C   UNL     1      31.576  61.266  54.289  1.00  0.00     0.041 C 
BRANCH  50  55
ATOM     55  O   UNL     1      30.069  58.576  50.788  1.00  0.00    -0.338 OA
BRANCH  55  56
ATOM     56  C   UNL     1      29.753  59.434  49.701  1.00  0.00     0.282 C 
ATOM     57  O   UNL     1      30.864  59.464  48.821  1.00  0.00    -0.344 OA
ATOM     58  C   UNL     1      28.519  58.855  48.973  1.00  0.00     0.202 C 
ATOM     59  C   UNL     1      30.643  60.339  47.726  1.00  0.00     0.150 C 
ATOM     60  C   UNL     1      28.202  59.717  47.733  1.00  0.00     0.179 C 
ATOM     61  C   UNL     1      29.463  59.830  46.859  1.00  0.00     0.174 C 
ATOM     62  C   UNL     1      31.928  60.396  46.899  1.00  0.00     0.041 C 
BRANCH  58  63
ATOM     63  O   UNL     1      27.409  58.774  49.831  1.00  0.00    -0.385 OA
ATOM     64  H   UNL     1      26.678  59.315  49.429  1.00  0.00     0.211 HD
ENDBRANCH  58  63
BRANCH  60  65
ATOM     65  O   UNL     1      27.118  59.194  47.007  1.00  0.00    -0.387 OA
ATOM     66  H   UNL     1      26.613  58.591  47.613  1.00  0.00     0.211 HD
ENDBRANCH  60  65
BRANCH  61  67
ATOM     67  O   UNL     1      29.230  60.668  45.753  1.00  0.00    -0.388 OA
ATOM     68  H   UNL     1      30.059  60.680  45.206  1.00  0.00     0.211 HD
ENDBRANCH  61  67
ENDBRANCH  55  56
ENDBRANCH  50  55
BRANCH  52  69
ATOM     69  O   UNL     1      27.887  59.480  52.398  1.00  0.00    -0.387 OA
ATOM     70  H   UNL     1      27.332  58.663  52.309  1.00  0.00     0.211 HD
ENDBRANCH  52  69
BRANCH  53  71
ATOM     71  O   UNL     1      28.634  59.227  55.309  1.00  0.00    -0.388 OA
ATOM     72  H   UNL     1      28.275  58.374  54.946  1.00  0.00     0.211 HD
ENDBRANCH  53  71
ENDBRANCH   1  48
TORSDOF 16
ENDMDL
MODEL 9
REMARK VINA RESULT:    -9.734      5.249     13.956
REMARK INTER + INTRA:         -18.855
REMARK INTER:                 -17.921
REMARK INTRA:                  -0.934
REMARK UNBOUND:                -2.577
REMARK SMILES C[C@@H]1CN[C@@]2(O[C@H]3C[C@H]4[C@@H]5CC=C6C[C@H](O[C@H]7O[C@@H](CO)[C@H](O[C@H]8O[C@@H](C)[C@H](O)[C@@H](O)[C@@H]8O[C@H]8O[C@@H](C)[C@H](O)[C@@H](O)[C@@H]8O)[C@@H](O)[C@@H]7O)CC[C@@]6(C)[C@H]5CC[C@]4(C)[C@H]3[C@@H]2C)[C@@H](O)C1
REMARK SMILES IDX 23 1 22 2 17 3 18 4 46 5 19 6 44 7 16 8 15 9 2 10 3 11 62 12
REMARK SMILES IDX 4 13 60 14 5 15 6 16 58 17 7 18 57 19 8 20 55 21 9 22 54 23
REMARK SMILES IDX 10 24 53 25 11 26 52 27 12 28 50 29 13 30 49 31 14 32 48 33
REMARK SMILES IDX 1 34 59 36 56 37 51 38 61 39 47 41 20 43 21 44 45 46 24 48
REMARK SMILES IDX 25 49 32 50 26 51 30 52 28 53 27 54 33 55 34 56 35 57 42 58
REMARK SMILES IDX 36 59 40 60 38 61 37 62 43 63 41 65 39 67 31 69 29 71
REMARK H PARENT 4 35 61 40 47 42 21 45 45 47 43 64 41 66 39 68 31 70 29 72
ROOT
ATOM      1  O   UNL     1      28.628  58.583  41.523  1.00  0.00    -0.341 OA
ENDROOT
BRANCH   1   2
ATOM      2  C   UNL     1      29.287  58.371  42.770  1.00  0.00     0.184 C 
ATOM      3  C   UNL     1      31.221  57.201  44.588  1.00  0.00     0.282 C 
ATOM      4  O   UNL     1      29.907  56.696  44.401  1.00  0.00    -0.341 OA
ATOM      5  C   UNL     1      31.341  58.683  44.144  1.00  0.00     0.202 C 
ATOM      6  C   UNL     1      29.425  56.864  43.079  1.00  0.00     0.178 C 
ATOM      7  C   UNL     1      30.722  58.939  42.762  1.00  0.00     0.180 C 
BRANCH   3   8
ATOM      8  O   UNL     1      31.422  57.204  45.984  1.00  0.00    -0.346 OA
BRANCH   8   9
ATOM      9  C   UNL     1      31.351  55.962  46.650  1.00  0.00     0.125 C 
ATOM     10  C   UNL     1      28.769  44.475  51.978  1.00  0.00     0.002 C 
ATOM     11  C   UNL     1      28.193  44.145  50.597  1.00  0.00     0.087 C 
ATOM     12  C   UNL     1      30.313  44.518  51.915  1.00  0.00     0.041 C 
ATOM     13  N   UNL     1      28.528  45.206  49.616  1.00  0.00    -0.287 NA
ATOM     14  C   UNL     1      30.829  44.972  50.531  1.00  0.00     0.162 C 
ATOM     15  C   UNL     1      29.823  45.929  49.834  1.00  0.00     0.148 C 
ATOM     16  O   UNL     1      29.619  47.090  50.636  1.00  0.00    -0.354 OA
ATOM     17  C   UNL     1      30.378  46.464  48.499  1.00  0.00     0.042 C 
ATOM     18  C   UNL     1      29.146  48.081  49.741  1.00  0.00     0.125 C 
ATOM     19  C   UNL     1      29.533  47.710  48.300  1.00  0.00     0.031 C 
ATOM     20  C   UNL     1      29.646  49.515  49.976  1.00  0.00     0.037 C 
ATOM     21  C   UNL     1      30.158  49.008  47.689  1.00  0.00    -0.024 C 
ATOM     22  C   UNL     1      29.465  50.077  48.559  1.00  0.00     0.002 C 
ATOM     23  C   UNL     1      29.760  49.257  46.219  1.00  0.00     0.008 C 
ATOM     24  C   UNL     1      29.899  51.523  48.214  1.00  0.00     0.000 C 
ATOM     25  C   UNL     1      30.184  50.673  45.775  1.00  0.00     0.005 C 
ATOM     26  C   UNL     1      29.084  52.520  49.067  1.00  0.00     0.031 C 
ATOM     27  C   UNL     1      29.600  51.784  46.714  1.00  0.00     0.003 C 
ATOM     28  C   UNL     1      29.216  53.942  48.595  1.00  0.00    -0.027 C 
ATOM     29  C   UNL     1      30.011  53.249  46.283  1.00  0.00    -0.008 C 
ATOM     30  C   UNL     1      29.647  54.277  47.362  1.00  0.00    -0.065 C 
ATOM     31  C   UNL     1      31.547  53.448  46.079  1.00  0.00     0.014 C 
ATOM     32  C   UNL     1      29.867  55.732  47.010  1.00  0.00     0.063 C 
ATOM     33  C   UNL     1      31.885  54.899  45.659  1.00  0.00     0.033 C 
ATOM     34  C   UNL     1      28.297  43.508  53.067  1.00  0.00     0.009 C 
ATOM     35  H   UNL     1      27.729  45.875  49.533  1.00  0.00     0.125 HD
ATOM     36  C   UNL     1      30.368  45.506  47.303  1.00  0.00     0.013 C 
ATOM     37  C   UNL     1      31.724  49.038  47.822  1.00  0.00     0.012 C 
ATOM     38  C   UNL     1      29.233  53.544  44.961  1.00  0.00     0.016 C 
BRANCH  14  39
ATOM     39  O   UNL     1      32.131  45.490  50.642  1.00  0.00    -0.389 OA
ATOM     40  H   UNL     1      32.373  45.872  49.759  1.00  0.00     0.211 HD
ENDBRANCH  14  39
ENDBRANCH   8   9
ENDBRANCH   3   8
BRANCH   5  41
ATOM     41  O   UNL     1      32.673  59.124  44.197  1.00  0.00    -0.385 OA
ATOM     42  H   UNL     1      32.915  59.441  43.285  1.00  0.00     0.211 HD
ENDBRANCH   5  41
BRANCH   6  43
ATOM     43  C   UNL     1      28.073  56.153  42.974  1.00  0.00     0.191 C 
BRANCH  43  44
ATOM     44  O   UNL     1      27.989  55.426  41.777  1.00  0.00    -0.394 OA
ATOM     45  H   UNL     1      27.284  54.740  41.907  1.00  0.00     0.210 HD
ENDBRANCH  43  44
ENDBRANCH   6  43
BRANCH   7  46
ATOM     46  O   UNL     1      30.749  60.311  42.461  1.00  0.00    -0.387 OA
ATOM     47  H   UNL     1      30.062  60.758  43.021  1.00  0.00     0.211 HD
ENDBRANCH   7  46
ENDBRANCH   1   2
BRANCH   1  48
ATOM     48  C   UNL     1      27.674  59.643  41.589  1.00  0.00     0.282 C 
ATOM     49  O   UNL     1      26.882  59.662  40.395  1.00  0.00    -0.344 OA
ATOM     50  C   UNL     1      26.898  59.606  42.949  1.00  0.00     0.209 C 
ATOM     51  C   UNL     1      25.555  59.200  40.544  1.00  0.00     0.150 C 
ATOM     52  C   UNL     1      25.683  60.520  42.768  1.00  0.00     0.180 C 
ATOM     53  C   UNL     1      24.769  59.980  41.642  1.00  0.00     0.174 C 
ATOM     54  C   UNL     1      25.528  57.664  40.682  1.00  0.00     0.041 C 
BRANCH  50  55
ATOM     55  O   UNL     1      27.747  60.114  43.974  1.00  0.00    -0.338 OA
BRANCH  55  56
ATOM     56  C   UNL     1      27.264  59.843  45.282  1.00  0.00     0.282 C 
ATOM     57  O   UNL     1      27.065  58.444  45.401  1.00  0.00    -0.344 OA
ATOM     58  C   UNL     1      28.331  60.312  46.297  1.00  0.00     0.202 C 
ATOM     59  C   UNL     1      26.539  58.095  46.672  1.00  0.00     0.150 C 
ATOM     60  C   UNL     1      27.875  59.952  47.727  1.00  0.00     0.179 C 
ATOM     61  C   UNL     1      27.551  58.449  47.791  1.00  0.00     0.174 C 
ATOM     62  C   UNL     1      26.249  56.594  46.668  1.00  0.00     0.041 C 
BRANCH  58  63
ATOM     63  O   UNL     1      28.581  61.689  46.178  1.00  0.00    -0.385 OA
ATOM     64  H   UNL     1      27.931  62.165  46.758  1.00  0.00     0.211 HD
ENDBRANCH  58  63
BRANCH  60  65
ATOM     65  O   UNL     1      28.843  60.310  48.681  1.00  0.00    -0.387 OA
ATOM     66  H   UNL     1      28.364  60.582  49.507  1.00  0.00     0.211 HD
ENDBRANCH  60  65
BRANCH  61  67
ATOM     67  O   UNL     1      27.065  58.097  49.064  1.00  0.00    -0.388 OA
ATOM     68  H   UNL     1      26.921  57.115  49.069  1.00  0.00     0.211 HD
ENDBRANCH  61  67
ENDBRANCH  55  56
ENDBRANCH  50  55
BRANCH  52  69
ATOM     69  O   UNL     1      24.954  60.724  43.950  1.00  0.00    -0.387 OA
ATOM     70  H   UNL     1      25.607  60.877  44.681  1.00  0.00     0.211 HD
ENDBRANCH  52  69
BRANCH  53  71
ATOM     71  O   UNL     1      24.038  61.050  41.094  1.00  0.00    -0.388 OA
ATOM     72  H   UNL     1      23.472  61.428  41.820  1.00  0.00     0.211 HD
ENDBRANCH  53  71
ENDBRANCH   1  48
TORSDOF 16
ENDMDL
