MODEL 1
REMARK VINA RESULT:   -13.120      0.000      0.000
REMARK INTER + INTRA:         -24.065
REMARK INTER:                 -22.707
REMARK INTRA:                  -1.357
REMARK UNBOUND:                -1.357
REMARK SMILES CC(=O)O[C@@H]1C[C@@H](O[C@H]2[C@@H](O)C[C@@H](OC[C@@H]3C[C@@H](O)C[C@H](O[C@H]4CC[C@]5(C)[C@@H](CC[C@@H]6[C@@H]5C[C@@H](O)[C@@]5(C)[C@H](C7=CC(=O)OC7)CC[C@@]65O)C4)O3)O[C@@H]2C)O[C@H](C)[C@@H]1O
REMARK SMILES IDX 14 1 13 2 9 3 10 4 52 5 12 6 51 7 53 8 8 9 7 10 5 11 6 12
REMARK SMILES IDX 57 13 55 14 54 15 56 16 4 17 2 18 3 19 1 20 58 21 11 23
REMARK SMILES IDX 15 25 16 26 17 27 50 28 18 29 21 30 20 31 19 32 22 34 23 35
REMARK SMILES IDX 24 36 49 37 25 38 28 39 26 40 29 41 32 42 30 43 31 44 33 45
REMARK SMILES IDX 47 46 34 47 46 48 36 49 45 50 38 51 27 52 37 53 48 54 35 56
REMARK SMILES IDX 39 58 40 59 44 60 41 61 43 62 42 63
REMARK H PARENT 58 22 11 24 19 33 48 55 35 57
ROOT
ATOM      1  O   UNL     1      28.870  58.858  45.358  1.00  0.00    -0.350 OA
ENDROOT
BRANCH   1   2
ATOM      2  C   UNL     1      28.939  57.885  46.383  1.00  0.00     0.253 C 
ATOM      3  C   UNL     1      28.499  56.277  48.562  1.00  0.00     0.179 C 
ATOM      4  C   UNL     1      27.205  56.787  47.939  1.00  0.00     0.151 C 
ATOM      5  C   UNL     1      29.498  57.473  48.655  1.00  0.00     0.150 C 
ATOM      6  C   UNL     1      27.519  57.269  46.501  1.00  0.00     0.096 C 
ATOM      7  O   UNL     1      29.350  58.455  47.615  1.00  0.00    -0.347 OA
ATOM      8  C   UNL     1      30.946  56.973  48.734  1.00  0.00     0.041 C 
BRANCH   3   9
ATOM      9  O   UNL     1      28.240  55.741  49.864  1.00  0.00    -0.344 OA
BRANCH   9  10
ATOM     10  C   UNL     1      28.809  54.452  50.056  1.00  0.00     0.254 C 
ATOM     11  C   UNL     1      27.119  52.955  48.797  1.00  0.00     0.212 C 
ATOM     12  C   UNL     1      28.523  53.556  48.824  1.00  0.00     0.110 C 
ATOM     13  C   UNL     1      26.692  52.524  50.226  1.00  0.00     0.184 C 
ATOM     14  C   UNL     1      27.784  52.661  51.324  1.00  0.00     0.150 C 
ATOM     15  O   UNL     1      28.374  53.954  51.323  1.00  0.00    -0.347 OA
ATOM     16  C   UNL     1      28.870  51.572  51.404  1.00  0.00     0.042 C 
BRANCH  11  17
ATOM     17  O   UNL     1      27.141  51.868  47.934  1.00  0.00    -0.459 OA
BRANCH  17  18
ATOM     18  C   UNL     1      28.118  50.928  47.844  1.00  0.00     0.302 C 
ATOM     19  O   UNL     1      28.097  49.923  48.538  1.00  0.00    -0.253 OA
ATOM     20  C   UNL     1      29.242  51.146  46.877  1.00  0.00     0.139 C 
ENDBRANCH  17  18
ENDBRANCH  11  17
BRANCH  13  21
ATOM     21  O   UNL     1      26.038  51.277  50.254  1.00  0.00    -0.387 OA
ATOM     22  H   UNL     1      25.896  50.994  49.314  1.00  0.00     0.211 HD
ENDBRANCH  13  21
ENDBRANCH   9  10
ENDBRANCH   3   9
BRANCH   4  23
ATOM     23  O   UNL     1      26.659  57.812  48.743  1.00  0.00    -0.390 OA
ATOM     24  H   UNL     1      25.913  57.449  49.289  1.00  0.00     0.211 HD
ENDBRANCH   4  23
ENDBRANCH   1   2
BRANCH   1  25
ATOM     25  C   UNL     1      27.619  58.900  44.697  1.00  0.00     0.195 C 
BRANCH  25  26
ATOM     26  C   UNL     1      27.787  58.902  43.173  1.00  0.00     0.150 C 
ATOM     27  C   UNL     1      28.323  60.278  42.719  1.00  0.00     0.066 C 
ATOM     28  O   UNL     1      26.515  58.610  42.588  1.00  0.00    -0.347 OA
ATOM     29  C   UNL     1      28.535  60.305  41.191  1.00  0.00     0.122 C 
ATOM     30  C   UNL     1      26.330  59.062  41.246  1.00  0.00     0.253 C 
ATOM     31  C   UNL     1      27.656  59.258  40.490  1.00  0.00     0.094 C 
BRANCH  29  32
ATOM     32  O   UNL     1      29.882  60.103  40.843  1.00  0.00    -0.393 OA
ATOM     33  H   UNL     1      30.276  59.483  41.511  1.00  0.00     0.210 HD
ENDBRANCH  29  32
BRANCH  30  34
ATOM     34  O   UNL     1      25.571  60.265  41.278  1.00  0.00    -0.349 OA
BRANCH  34  35
ATOM     35  C   UNL     1      25.177  60.708  39.987  1.00  0.00     0.121 C 
ATOM     36  C   UNL     1      24.115  59.786  39.415  1.00  0.00     0.033 C 
ATOM     37  C   UNL     1      24.626  62.162  40.071  1.00  0.00     0.036 C 
ATOM     38  C   UNL     1      23.743  60.223  37.964  1.00  0.00     0.010 C 
ATOM     39  C   UNL     1      23.573  62.555  38.982  1.00  0.00    -0.002 C 
ATOM     40  C   UNL     1      23.805  61.774  37.657  1.00  0.00    -0.026 C 
ATOM     41  C   UNL     1      22.111  62.360  39.475  1.00  0.00     0.005 C 
ATOM     42  C   UNL     1      22.731  62.202  36.578  1.00  0.00     0.004 C 
ATOM     43  C   UNL     1      21.138  62.919  38.443  1.00  0.00     0.007 C 
ATOM     44  C   UNL     1      21.258  62.189  37.079  1.00  0.00     0.025 C 
ATOM     45  C   UNL     1      22.886  61.401  35.240  1.00  0.00     0.037 C 
ATOM     46  C   UNL     1      20.320  62.871  35.993  1.00  0.00     0.076 C 
ATOM     47  C   UNL     1      21.545  61.119  34.520  1.00  0.00     0.124 C 
ATOM     48  C   UNL     1      18.814  62.513  36.224  1.00  0.00     0.037 C 
ATOM     49  C   UNL     1      20.623  62.394  34.505  1.00  0.00     0.029 C 
ATOM     50  C   UNL     1      18.414  61.561  35.103  1.00  0.00     0.012 C 
ATOM     51  C   UNL     1      19.217  62.062  33.897  1.00  0.00     0.030 C 
ATOM     52  C   UNL     1      25.197  62.183  37.074  1.00  0.00     0.012 C 
ATOM     53  C   UNL     1      21.377  63.451  33.633  1.00  0.00     0.018 C 
BRANCH  46  54
ATOM     54  O   UNL     1      20.492  64.276  36.046  1.00  0.00    -0.389 OA
ATOM     55  H   UNL     1      20.810  64.541  36.948  1.00  0.00     0.211 HD
ENDBRANCH  46  54
BRANCH  47  56
ATOM     56  O   UNL     1      20.919  60.034  35.156  1.00  0.00    -0.392 OA
ATOM     57  H   UNL     1      21.049  60.143  36.136  1.00  0.00     0.210 HD
ENDBRANCH  47  56
BRANCH  51  58
ATOM     58  C   UNL     1      18.511  63.234  33.191  1.00  0.00    -0.022 C 
ATOM     59  C   UNL     1      18.239  63.215  31.890  1.00  0.00     0.096 C 
ATOM     60  C   UNL     1      18.020  64.557  33.763  1.00  0.00     0.265 C 
ATOM     61  C   UNL     1      17.613  64.474  31.583  1.00  0.00     0.331 C 
ATOM     62  O   UNL     1      17.501  65.236  32.678  1.00  0.00    -0.458 OA
ATOM     63  O   UNL     1      17.236  64.822  30.475  1.00  0.00    -0.247 OA
ENDBRANCH  51  58
ENDBRANCH  34  35
ENDBRANCH  30  34
ENDBRANCH  25  26
ENDBRANCH   1  25
TORSDOF 15
ENDMDL
MODEL 2
REMARK VINA RESULT:   -12.671      2.683      4.741
REMARK INTER + INTRA:         -23.288
REMARK INTER:                 -21.654
REMARK INTRA:                  -1.634
REMARK UNBOUND:                -1.357
REMARK SMILES CC(=O)O[C@@H]1C[C@@H](O[C@H]2[C@@H](O)C[C@@H](OC[C@@H]3C[C@@H](O)C[C@H](O[C@H]4CC[C@]5(C)[C@@H](CC[C@@H]6[C@@H]5C[C@@H](O)[C@@]5(C)[C@H](C7=CC(=O)OC7)CC[C@@]65O)C4)O3)O[C@@H]2C)O[C@H](C)[C@@H]1O
REMARK SMILES IDX 14 1 13 2 9 3 10 4 52 5 12 6 51 7 53 8 8 9 7 10 5 11 6 12
REMARK SMILES IDX 57 13 55 14 54 15 56 16 4 17 2 18 3 19 1 20 58 21 11 23
REMARK SMILES IDX 15 25 16 26 17 27 50 28 18 29 21 30 20 31 19 32 22 34 23 35
REMARK SMILES IDX 24 36 49 37 25 38 28 39 26 40 29 41 32 42 30 43 31 44 33 45
REMARK SMILES IDX 47 46 34 47 46 48 36 49 45 50 38 51 27 52 37 53 48 54 35 56
REMARK SMILES IDX 39 58 40 59 44 60 41 61 43 62 42 63
REMARK H PARENT 58 22 11 24 19 33 48 55 35 57
ROOT
ATOM      1  O   UNL     1      25.470  57.445  46.036  1.00  0.00    -0.350 OA
ENDROOT
BRANCH   1   2
ATOM      2  C   UNL     1      26.302  57.643  47.163  1.00  0.00     0.253 C 
ATOM      3  C   UNL     1      28.179  58.509  48.968  1.00  0.00     0.179 C 
ATOM      4  C   UNL     1      27.712  59.616  48.031  1.00  0.00     0.151 C 
ATOM      5  C   UNL     1      28.439  57.228  48.114  1.00  0.00     0.150 C 
ATOM      6  C   UNL     1      26.370  59.177  47.396  1.00  0.00     0.096 C 
ATOM      7  O   UNL     1      27.597  57.103  46.956  1.00  0.00    -0.347 OA
ATOM      8  C   UNL     1      28.367  55.966  48.983  1.00  0.00     0.041 C 
BRANCH   3   9
ATOM      9  O   UNL     1      29.376  58.909  49.645  1.00  0.00    -0.344 OA
BRANCH   9  10
ATOM     10  C   UNL     1      29.122  59.531  50.898  1.00  0.00     0.254 C 
ATOM     11  C   UNL     1      31.429  60.567  51.432  1.00  0.00     0.212 C 
ATOM     12  C   UNL     1      29.975  60.817  51.037  1.00  0.00     0.110 C 
ATOM     13  C   UNL     1      31.510  59.426  52.483  1.00  0.00     0.184 C 
ATOM     14  C   UNL     1      30.145  58.887  52.997  1.00  0.00     0.150 C 
ATOM     15  O   UNL     1      29.275  58.549  51.925  1.00  0.00    -0.347 OA
ATOM     16  C   UNL     1      29.397  59.709  54.062  1.00  0.00     0.042 C 
BRANCH  11  17
ATOM     17  O   UNL     1      31.938  61.753  51.944  1.00  0.00    -0.459 OA
BRANCH  17  18
ATOM     18  C   UNL     1      32.734  62.639  51.290  1.00  0.00     0.302 C 
ATOM     19  O   UNL     1      33.309  63.536  51.887  1.00  0.00    -0.253 OA
ATOM     20  C   UNL     1      32.892  62.508  49.805  1.00  0.00     0.139 C 
ENDBRANCH  17  18
ENDBRANCH  11  17
BRANCH  13  21
ATOM     21  O   UNL     1      32.420  59.698  53.523  1.00  0.00    -0.387 OA
ATOM     22  H   UNL     1      32.054  59.294  54.352  1.00  0.00     0.211 HD
ENDBRANCH  13  21
ENDBRANCH   9  10
ENDBRANCH   3   9
BRANCH   4  23
ATOM     23  O   UNL     1      28.707  59.875  47.063  1.00  0.00    -0.390 OA
ATOM     24  H   UNL     1      29.199  60.705  47.300  1.00  0.00     0.211 HD
ENDBRANCH   4  23
ENDBRANCH   1   2
BRANCH   1  25
ATOM     25  C   UNL     1      25.399  58.568  45.178  1.00  0.00     0.195 C 
BRANCH  25  26
ATOM     26  C   UNL     1      25.912  58.235  43.771  1.00  0.00     0.150 C 
ATOM     27  C   UNL     1      27.242  58.979  43.522  1.00  0.00     0.066 C 
ATOM     28  O   UNL     1      24.905  58.620  42.831  1.00  0.00    -0.347 OA
ATOM     29  C   UNL     1      27.805  58.641  42.126  1.00  0.00     0.122 C 
ATOM     30  C   UNL     1      25.362  58.879  41.503  1.00  0.00     0.253 C 
ATOM     31  C   UNL     1      26.690  58.174  41.176  1.00  0.00     0.094 C 
BRANCH  29  32
ATOM     32  O   UNL     1      28.814  57.665  42.187  1.00  0.00    -0.393 OA
ATOM     33  H   UNL     1      29.487  57.970  42.852  1.00  0.00     0.210 HD
ENDBRANCH  29  32
BRANCH  30  34
ATOM     34  O   UNL     1      25.469  60.288  41.332  1.00  0.00    -0.349 OA
BRANCH  34  35
ATOM     35  C   UNL     1      25.091  60.720  40.032  1.00  0.00     0.121 C 
ATOM     36  C   UNL     1      24.022  59.805  39.464  1.00  0.00     0.033 C 
ATOM     37  C   UNL     1      24.558  62.182  40.095  1.00  0.00     0.036 C 
ATOM     38  C   UNL     1      23.667  60.229  38.005  1.00  0.00     0.010 C 
ATOM     39  C   UNL     1      23.519  62.575  38.993  1.00  0.00    -0.002 C 
ATOM     40  C   UNL     1      23.751  61.776  37.679  1.00  0.00    -0.026 C 
ATOM     41  C   UNL     1      22.051  62.406  39.477  1.00  0.00     0.005 C 
ATOM     42  C   UNL     1      22.691  62.205  36.587  1.00  0.00     0.004 C 
ATOM     43  C   UNL     1      21.093  62.965  38.431  1.00  0.00     0.007 C 
ATOM     44  C   UNL     1      21.214  62.216  37.076  1.00  0.00     0.025 C 
ATOM     45  C   UNL     1      22.845  61.385  35.260  1.00  0.00     0.037 C 
ATOM     46  C   UNL     1      20.293  62.898  35.975  1.00  0.00     0.076 C 
ATOM     47  C   UNL     1      21.506  61.112  34.533  1.00  0.00     0.124 C 
ATOM     48  C   UNL     1      18.781  62.562  36.199  1.00  0.00     0.037 C 
ATOM     49  C   UNL     1      20.602  62.399  34.496  1.00  0.00     0.029 C 
ATOM     50  C   UNL     1      18.377  61.602  35.086  1.00  0.00     0.012 C 
ATOM     51  C   UNL     1      19.196  62.078  33.881  1.00  0.00     0.030 C 
ATOM     52  C   UNL     1      25.153  62.159  37.102  1.00  0.00     0.012 C 
ATOM     53  C   UNL     1      21.376  63.435  33.617  1.00  0.00     0.018 C 
BRANCH  46  54
ATOM     54  O   UNL     1      20.483  64.301  36.012  1.00  0.00    -0.389 OA
ATOM     55  H   UNL     1      20.314  64.685  35.113  1.00  0.00     0.211 HD
ENDBRANCH  46  54
BRANCH  47  56
ATOM     56  O   UNL     1      20.862  60.043  35.177  1.00  0.00    -0.392 OA
ATOM     57  H   UNL     1      21.016  59.226  34.632  1.00  0.00     0.210 HD
ENDBRANCH  47  56
BRANCH  51  58
ATOM     58  C   UNL     1      18.511  63.250  33.155  1.00  0.00    -0.022 C 
ATOM     59  C   UNL     1      18.320  63.252  31.840  1.00  0.00     0.096 C 
ATOM     60  C   UNL     1      17.958  64.552  33.721  1.00  0.00     0.265 C 
ATOM     61  C   UNL     1      17.688  64.506  31.518  1.00  0.00     0.331 C 
ATOM     62  O   UNL     1      17.494  65.242  32.619  1.00  0.00    -0.458 OA
ATOM     63  O   UNL     1      17.373  64.868  30.397  1.00  0.00    -0.247 OA
ENDBRANCH  51  58
ENDBRANCH  34  35
ENDBRANCH  30  34
ENDBRANCH  25  26
ENDBRANCH   1  25
TORSDOF 15
ENDMDL
MODEL 3
REMARK VINA RESULT:   -12.544      2.824      4.485
REMARK INTER + INTRA:         -23.068
REMARK INTER:                 -21.600
REMARK INTRA:                  -1.468
REMARK UNBOUND:                -1.357
REMARK SMILES CC(=O)O[C@@H]1C[C@@H](O[C@H]2[C@@H](O)C[C@@H](OC[C@@H]3C[C@@H](O)C[C@H](O[C@H]4CC[C@]5(C)[C@@H](CC[C@@H]6[C@@H]5C[C@@H](O)[C@@]5(C)[C@H](C7=CC(=O)OC7)CC[C@@]65O)C4)O3)O[C@@H]2C)O[C@H](C)[C@@H]1O
REMARK SMILES IDX 14 1 13 2 9 3 10 4 52 5 12 6 51 7 53 8 8 9 7 10 5 11 6 12
REMARK SMILES IDX 57 13 55 14 54 15 56 16 4 17 2 18 3 19 1 20 58 21 11 23
REMARK SMILES IDX 15 25 16 26 17 27 50 28 18 29 21 30 20 31 19 32 22 34 23 35
REMARK SMILES IDX 24 36 49 37 25 38 28 39 26 40 29 41 32 42 30 43 31 44 33 45
REMARK SMILES IDX 47 46 34 47 46 48 36 49 45 50 38 51 27 52 37 53 48 54 35 56
REMARK SMILES IDX 39 58 40 59 44 60 41 61 43 62 42 63
REMARK H PARENT 58 22 11 24 19 33 48 55 35 57
ROOT
ATOM      1  O   UNL     1      25.902  57.420  45.976  1.00  0.00    -0.350 OA
ENDROOT
BRANCH   1   2
ATOM      2  C   UNL     1      26.877  57.726  46.956  1.00  0.00     0.253 C 
ATOM      3  C   UNL     1      28.765  58.915  48.552  1.00  0.00     0.179 C 
ATOM      4  C   UNL     1      27.765  59.914  47.984  1.00  0.00     0.151 C 
ATOM      5  C   UNL     1      29.199  57.954  47.401  1.00  0.00     0.150 C 
ATOM      6  C   UNL     1      26.516  59.131  47.510  1.00  0.00     0.096 C 
ATOM      7  O   UNL     1      28.186  57.716  46.409  1.00  0.00    -0.347 OA
ATOM      8  C   UNL     1      29.735  56.631  47.964  1.00  0.00     0.041 C 
BRANCH   3   9
ATOM      9  O   UNL     1      29.903  59.604  49.082  1.00  0.00    -0.344 OA
BRANCH   9  10
ATOM     10  C   UNL     1      30.389  59.027  50.287  1.00  0.00     0.254 C 
ATOM     11  C   UNL     1      29.787  60.858  52.010  1.00  0.00     0.212 C 
ATOM     12  C   UNL     1      29.496  59.455  51.480  1.00  0.00     0.110 C 
ATOM     13  C   UNL     1      31.317  61.125  52.008  1.00  0.00     0.184 C 
ATOM     14  C   UNL     1      32.211  59.916  51.613  1.00  0.00     0.150 C 
ATOM     15  O   UNL     1      31.783  59.320  50.394  1.00  0.00    -0.347 OA
ATOM     16  C   UNL     1      32.479  58.836  52.676  1.00  0.00     0.042 C 
BRANCH  11  17
ATOM     17  O   UNL     1      29.269  60.940  53.295  1.00  0.00    -0.459 OA
BRANCH  17  18
ATOM     18  C   UNL     1      28.669  59.938  53.990  1.00  0.00     0.302 C 
ATOM     19  O   UNL     1      27.455  59.801  53.986  1.00  0.00    -0.253 OA
ATOM     20  C   UNL     1      29.525  58.995  54.781  1.00  0.00     0.139 C 
ENDBRANCH  17  18
ENDBRANCH  11  17
BRANCH  13  21
ATOM     21  O   UNL     1      31.764  61.780  53.172  1.00  0.00    -0.387 OA
ATOM     22  H   UNL     1      32.635  61.378  53.425  1.00  0.00     0.211 HD
ENDBRANCH  13  21
ENDBRANCH   9  10
ENDBRANCH   3   9
BRANCH   4  23
ATOM     23  O   UNL     1      28.366  60.651  46.939  1.00  0.00    -0.390 OA
ATOM     24  H   UNL     1      29.090  61.224  47.306  1.00  0.00     0.211 HD
ENDBRANCH   4  23
ENDBRANCH   1   2
BRANCH   1  25
ATOM     25  C   UNL     1      25.586  58.508  45.129  1.00  0.00     0.195 C 
BRANCH  25  26
ATOM     26  C   UNL     1      26.137  58.300  43.713  1.00  0.00     0.150 C 
ATOM     27  C   UNL     1      27.338  59.246  43.487  1.00  0.00     0.066 C 
ATOM     28  O   UNL     1      25.079  58.556  42.786  1.00  0.00    -0.347 OA
ATOM     29  C   UNL     1      27.939  59.040  42.082  1.00  0.00     0.122 C 
ATOM     30  C   UNL     1      25.485  58.922  41.466  1.00  0.00     0.253 C 
ATOM     31  C   UNL     1      26.904  58.438  41.118  1.00  0.00     0.094 C 
BRANCH  29  32
ATOM     32  O   UNL     1      29.086  58.228  42.114  1.00  0.00    -0.393 OA
ATOM     33  H   UNL     1      28.974  57.523  41.423  1.00  0.00     0.210 HD
ENDBRANCH  29  32
BRANCH  30  34
ATOM     34  O   UNL     1      25.376  60.336  41.339  1.00  0.00    -0.349 OA
BRANCH  34  35
ATOM     35  C   UNL     1      25.007  60.748  40.030  1.00  0.00     0.121 C 
ATOM     36  C   UNL     1      23.932  59.833  39.473  1.00  0.00     0.033 C 
ATOM     37  C   UNL     1      24.487  62.216  40.065  1.00  0.00     0.036 C 
ATOM     38  C   UNL     1      23.586  60.235  38.006  1.00  0.00     0.010 C 
ATOM     39  C   UNL     1      23.456  62.599  38.952  1.00  0.00    -0.002 C 
ATOM     40  C   UNL     1      23.686  61.775  37.654  1.00  0.00    -0.026 C 
ATOM     41  C   UNL     1      21.985  62.451  39.434  1.00  0.00     0.005 C 
ATOM     42  C   UNL     1      22.634  62.194  36.550  1.00  0.00     0.004 C 
ATOM     43  C   UNL     1      21.036  63.000  38.374  1.00  0.00     0.007 C 
ATOM     44  C   UNL     1      21.156  62.227  37.033  1.00  0.00     0.025 C 
ATOM     45  C   UNL     1      22.786  61.350  35.238  1.00  0.00     0.037 C 
ATOM     46  C   UNL     1      20.245  62.898  35.917  1.00  0.00     0.076 C 
ATOM     47  C   UNL     1      21.448  61.076  34.511  1.00  0.00     0.124 C 
ATOM     48  C   UNL     1      18.729  62.579  36.140  1.00  0.00     0.037 C 
ATOM     49  C   UNL     1      20.555  62.371  34.447  1.00  0.00     0.029 C 
ATOM     50  C   UNL     1      18.321  61.604  35.043  1.00  0.00     0.012 C 
ATOM     51  C   UNL     1      19.149  62.051  33.832  1.00  0.00     0.030 C 
ATOM     52  C   UNL     1      25.093  62.136  37.076  1.00  0.00     0.012 C 
ATOM     53  C   UNL     1      21.341  63.384  33.553  1.00  0.00     0.018 C 
BRANCH  46  54
ATOM     54  O   UNL     1      20.447  64.300  35.930  1.00  0.00    -0.389 OA
ATOM     55  H   UNL     1      19.855  64.729  35.260  1.00  0.00     0.211 HD
ENDBRANCH  46  54
BRANCH  47  56
ATOM     56  O   UNL     1      20.791  60.025  35.170  1.00  0.00    -0.392 OA
ATOM     57  H   UNL     1      21.318  59.196  35.015  1.00  0.00     0.210 HD
ENDBRANCH  47  56
BRANCH  51  58
ATOM     58  C   UNL     1      18.476  63.216  33.083  1.00  0.00    -0.022 C 
ATOM     59  C   UNL     1      18.310  63.207  31.765  1.00  0.00     0.096 C 
ATOM     60  C   UNL     1      17.914  64.523  33.627  1.00  0.00     0.265 C 
ATOM     61  C   UNL     1      17.684  64.457  31.421  1.00  0.00     0.331 C 
ATOM     62  O   UNL     1      17.469  65.204  32.511  1.00  0.00    -0.458 OA
ATOM     63  O   UNL     1      17.389  64.809  30.291  1.00  0.00    -0.247 OA
ENDBRANCH  51  58
ENDBRANCH  34  35
ENDBRANCH  30  34
ENDBRANCH  25  26
ENDBRANCH   1  25
TORSDOF 15
ENDMDL
MODEL 4
REMARK VINA RESULT:   -12.518      1.726      3.118
REMARK INTER + INTRA:         -23.022
REMARK INTER:                 -21.701
REMARK INTRA:                  -1.322
REMARK UNBOUND:                -1.357
REMARK SMILES CC(=O)O[C@@H]1C[C@@H](O[C@H]2[C@@H](O)C[C@@H](OC[C@@H]3C[C@@H](O)C[C@H](O[C@H]4CC[C@]5(C)[C@@H](CC[C@@H]6[C@@H]5C[C@@H](O)[C@@]5(C)[C@H](C7=CC(=O)OC7)CC[C@@]65O)C4)O3)O[C@@H]2C)O[C@H](C)[C@@H]1O
REMARK SMILES IDX 14 1 13 2 9 3 10 4 52 5 12 6 51 7 53 8 8 9 7 10 5 11 6 12
REMARK SMILES IDX 57 13 55 14 54 15 56 16 4 17 2 18 3 19 1 20 58 21 11 23
REMARK SMILES IDX 15 25 16 26 17 27 50 28 18 29 21 30 20 31 19 32 22 34 23 35
REMARK SMILES IDX 24 36 49 37 25 38 28 39 26 40 29 41 32 42 30 43 31 44 33 45
REMARK SMILES IDX 47 46 34 47 46 48 36 49 45 50 38 51 27 52 37 53 48 54 35 56
REMARK SMILES IDX 39 58 40 59 44 60 41 61 43 62 42 63
REMARK H PARENT 58 22 11 24 19 33 48 55 35 57
ROOT
ATOM      1  O   UNL     1      29.110  58.433  43.255  1.00  0.00    -0.350 OA
ENDROOT
BRANCH   1   2
ATOM      2  C   UNL     1      28.960  57.480  44.291  1.00  0.00     0.253 C 
ATOM      3  C   UNL     1      28.116  55.473  45.960  1.00  0.00     0.179 C 
ATOM      4  C   UNL     1      27.673  55.261  44.517  1.00  0.00     0.151 C 
ATOM      5  C   UNL     1      27.858  56.967  46.332  1.00  0.00     0.150 C 
ATOM      6  C   UNL     1      28.558  56.146  43.606  1.00  0.00     0.096 C 
ATOM      7  O   UNL     1      27.978  57.884  45.232  1.00  0.00    -0.347 OA
ATOM      8  C   UNL     1      28.746  57.400  47.506  1.00  0.00     0.041 C 
BRANCH   3   9
ATOM      9  O   UNL     1      27.381  54.607  46.833  1.00  0.00    -0.344 OA
BRANCH   9  10
ATOM     10  C   UNL     1      28.200  53.987  47.816  1.00  0.00     0.254 C 
ATOM     11  C   UNL     1      28.776  51.747  46.661  1.00  0.00     0.212 C 
ATOM     12  C   UNL     1      29.280  53.110  47.132  1.00  0.00     0.110 C 
ATOM     13  C   UNL     1      27.791  51.150  47.702  1.00  0.00     0.184 C 
ATOM     14  C   UNL     1      27.628  51.963  49.018  1.00  0.00     0.150 C 
ATOM     15  O   UNL     1      27.349  53.333  48.759  1.00  0.00    -0.347 OA
ATOM     16  C   UNL     1      28.722  51.827  50.092  1.00  0.00     0.042 C 
BRANCH  11  17
ATOM     17  O   UNL     1      29.881  50.923  46.492  1.00  0.00    -0.459 OA
BRANCH  17  18
ATOM     18  C   UNL     1      30.063  50.008  45.504  1.00  0.00     0.302 C 
ATOM     19  O   UNL     1      29.764  48.835  45.664  1.00  0.00    -0.253 OA
ATOM     20  C   UNL     1      30.652  50.459  44.202  1.00  0.00     0.139 C 
ENDBRANCH  17  18
ENDBRANCH  11  17
BRANCH  13  21
ATOM     21  O   UNL     1      27.993  49.775  47.928  1.00  0.00    -0.387 OA
ATOM     22  H   UNL     1      28.120  49.648  48.904  1.00  0.00     0.211 HD
ENDBRANCH  13  21
ENDBRANCH   9  10
ENDBRANCH   3   9
BRANCH   4  23
ATOM     23  O   UNL     1      26.299  55.561  44.389  1.00  0.00    -0.390 OA
ATOM     24  H   UNL     1      25.793  54.734  44.173  1.00  0.00     0.211 HD
ENDBRANCH   4  23
ENDBRANCH   1   2
BRANCH   1  25
ATOM     25  C   UNL     1      28.280  58.191  42.136  1.00  0.00     0.195 C 
BRANCH  25  26
ATOM     26  C   UNL     1      26.952  58.950  42.244  1.00  0.00     0.150 C 
ATOM     27  C   UNL     1      25.787  57.995  41.901  1.00  0.00     0.066 C 
ATOM     28  O   UNL     1      27.005  60.063  41.347  1.00  0.00    -0.347 OA
ATOM     29  C   UNL     1      24.430  58.718  42.032  1.00  0.00     0.122 C 
ATOM     30  C   UNL     1      25.743  60.573  40.914  1.00  0.00     0.253 C 
ATOM     31  C   UNL     1      24.595  60.239  41.884  1.00  0.00     0.094 C 
BRANCH  29  32
ATOM     32  O   UNL     1      23.794  58.427  43.251  1.00  0.00    -0.393 OA
ATOM     33  H   UNL     1      24.482  58.071  43.872  1.00  0.00     0.210 HD
ENDBRANCH  29  32
BRANCH  30  34
ATOM     34  O   UNL     1      25.480  60.069  39.609  1.00  0.00    -0.349 OA
BRANCH  34  35
ATOM     35  C   UNL     1      24.194  60.430  39.124  1.00  0.00     0.121 C 
ATOM     36  C   UNL     1      24.180  61.887  38.700  1.00  0.00     0.033 C 
ATOM     37  C   UNL     1      23.811  59.524  37.917  1.00  0.00     0.036 C 
ATOM     38  C   UNL     1      22.748  62.305  38.246  1.00  0.00     0.010 C 
ATOM     39  C   UNL     1      22.830  60.157  36.875  1.00  0.00    -0.002 C 
ATOM     40  C   UNL     1      21.876  61.187  37.543  1.00  0.00    -0.026 C 
ATOM     41  C   UNL     1      23.579  60.811  35.679  1.00  0.00     0.005 C 
ATOM     42  C   UNL     1      20.894  61.799  36.465  1.00  0.00     0.004 C 
ATOM     43  C   UNL     1      22.576  61.254  34.620  1.00  0.00     0.007 C 
ATOM     44  C   UNL     1      21.584  62.314  35.169  1.00  0.00     0.025 C 
ATOM     45  C   UNL     1      19.947  62.888  37.078  1.00  0.00     0.037 C 
ATOM     46  C   UNL     1      20.480  62.665  34.081  1.00  0.00     0.076 C 
ATOM     47  C   UNL     1      19.602  64.038  36.102  1.00  0.00     0.124 C 
ATOM     48  C   UNL     1      21.057  63.573  32.944  1.00  0.00     0.037 C 
ATOM     49  C   UNL     1      19.252  63.489  34.670  1.00  0.00     0.029 C 
ATOM     50  C   UNL     1      20.451  64.957  33.140  1.00  0.00     0.012 C 
ATOM     51  C   UNL     1      19.037  64.665  33.656  1.00  0.00     0.030 C 
ATOM     52  C   UNL     1      20.975  60.436  38.577  1.00  0.00     0.012 C 
ATOM     53  C   UNL     1      17.942  62.653  34.845  1.00  0.00     0.018 C 
BRANCH  46  54
ATOM     54  O   UNL     1      19.975  61.464  33.525  1.00  0.00    -0.389 OA
ATOM     55  H   UNL     1      19.359  61.676  32.777  1.00  0.00     0.211 HD
ENDBRANCH  46  54
BRANCH  47  56
ATOM     56  O   UNL     1      20.686  64.930  36.065  1.00  0.00    -0.392 OA
ATOM     57  H   UNL     1      20.394  65.777  36.496  1.00  0.00     0.210 HD
ENDBRANCH  47  56
BRANCH  51  58
ATOM     58  C   UNL     1      18.061  64.371  32.502  1.00  0.00    -0.022 C 
ATOM     59  C   UNL     1      18.422  63.675  31.430  1.00  0.00     0.096 C 
ATOM     60  C   UNL     1      16.603  64.783  32.336  1.00  0.00     0.265 C 
ATOM     61  C   UNL     1      17.274  63.631  30.562  1.00  0.00     0.331 C 
ATOM     62  O   UNL     1      16.237  64.281  31.103  1.00  0.00    -0.458 OA
ATOM     63  O   UNL     1      17.237  63.085  29.471  1.00  0.00    -0.247 OA
ENDBRANCH  51  58
ENDBRANCH  34  35
ENDBRANCH  30  34
ENDBRANCH  25  26
ENDBRANCH   1  25
TORSDOF 15
ENDMDL
MODEL 5
REMARK VINA RESULT:   -12.516      1.301      1.783
REMARK INTER + INTRA:         -23.019
REMARK INTER:                 -21.430
REMARK INTRA:                  -1.589
REMARK UNBOUND:                -1.357
REMARK SMILES CC(=O)O[C@@H]1C[C@@H](O[C@H]2[C@@H](O)C[C@@H](OC[C@@H]3C[C@@H](O)C[C@H](O[C@H]4CC[C@]5(C)[C@@H](CC[C@@H]6[C@@H]5C[C@@H](O)[C@@]5(C)[C@H](C7=CC(=O)OC7)CC[C@@]65O)C4)O3)O[C@@H]2C)O[C@H](C)[C@@H]1O
REMARK SMILES IDX 14 1 13 2 9 3 10 4 52 5 12 6 51 7 53 8 8 9 7 10 5 11 6 12
REMARK SMILES IDX 57 13 55 14 54 15 56 16 4 17 2 18 3 19 1 20 58 21 11 23
REMARK SMILES IDX 15 25 16 26 17 27 50 28 18 29 21 30 20 31 19 32 22 34 23 35
REMARK SMILES IDX 24 36 49 37 25 38 28 39 26 40 29 41 32 42 30 43 31 44 33 45
REMARK SMILES IDX 47 46 34 47 46 48 36 49 45 50 38 51 27 52 37 53 48 54 35 56
REMARK SMILES IDX 39 58 40 59 44 60 41 61 43 62 42 63
REMARK H PARENT 58 22 11 24 19 33 48 55 35 57
ROOT
ATOM      1  O   UNL     1      26.091  57.164  44.851  1.00  0.00    -0.350 OA
ENDROOT
BRANCH   1   2
ATOM      2  C   UNL     1      26.798  56.252  45.670  1.00  0.00     0.253 C 
ATOM      3  C   UNL     1      28.373  55.042  47.562  1.00  0.00     0.179 C 
ATOM      4  C   UNL     1      27.794  56.367  48.042  1.00  0.00     0.151 C 
ATOM      5  C   UNL     1      28.903  55.242  46.107  1.00  0.00     0.150 C 
ATOM      6  C   UNL     1      26.592  56.725  47.135  1.00  0.00     0.096 C 
ATOM      7  O   UNL     1      28.176  56.214  45.337  1.00  0.00    -0.347 OA
ATOM      8  C   UNL     1      28.982  53.902  45.364  1.00  0.00     0.041 C 
BRANCH   3   9
ATOM      9  O   UNL     1      29.437  54.627  48.428  1.00  0.00    -0.344 OA
BRANCH   9  10
ATOM     10  C   UNL     1      29.044  53.608  49.338  1.00  0.00     0.254 C 
ATOM     11  C   UNL     1      29.502  51.476  47.950  1.00  0.00     0.212 C 
ATOM     12  C   UNL     1      29.920  52.346  49.135  1.00  0.00     0.110 C 
ATOM     13  C   UNL     1      27.954  51.410  47.853  1.00  0.00     0.184 C 
ATOM     14  C   UNL     1      27.177  52.101  49.010  1.00  0.00     0.150 C 
ATOM     15  O   UNL     1      27.631  53.430  49.229  1.00  0.00    -0.347 OA
ATOM     16  C   UNL     1      27.047  51.347  50.345  1.00  0.00     0.042 C 
BRANCH  11  17
ATOM     17  O   UNL     1      30.043  50.212  48.142  1.00  0.00    -0.459 OA
BRANCH  17  18
ATOM     18  C   UNL     1      30.546  49.395  47.180  1.00  0.00     0.302 C 
ATOM     19  O   UNL     1      29.852  48.545  46.644  1.00  0.00    -0.253 OA
ATOM     20  C   UNL     1      31.985  49.542  46.787  1.00  0.00     0.139 C 
ENDBRANCH  17  18
ENDBRANCH  11  17
BRANCH  13  21
ATOM     21  O   UNL     1      27.474  50.119  47.564  1.00  0.00    -0.387 OA
ATOM     22  H   UNL     1      27.052  49.765  48.390  1.00  0.00     0.211 HD
ENDBRANCH  13  21
ENDBRANCH   9  10
ENDBRANCH   3   9
BRANCH   4  23
ATOM     23  O   UNL     1      28.797  57.362  48.025  1.00  0.00    -0.390 OA
ATOM     24  H   UNL     1      28.769  57.882  48.871  1.00  0.00     0.211 HD
ENDBRANCH   4  23
ENDBRANCH   1   2
BRANCH   1  25
ATOM     25  C   UNL     1      26.508  58.507  45.003  1.00  0.00     0.195 C 
BRANCH  25  26
ATOM     26  C   UNL     1      27.135  59.052  43.714  1.00  0.00     0.150 C 
ATOM     27  C   UNL     1      27.265  60.589  43.818  1.00  0.00     0.066 C 
ATOM     28  O   UNL     1      26.300  58.665  42.619  1.00  0.00    -0.347 OA
ATOM     29  C   UNL     1      27.923  61.169  42.549  1.00  0.00     0.122 C 
ATOM     30  C   UNL     1      26.400  59.473  41.446  1.00  0.00     0.253 C 
ATOM     31  C   UNL     1      27.738  60.228  41.349  1.00  0.00     0.094 C 
BRANCH  29  32
ATOM     32  O   UNL     1      29.291  61.431  42.739  1.00  0.00    -0.393 OA
ATOM     33  H   UNL     1      29.366  62.183  43.383  1.00  0.00     0.210 HD
ENDBRANCH  29  32
BRANCH  30  34
ATOM     34  O   UNL     1      25.297  60.371  41.425  1.00  0.00    -0.349 OA
BRANCH  34  35
ATOM     35  C   UNL     1      24.939  60.781  40.112  1.00  0.00     0.121 C 
ATOM     36  C   UNL     1      23.872  59.863  39.546  1.00  0.00     0.033 C 
ATOM     37  C   UNL     1      24.416  62.247  40.139  1.00  0.00     0.036 C 
ATOM     38  C   UNL     1      23.540  60.261  38.074  1.00  0.00     0.010 C 
ATOM     39  C   UNL     1      23.394  62.626  39.016  1.00  0.00    -0.002 C 
ATOM     40  C   UNL     1      23.639  61.800  37.721  1.00  0.00    -0.026 C 
ATOM     41  C   UNL     1      21.919  62.475  39.483  1.00  0.00     0.005 C 
ATOM     42  C   UNL     1      22.597  62.215  36.606  1.00  0.00     0.004 C 
ATOM     43  C   UNL     1      20.979  63.020  38.413  1.00  0.00     0.007 C 
ATOM     44  C   UNL     1      21.114  62.246  37.074  1.00  0.00     0.025 C 
ATOM     45  C   UNL     1      22.764  61.369  35.297  1.00  0.00     0.037 C 
ATOM     46  C   UNL     1      20.213  62.912  35.948  1.00  0.00     0.076 C 
ATOM     47  C   UNL     1      21.433  61.091  34.557  1.00  0.00     0.124 C 
ATOM     48  C   UNL     1      18.695  62.590  36.157  1.00  0.00     0.037 C 
ATOM     49  C   UNL     1      20.538  62.383  34.483  1.00  0.00     0.029 C 
ATOM     50  C   UNL     1      18.300  61.612  35.058  1.00  0.00     0.012 C 
ATOM     51  C   UNL     1      19.139  62.059  33.855  1.00  0.00     0.030 C 
ATOM     52  C   UNL     1      25.051  62.164  37.156  1.00  0.00     0.012 C 
ATOM     53  C   UNL     1      21.331  63.397  33.595  1.00  0.00     0.018 C 
BRANCH  46  54
ATOM     54  O   UNL     1      20.411  64.314  35.961  1.00  0.00    -0.389 OA
ATOM     55  H   UNL     1      21.358  64.519  35.747  1.00  0.00     0.211 HD
ENDBRANCH  46  54
BRANCH  47  56
ATOM     56  O   UNL     1      20.773  60.039  35.212  1.00  0.00    -0.392 OA
ATOM     57  H   UNL     1      20.516  59.369  34.523  1.00  0.00     0.210 HD
ENDBRANCH  47  56
BRANCH  51  58
ATOM     58  C   UNL     1      18.471  63.221  33.097  1.00  0.00    -0.022 C 
ATOM     59  C   UNL     1      18.330  63.215  31.776  1.00  0.00     0.096 C 
ATOM     60  C   UNL     1      17.887  64.521  33.635  1.00  0.00     0.265 C 
ATOM     61  C   UNL     1      17.700  64.461  31.424  1.00  0.00     0.331 C 
ATOM     62  O   UNL     1      17.458  65.202  32.513  1.00  0.00    -0.458 OA
ATOM     63  O   UNL     1      17.424  64.815  30.290  1.00  0.00    -0.247 OA
ENDBRANCH  51  58
ENDBRANCH  34  35
ENDBRANCH  30  34
ENDBRANCH  25  26
ENDBRANCH   1  25
TORSDOF 15
ENDMDL
MODEL 6
REMARK VINA RESULT:   -12.422      1.916      2.893
REMARK INTER + INTRA:         -22.857
REMARK INTER:                 -21.237
REMARK INTRA:                  -1.620
REMARK UNBOUND:                -1.357
REMARK SMILES CC(=O)O[C@@H]1C[C@@H](O[C@H]2[C@@H](O)C[C@@H](OC[C@@H]3C[C@@H](O)C[C@H](O[C@H]4CC[C@]5(C)[C@@H](CC[C@@H]6[C@@H]5C[C@@H](O)[C@@]5(C)[C@H](C7=CC(=O)OC7)CC[C@@]65O)C4)O3)O[C@@H]2C)O[C@H](C)[C@@H]1O
REMARK SMILES IDX 14 1 13 2 9 3 10 4 52 5 12 6 51 7 53 8 8 9 7 10 5 11 6 12
REMARK SMILES IDX 57 13 55 14 54 15 56 16 4 17 2 18 3 19 1 20 58 21 11 23
REMARK SMILES IDX 15 25 16 26 17 27 50 28 18 29 21 30 20 31 19 32 22 34 23 35
REMARK SMILES IDX 24 36 49 37 25 38 28 39 26 40 29 41 32 42 30 43 31 44 33 45
REMARK SMILES IDX 47 46 34 47 46 48 36 49 45 50 38 51 27 52 37 53 48 54 35 56
REMARK SMILES IDX 39 58 40 59 44 60 41 61 43 62 42 63
REMARK H PARENT 58 22 11 24 19 33 48 55 35 57
ROOT
ATOM      1  O   UNL     1      29.286  56.427  41.533  1.00  0.00    -0.350 OA
ENDROOT
BRANCH   1   2
ATOM      2  C   UNL     1      29.626  55.483  42.531  1.00  0.00     0.253 C 
ATOM      3  C   UNL     1      29.758  53.915  44.779  1.00  0.00     0.179 C 
ATOM      4  C   UNL     1      28.337  54.363  44.459  1.00  0.00     0.151 C 
ATOM      5  C   UNL     1      30.702  55.149  44.623  1.00  0.00     0.150 C 
ATOM      6  C   UNL     1      28.296  54.819  42.980  1.00  0.00     0.096 C 
ATOM      7  O   UNL     1      30.283  56.098  43.628  1.00  0.00    -0.347 OA
ATOM      8  C   UNL     1      32.150  54.704  44.378  1.00  0.00     0.041 C 
BRANCH   3   9
ATOM      9  O   UNL     1      29.824  53.404  46.115  1.00  0.00    -0.344 OA
BRANCH   9  10
ATOM     10  C   UNL     1      29.378  52.057  46.215  1.00  0.00     0.254 C 
ATOM     11  C   UNL     1      28.470  51.996  48.634  1.00  0.00     0.212 C 
ATOM     12  C   UNL     1      28.140  51.973  47.142  1.00  0.00     0.110 C 
ATOM     13  C   UNL     1      29.747  51.159  48.913  1.00  0.00     0.184 C 
ATOM     14  C   UNL     1      30.328  50.390  47.693  1.00  0.00     0.150 C 
ATOM     15  O   UNL     1      30.496  51.240  46.566  1.00  0.00    -0.347 OA
ATOM     16  C   UNL     1      29.649  49.072  47.278  1.00  0.00     0.042 C 
BRANCH  11  17
ATOM     17  O   UNL     1      27.376  51.480  49.317  1.00  0.00    -0.459 OA
BRANCH  17  18
ATOM     18  C   UNL     1      26.630  52.125  50.252  1.00  0.00     0.302 C 
ATOM     19  O   UNL     1      25.969  53.112  49.966  1.00  0.00    -0.253 OA
ATOM     20  C   UNL     1      26.635  51.611  51.660  1.00  0.00     0.139 C 
ENDBRANCH  17  18
ENDBRANCH  11  17
BRANCH  13  21
ATOM     21  O   UNL     1      29.640  50.358  50.067  1.00  0.00    -0.387 OA
ATOM     22  H   UNL     1      30.167  49.533  49.907  1.00  0.00     0.211 HD
ENDBRANCH  13  21
ENDBRANCH   9  10
ENDBRANCH   3   9
BRANCH   4  23
ATOM     23  O   UNL     1      27.945  55.388  45.349  1.00  0.00    -0.390 OA
ATOM     24  H   UNL     1      27.915  56.257  44.869  1.00  0.00     0.211 HD
ENDBRANCH   4  23
ENDBRANCH   1   2
BRANCH   1  25
ATOM     25  C   UNL     1      27.943  56.867  41.601  1.00  0.00     0.195 C 
BRANCH  25  26
ATOM     26  C   UNL     1      27.838  58.264  42.223  1.00  0.00     0.150 C 
ATOM     27  C   UNL     1      26.764  58.251  43.334  1.00  0.00     0.066 C 
ATOM     28  O   UNL     1      27.511  59.188  41.181  1.00  0.00    -0.347 OA
ATOM     29  C   UNL     1      26.655  59.636  44.005  1.00  0.00     0.122 C 
ATOM     30  C   UNL     1      26.874  60.397  41.599  1.00  0.00     0.253 C 
ATOM     31  C   UNL     1      27.159  60.747  43.071  1.00  0.00     0.094 C 
BRANCH  29  32
ATOM     32  O   UNL     1      27.354  59.687  45.223  1.00  0.00    -0.393 OA
ATOM     33  H   UNL     1      27.333  58.777  45.620  1.00  0.00     0.210 HD
ENDBRANCH  29  32
BRANCH  30  34
ATOM     34  O   UNL     1      25.477  60.274  41.358  1.00  0.00    -0.349 OA
BRANCH  34  35
ATOM     35  C   UNL     1      25.097  60.711  40.061  1.00  0.00     0.121 C 
ATOM     36  C   UNL     1      24.035  59.792  39.486  1.00  0.00     0.033 C 
ATOM     37  C   UNL     1      24.555  62.169  40.131  1.00  0.00     0.036 C 
ATOM     38  C   UNL     1      23.678  60.222  38.029  1.00  0.00     0.010 C 
ATOM     39  C   UNL     1      23.514  62.562  39.030  1.00  0.00    -0.002 C 
ATOM     40  C   UNL     1      23.752  61.771  37.712  1.00  0.00    -0.026 C 
ATOM     41  C   UNL     1      22.047  62.380  39.512  1.00  0.00     0.005 C 
ATOM     42  C   UNL     1      22.691  62.198  36.621  1.00  0.00     0.004 C 
ATOM     43  C   UNL     1      21.086  62.938  38.468  1.00  0.00     0.007 C 
ATOM     44  C   UNL     1      21.213  62.198  37.109  1.00  0.00     0.025 C 
ATOM     45  C   UNL     1      22.851  61.387  35.290  1.00  0.00     0.037 C 
ATOM     46  C   UNL     1      20.289  62.879  36.011  1.00  0.00     0.076 C 
ATOM     47  C   UNL     1      21.515  61.109  34.561  1.00  0.00     0.124 C 
ATOM     48  C   UNL     1      18.778  62.532  36.232  1.00  0.00     0.037 C 
ATOM     49  C   UNL     1      20.602  62.390  34.529  1.00  0.00     0.029 C 
ATOM     50  C   UNL     1      18.382  61.575  35.114  1.00  0.00     0.012 C 
ATOM     51  C   UNL     1      19.199  62.063  33.912  1.00  0.00     0.030 C 
ATOM     52  C   UNL     1      25.152  62.167  37.138  1.00  0.00     0.012 C 
ATOM     53  C   UNL     1      21.369  63.436  33.657  1.00  0.00     0.018 C 
BRANCH  46  54
ATOM     54  O   UNL     1      20.469  64.283  36.056  1.00  0.00    -0.389 OA
ATOM     55  H   UNL     1      20.328  64.667  35.152  1.00  0.00     0.211 HD
ENDBRANCH  46  54
BRANCH  47  56
ATOM     56  O   UNL     1      20.877  60.032  35.198  1.00  0.00    -0.392 OA
ATOM     57  H   UNL     1      21.373  59.843  36.039  1.00  0.00     0.210 HD
ENDBRANCH  47  56
BRANCH  51  58
ATOM     58  C   UNL     1      18.506  63.234  33.191  1.00  0.00    -0.022 C 
ATOM     59  C   UNL     1      18.291  63.230  31.880  1.00  0.00     0.096 C 
ATOM     60  C   UNL     1      17.971  64.543  33.759  1.00  0.00     0.265 C 
ATOM     61  C   UNL     1      17.660  64.484  31.563  1.00  0.00     0.331 C 
ATOM     62  O   UNL     1      17.490  65.229  32.663  1.00  0.00    -0.458 OA
ATOM     63  O   UNL     1      17.326  64.842  30.445  1.00  0.00    -0.247 OA
ENDBRANCH  51  58
ENDBRANCH  34  35
ENDBRANCH  30  34
ENDBRANCH  25  26
ENDBRANCH   1  25
TORSDOF 15
ENDMDL
MODEL 7
REMARK VINA RESULT:   -12.422      2.823      3.796
REMARK INTER + INTRA:         -22.857
REMARK INTER:                 -21.273
REMARK INTRA:                  -1.583
REMARK UNBOUND:                -1.357
REMARK SMILES CC(=O)O[C@@H]1C[C@@H](O[C@H]2[C@@H](O)C[C@@H](OC[C@@H]3C[C@@H](O)C[C@H](O[C@H]4CC[C@]5(C)[C@@H](CC[C@@H]6[C@@H]5C[C@@H](O)[C@@]5(C)[C@H](C7=CC(=O)OC7)CC[C@@]65O)C4)O3)O[C@@H]2C)O[C@H](C)[C@@H]1O
REMARK SMILES IDX 14 1 13 2 9 3 10 4 52 5 12 6 51 7 53 8 8 9 7 10 5 11 6 12
REMARK SMILES IDX 57 13 55 14 54 15 56 16 4 17 2 18 3 19 1 20 58 21 11 23
REMARK SMILES IDX 15 25 16 26 17 27 50 28 18 29 21 30 20 31 19 32 22 34 23 35
REMARK SMILES IDX 24 36 49 37 25 38 28 39 26 40 29 41 32 42 30 43 31 44 33 45
REMARK SMILES IDX 47 46 34 47 46 48 36 49 45 50 38 51 27 52 37 53 48 54 35 56
REMARK SMILES IDX 39 58 40 59 44 60 41 61 43 62 42 63
REMARK H PARENT 58 22 11 24 19 33 48 55 35 57
ROOT
ATOM      1  O   UNL     1      26.295  56.753  44.049  1.00  0.00    -0.350 OA
ENDROOT
BRANCH   1   2
ATOM      2  C   UNL     1      27.298  55.801  44.348  1.00  0.00     0.253 C 
ATOM      3  C   UNL     1      29.303  54.315  45.489  1.00  0.00     0.179 C 
ATOM      4  C   UNL     1      28.408  54.986  46.524  1.00  0.00     0.151 C 
ATOM      5  C   UNL     1      29.633  55.364  44.380  1.00  0.00     0.150 C 
ATOM      6  C   UNL     1      27.085  55.389  45.830  1.00  0.00     0.096 C 
ATOM      7  O   UNL     1      28.598  56.335  44.151  1.00  0.00    -0.347 OA
ATOM      8  C   UNL     1      30.033  54.671  43.071  1.00  0.00     0.041 C 
BRANCH   3   9
ATOM      9  O   UNL     1      30.507  53.848  46.107  1.00  0.00    -0.344 OA
BRANCH   9  10
ATOM     10  C   UNL     1      30.566  52.430  46.203  1.00  0.00     0.254 C 
ATOM     11  C   UNL     1      32.803  51.929  45.007  1.00  0.00     0.212 C 
ATOM     12  C   UNL     1      32.039  51.966  46.330  1.00  0.00     0.110 C 
ATOM     13  C   UNL     1      31.884  51.401  43.873  1.00  0.00     0.184 C 
ATOM     14  C   UNL     1      30.478  50.910  44.319  1.00  0.00     0.150 C 
ATOM     15  O   UNL     1      29.813  51.877  45.122  1.00  0.00    -0.347 OA
ATOM     16  C   UNL     1      30.367  49.512  44.954  1.00  0.00     0.042 C 
BRANCH  11  17
ATOM     17  O   UNL     1      33.907  51.106  45.179  1.00  0.00    -0.459 OA
BRANCH  17  18
ATOM     18  C   UNL     1      35.174  51.355  44.757  1.00  0.00     0.302 C 
ATOM     19  O   UNL     1      35.547  51.031  43.640  1.00  0.00    -0.253 OA
ATOM     20  C   UNL     1      36.127  52.033  45.695  1.00  0.00     0.139 C 
ENDBRANCH  17  18
ENDBRANCH  11  17
BRANCH  13  21
ATOM     21  O   UNL     1      32.534  50.494  43.013  1.00  0.00    -0.387 OA
ATOM     22  H   UNL     1      33.310  50.120  43.507  1.00  0.00     0.211 HD
ENDBRANCH  13  21
ENDBRANCH   9  10
ENDBRANCH   3   9
BRANCH   4  23
ATOM     23  O   UNL     1      29.079  56.093  47.091  1.00  0.00    -0.390 OA
ATOM     24  H   UNL     1      29.859  56.338  46.527  1.00  0.00     0.211 HD
ENDBRANCH   4  23
ENDBRANCH   1   2
BRANCH   1  25
ATOM     25  C   UNL     1      26.577  58.050  44.537  1.00  0.00     0.195 C 
BRANCH  25  26
ATOM     26  C   UNL     1      27.201  58.937  43.453  1.00  0.00     0.150 C 
ATOM     27  C   UNL     1      26.994  60.423  43.826  1.00  0.00     0.066 C 
ATOM     28  O   UNL     1      26.579  58.613  42.206  1.00  0.00    -0.347 OA
ATOM     29  C   UNL     1      27.639  61.346  42.771  1.00  0.00     0.122 C 
ATOM     30  C   UNL     1      26.624  59.633  41.206  1.00  0.00     0.253 C 
ATOM     31  C   UNL     1      27.776  60.631  41.418  1.00  0.00     0.094 C 
BRANCH  29  32
ATOM     32  O   UNL     1      28.895  61.821  43.185  1.00  0.00    -0.393 OA
ATOM     33  H   UNL     1      29.579  61.170  42.879  1.00  0.00     0.210 HD
ENDBRANCH  29  32
BRANCH  30  34
ATOM     34  O   UNL     1      25.364  60.294  41.184  1.00  0.00    -0.349 OA
BRANCH  34  35
ATOM     35  C   UNL     1      24.989  60.731  39.885  1.00  0.00     0.121 C 
ATOM     36  C   UNL     1      23.910  59.827  39.318  1.00  0.00     0.033 C 
ATOM     37  C   UNL     1      24.471  62.198  39.949  1.00  0.00     0.036 C 
ATOM     38  C   UNL     1      23.557  60.255  37.859  1.00  0.00     0.010 C 
ATOM     39  C   UNL     1      23.435  62.602  38.848  1.00  0.00    -0.002 C 
ATOM     40  C   UNL     1      23.657  61.801  37.534  1.00  0.00    -0.026 C 
ATOM     41  C   UNL     1      21.966  62.448  39.334  1.00  0.00     0.005 C 
ATOM     42  C   UNL     1      22.601  62.241  36.443  1.00  0.00     0.004 C 
ATOM     43  C   UNL     1      21.012  63.017  38.289  1.00  0.00     0.007 C 
ATOM     44  C   UNL     1      21.125  62.267  36.934  1.00  0.00     0.025 C 
ATOM     45  C   UNL     1      22.745  61.420  35.115  1.00  0.00     0.037 C 
ATOM     46  C   UNL     1      20.209  62.959  35.834  1.00  0.00     0.076 C 
ATOM     47  C   UNL     1      21.402  61.161  34.390  1.00  0.00     0.124 C 
ATOM     48  C   UNL     1      18.694  62.639  36.059  1.00  0.00     0.037 C 
ATOM     49  C   UNL     1      20.511  62.457  34.354  1.00  0.00     0.029 C 
ATOM     50  C   UNL     1      18.279  61.683  34.947  1.00  0.00     0.012 C 
ATOM     51  C   UNL     1      19.102  62.151  33.741  1.00  0.00     0.030 C 
ATOM     52  C   UNL     1      25.062  62.170  36.955  1.00  0.00     0.012 C 
ATOM     53  C   UNL     1      21.294  63.485  33.474  1.00  0.00     0.018 C 
BRANCH  46  54
ATOM     54  O   UNL     1      20.414  64.360  35.871  1.00  0.00    -0.389 OA
ATOM     55  H   UNL     1      20.269  64.743  34.967  1.00  0.00     0.211 HD
ENDBRANCH  46  54
BRANCH  47  56
ATOM     56  O   UNL     1      20.748  60.099  35.034  1.00  0.00    -0.392 OA
ATOM     57  H   UNL     1      21.229  59.920  35.886  1.00  0.00     0.210 HD
ENDBRANCH  47  56
BRANCH  51  58
ATOM     58  C   UNL     1      18.427  63.329  33.016  1.00  0.00    -0.022 C 
ATOM     59  C   UNL     1      18.122  63.283  31.723  1.00  0.00     0.096 C 
ATOM     60  C   UNL     1      18.007  64.690  33.558  1.00  0.00     0.265 C 
ATOM     61  C   UNL     1      17.542  64.559  31.392  1.00  0.00     0.331 C 
ATOM     62  O   UNL     1      17.490  65.357  32.466  1.00  0.00    -0.458 OA
ATOM     63  O   UNL     1      17.152  64.889  30.284  1.00  0.00    -0.247 OA
ENDBRANCH  51  58
ENDBRANCH  34  35
ENDBRANCH  30  34
ENDBRANCH  25  26
ENDBRANCH   1  25
TORSDOF 15
ENDMDL
MODEL 8
REMARK VINA RESULT:   -12.379      2.923      5.239
REMARK INTER + INTRA:         -22.782
REMARK INTER:                 -20.978
REMARK INTRA:                  -1.804
REMARK UNBOUND:                -1.357
REMARK SMILES CC(=O)O[C@@H]1C[C@@H](O[C@H]2[C@@H](O)C[C@@H](OC[C@@H]3C[C@@H](O)C[C@H](O[C@H]4CC[C@]5(C)[C@@H](CC[C@@H]6[C@@H]5C[C@@H](O)[C@@]5(C)[C@H](C7=CC(=O)OC7)CC[C@@]65O)C4)O3)O[C@@H]2C)O[C@H](C)[C@@H]1O
REMARK SMILES IDX 14 1 13 2 9 3 10 4 52 5 12 6 51 7 53 8 8 9 7 10 5 11 6 12
REMARK SMILES IDX 57 13 55 14 54 15 56 16 4 17 2 18 3 19 1 20 58 21 11 23
REMARK SMILES IDX 15 25 16 26 17 27 50 28 18 29 21 30 20 31 19 32 22 34 23 35
REMARK SMILES IDX 24 36 49 37 25 38 28 39 26 40 29 41 32 42 30 43 31 44 33 45
REMARK SMILES IDX 47 46 34 47 46 48 36 49 45 50 38 51 27 52 37 53 48 54 35 56
REMARK SMILES IDX 39 58 40 59 44 60 41 61 43 62 42 63
REMARK H PARENT 58 22 11 24 19 33 48 55 35 57
ROOT
ATOM      1  O   UNL     1      25.281  58.062  45.072  1.00  0.00    -0.350 OA
ENDROOT
BRANCH   1   2
ATOM      2  C   UNL     1      26.517  58.236  45.740  1.00  0.00     0.253 C 
ATOM      3  C   UNL     1      28.564  58.355  47.562  1.00  0.00     0.179 C 
ATOM      4  C   UNL     1      27.543  57.274  47.898  1.00  0.00     0.151 C 
ATOM      5  C   UNL     1      27.788  59.650  47.164  1.00  0.00     0.150 C 
ATOM      6  C   UNL     1      26.722  56.973  46.620  1.00  0.00     0.096 C 
ATOM      7  O   UNL     1      26.519  59.413  46.532  1.00  0.00    -0.347 OA
ATOM      8  C   UNL     1      28.664  60.572  46.306  1.00  0.00     0.041 C 
BRANCH   3   9
ATOM      9  O   UNL     1      29.405  58.605  48.694  1.00  0.00    -0.344 OA
BRANCH   9  10
ATOM     10  C   UNL     1      30.717  58.081  48.536  1.00  0.00     0.254 C 
ATOM     11  C   UNL     1      32.131  60.244  48.485  1.00  0.00     0.212 C 
ATOM     12  C   UNL     1      31.744  58.987  49.262  1.00  0.00     0.110 C 
ATOM     13  C   UNL     1      32.267  59.919  46.973  1.00  0.00     0.184 C 
ATOM     14  C   UNL     1      32.120  58.419  46.591  1.00  0.00     0.150 C 
ATOM     15  O   UNL     1      30.942  57.847  47.145  1.00  0.00    -0.347 OA
ATOM     16  C   UNL     1      33.328  57.493  46.818  1.00  0.00     0.042 C 
BRANCH  11  17
ATOM     17  O   UNL     1      33.332  60.709  49.005  1.00  0.00    -0.459 OA
BRANCH  17  18
ATOM     18  C   UNL     1      33.700  62.009  49.149  1.00  0.00     0.302 C 
ATOM     19  O   UNL     1      34.670  62.463  48.561  1.00  0.00    -0.253 OA
ATOM     20  C   UNL     1      32.899  62.889  50.059  1.00  0.00     0.139 C 
ENDBRANCH  17  18
ENDBRANCH  11  17
BRANCH  13  21
ATOM     21  O   UNL     1      33.385  60.531  46.375  1.00  0.00    -0.387 OA
ATOM     22  H   UNL     1      33.469  61.441  46.762  1.00  0.00     0.211 HD
ENDBRANCH  13  21
ENDBRANCH   9  10
ENDBRANCH   3   9
BRANCH   4  23
ATOM     23  O   UNL     1      26.730  57.701  48.972  1.00  0.00    -0.390 OA
ATOM     24  H   UNL     1      27.296  58.102  49.683  1.00  0.00     0.211 HD
ENDBRANCH   4  23
ENDBRANCH   1   2
BRANCH   1  25
ATOM     25  C   UNL     1      25.041  59.023  44.061  1.00  0.00     0.195 C 
BRANCH  25  26
ATOM     26  C   UNL     1      25.724  58.637  42.744  1.00  0.00     0.150 C 
ATOM     27  C   UNL     1      26.930  59.572  42.500  1.00  0.00     0.066 C 
ATOM     28  O   UNL     1      24.755  58.740  41.697  1.00  0.00    -0.347 OA
ATOM     29  C   UNL     1      27.662  59.191  41.196  1.00  0.00     0.122 C 
ATOM     30  C   UNL     1      25.278  58.932  40.382  1.00  0.00     0.253 C 
ATOM     31  C   UNL     1      26.729  58.439  40.235  1.00  0.00     0.094 C 
BRANCH  29  32
ATOM     32  O   UNL     1      28.810  58.418  41.444  1.00  0.00    -0.393 OA
ATOM     33  H   UNL     1      28.576  57.469  41.270  1.00  0.00     0.210 HD
ENDBRANCH  29  32
BRANCH  30  34
ATOM     34  O   UNL     1      25.166  60.312  40.052  1.00  0.00    -0.349 OA
BRANCH  34  35
ATOM     35  C   UNL     1      23.912  60.644  39.473  1.00  0.00     0.121 C 
ATOM     36  C   UNL     1      23.921  62.081  38.986  1.00  0.00     0.033 C 
ATOM     37  C   UNL     1      23.607  59.684  38.285  1.00  0.00     0.036 C 
ATOM     38  C   UNL     1      22.518  62.472  38.426  1.00  0.00     0.010 C 
ATOM     39  C   UNL     1      22.691  60.267  37.157  1.00  0.00    -0.002 C 
ATOM     40  C   UNL     1      21.694  61.319  37.720  1.00  0.00    -0.026 C 
ATOM     41  C   UNL     1      23.511  60.872  35.983  1.00  0.00     0.005 C 
ATOM     42  C   UNL     1      20.780  61.879  36.557  1.00  0.00     0.004 C 
ATOM     43  C   UNL     1      22.575  61.263  34.845  1.00  0.00     0.007 C 
ATOM     44  C   UNL     1      21.547  62.341  35.285  1.00  0.00     0.025 C 
ATOM     45  C   UNL     1      19.794  62.988  37.062  1.00  0.00     0.037 C 
ATOM     46  C   UNL     1      20.513  62.638  34.117  1.00  0.00     0.076 C 
ATOM     47  C   UNL     1      19.507  64.093  36.017  1.00  0.00     0.124 C 
ATOM     48  C   UNL     1      21.157  63.499  32.979  1.00  0.00     0.037 C 
ATOM     49  C   UNL     1      19.248  63.480  34.591  1.00  0.00     0.029 C 
ATOM     50  C   UNL     1      20.536  64.887  33.076  1.00  0.00     0.012 C 
ATOM     51  C   UNL     1      19.093  64.610  33.516  1.00  0.00     0.030 C 
ATOM     52  C   UNL     1      20.733  60.609  38.727  1.00  0.00     0.012 C 
ATOM     53  C   UNL     1      17.932  62.645  34.721  1.00  0.00     0.018 C 
BRANCH  46  54
ATOM     54  O   UNL     1      20.046  61.411  33.583  1.00  0.00    -0.389 OA
ATOM     55  H   UNL     1      20.764  60.986  33.047  1.00  0.00     0.211 HD
ENDBRANCH  46  54
BRANCH  47  56
ATOM     56  O   UNL     1      20.588  64.988  36.009  1.00  0.00    -0.392 OA
ATOM     57  H   UNL     1      20.217  65.910  36.059  1.00  0.00     0.210 HD
ENDBRANCH  47  56
BRANCH  51  58
ATOM     58  C   UNL     1      18.192  64.261  32.318  1.00  0.00    -0.022 C 
ATOM     59  C   UNL     1      17.040  64.886  32.094  1.00  0.00     0.096 C 
ATOM     60  C   UNL     1      18.388  63.215  31.228  1.00  0.00     0.265 C 
ATOM     61  C   UNL     1      16.466  64.280  30.920  1.00  0.00     0.331 C 
ATOM     62  O   UNL     1      17.259  63.314  30.440  1.00  0.00    -0.458 OA
ATOM     63  O   UNL     1      15.396  64.588  30.422  1.00  0.00    -0.247 OA
ENDBRANCH  51  58
ENDBRANCH  34  35
ENDBRANCH  30  34
ENDBRANCH  25  26
ENDBRANCH   1  25
TORSDOF 15
ENDMDL
MODEL 9
REMARK VINA RESULT:   -12.363      1.522      2.408
REMARK INTER + INTRA:         -22.756
REMARK INTER:                 -21.250
REMARK INTRA:                  -1.506
REMARK UNBOUND:                -1.357
REMARK SMILES CC(=O)O[C@@H]1C[C@@H](O[C@H]2[C@@H](O)C[C@@H](OC[C@@H]3C[C@@H](O)C[C@H](O[C@H]4CC[C@]5(C)[C@@H](CC[C@@H]6[C@@H]5C[C@@H](O)[C@@]5(C)[C@H](C7=CC(=O)OC7)CC[C@@]65O)C4)O3)O[C@@H]2C)O[C@H](C)[C@@H]1O
REMARK SMILES IDX 14 1 13 2 9 3 10 4 52 5 12 6 51 7 53 8 8 9 7 10 5 11 6 12
REMARK SMILES IDX 57 13 55 14 54 15 56 16 4 17 2 18 3 19 1 20 58 21 11 23
REMARK SMILES IDX 15 25 16 26 17 27 50 28 18 29 21 30 20 31 19 32 22 34 23 35
REMARK SMILES IDX 24 36 49 37 25 38 28 39 26 40 29 41 32 42 30 43 31 44 33 45
REMARK SMILES IDX 47 46 34 47 46 48 36 49 45 50 38 51 27 52 37 53 48 54 35 56
REMARK SMILES IDX 39 58 40 59 44 60 41 61 43 62 42 63
REMARK H PARENT 58 22 11 24 19 33 48 55 35 57
ROOT
ATOM      1  O   UNL     1      26.080  57.052  44.806  1.00  0.00    -0.350 OA
ENDROOT
BRANCH   1   2
ATOM      2  C   UNL     1      26.529  56.249  45.882  1.00  0.00     0.253 C 
ATOM      3  C   UNL     1      27.671  55.267  48.175  1.00  0.00     0.179 C 
ATOM      4  C   UNL     1      27.300  56.741  48.290  1.00  0.00     0.151 C 
ATOM      5  C   UNL     1      28.364  55.047  46.793  1.00  0.00     0.150 C 
ATOM      6  C   UNL     1      26.275  57.068  47.177  1.00  0.00     0.096 C 
ATOM      7  O   UNL     1      27.903  55.921  45.750  1.00  0.00    -0.347 OA
ATOM      8  C   UNL     1      28.268  53.579  46.360  1.00  0.00     0.041 C 
BRANCH   3   9
ATOM      9  O   UNL     1      28.555  54.897  49.240  1.00  0.00    -0.344 OA
BRANCH   9  10
ATOM     10  C   UNL     1      27.919  54.112  50.240  1.00  0.00     0.254 C 
ATOM     11  C   UNL     1      29.874  52.626  51.045  1.00  0.00     0.212 C 
ATOM     12  C   UNL     1      28.923  53.775  51.372  1.00  0.00     0.110 C 
ATOM     13  C   UNL     1      29.120  51.508  50.274  1.00  0.00     0.184 C 
ATOM     14  C   UNL     1      27.587  51.716  50.117  1.00  0.00     0.150 C 
ATOM     15  O   UNL     1      27.280  53.005  49.602  1.00  0.00    -0.347 OA
ATOM     16  C   UNL     1      26.685  51.387  51.321  1.00  0.00     0.042 C 
BRANCH  11  17
ATOM     17  O   UNL     1      30.386  52.146  52.243  1.00  0.00    -0.459 OA
BRANCH  17  18
ATOM     18  C   UNL     1      31.502  52.588  52.879  1.00  0.00     0.302 C 
ATOM     19  O   UNL     1      31.591  52.563  54.097  1.00  0.00    -0.253 OA
ATOM     20  C   UNL     1      32.636  53.124  52.058  1.00  0.00     0.139 C 
ENDBRANCH  17  18
ENDBRANCH  11  17
BRANCH  13  21
ATOM     21  O   UNL     1      29.456  50.213  50.712  1.00  0.00    -0.387 OA
ATOM     22  H   UNL     1      29.286  50.174  51.689  1.00  0.00     0.211 HD
ENDBRANCH  13  21
ENDBRANCH   9  10
ENDBRANCH   3   9
BRANCH   4  23
ATOM     23  O   UNL     1      28.464  57.536  48.201  1.00  0.00    -0.390 OA
ATOM     24  H   UNL     1      28.976  57.292  47.385  1.00  0.00     0.211 HD
ENDBRANCH   4  23
ENDBRANCH   1   2
BRANCH   1  25
ATOM     25  C   UNL     1      26.918  56.997  43.668  1.00  0.00     0.195 C 
BRANCH  25  26
ATOM     26  C   UNL     1      27.364  58.397  43.228  1.00  0.00     0.150 C 
ATOM     27  C   UNL     1      26.636  59.458  44.084  1.00  0.00     0.066 C 
ATOM     28  O   UNL     1      27.061  58.540  41.838  1.00  0.00    -0.347 OA
ATOM     29  C   UNL     1      27.087  60.880  43.690  1.00  0.00     0.122 C 
ATOM     30  C   UNL     1      26.910  59.881  41.369  1.00  0.00     0.253 C 
ATOM     31  C   UNL     1      27.635  60.911  42.255  1.00  0.00     0.094 C 
BRANCH  29  32
ATOM     32  O   UNL     1      28.049  61.392  44.576  1.00  0.00    -0.393 OA
ATOM     33  H   UNL     1      28.099  62.373  44.433  1.00  0.00     0.210 HD
ENDBRANCH  29  32
BRANCH  30  34
ATOM     34  O   UNL     1      25.520  60.169  41.273  1.00  0.00    -0.349 OA
BRANCH  34  35
ATOM     35  C   UNL     1      25.137  60.633  39.986  1.00  0.00     0.121 C 
ATOM     36  C   UNL     1      24.066  59.733  39.399  1.00  0.00     0.033 C 
ATOM     37  C   UNL     1      24.606  62.093  40.087  1.00  0.00     0.036 C 
ATOM     38  C   UNL     1      23.705  60.194  37.952  1.00  0.00     0.010 C 
ATOM     39  C   UNL     1      23.562  62.514  38.999  1.00  0.00    -0.002 C 
ATOM     40  C   UNL     1      23.789  61.748  37.665  1.00  0.00    -0.026 C 
ATOM     41  C   UNL     1      22.096  62.333  39.485  1.00  0.00     0.005 C 
ATOM     42  C   UNL     1      22.725  62.204  36.588  1.00  0.00     0.004 C 
ATOM     43  C   UNL     1      21.134  62.918  38.456  1.00  0.00     0.007 C 
ATOM     44  C   UNL     1      21.250  62.204  37.083  1.00  0.00     0.025 C 
ATOM     45  C   UNL     1      22.873  61.417  35.240  1.00  0.00     0.037 C 
ATOM     46  C   UNL     1      20.325  62.913  36.003  1.00  0.00     0.076 C 
ATOM     47  C   UNL     1      21.532  61.163  34.512  1.00  0.00     0.124 C 
ATOM     48  C   UNL     1      18.813  62.572  36.224  1.00  0.00     0.037 C 
ATOM     49  C   UNL     1      20.628  62.451  34.510  1.00  0.00     0.029 C 
ATOM     50  C   UNL     1      18.405  61.640  35.090  1.00  0.00     0.012 C 
ATOM     51  C   UNL     1      19.219  62.145  33.893  1.00  0.00     0.030 C 
ATOM     52  C   UNL     1      25.188  62.145  37.092  1.00  0.00     0.012 C 
ATOM     53  C   UNL     1      21.398  63.508  33.654  1.00  0.00     0.018 C 
BRANCH  46  54
ATOM     54  O   UNL     1      20.515  64.315  36.074  1.00  0.00    -0.389 OA
ATOM     55  H   UNL     1      19.645  64.762  36.236  1.00  0.00     0.211 HD
ENDBRANCH  46  54
BRANCH  47  56
ATOM     56  O   UNL     1      20.889  60.079  35.132  1.00  0.00    -0.392 OA
ATOM     57  H   UNL     1      21.546  59.334  35.193  1.00  0.00     0.210 HD
ENDBRANCH  47  56
BRANCH  51  58
ATOM     58  C   UNL     1      18.531  63.335  33.199  1.00  0.00    -0.022 C 
ATOM     59  C   UNL     1      18.090  63.265  31.948  1.00  0.00     0.096 C 
ATOM     60  C   UNL     1      18.238  64.732  33.732  1.00  0.00     0.265 C 
ATOM     61  C   UNL     1      17.542  64.558  31.632  1.00  0.00     0.331 C 
ATOM     62  O   UNL     1      17.643  65.391  32.675  1.00  0.00    -0.458 OA
ATOM     63  O   UNL     1      17.054  64.873  30.559  1.00  0.00    -0.247 OA
ENDBRANCH  51  58
ENDBRANCH  34  35
ENDBRANCH  30  34
ENDBRANCH  25  26
ENDBRANCH   1  25
TORSDOF 15
ENDMDL
