MODEL 1
REMARK VINA RESULT:   -14.645      0.000      0.000
REMARK INTER + INTRA:         -24.102
REMARK INTER:                 -22.350
REMARK INTRA:                  -1.751
REMARK UNBOUND:                -1.751
REMARK SMILES C[C@H]1O[C@@H](O[C@H]2[C@H](O)C[C@H](c3ccc4c(c3O)C(=O)C3=C(C4=O)[C@@]4(O)C(=O)C[C@@](C)(O[C@H]5CC[C@@H](O[C@H]6C=CC(=O)[C@@H](C)O6)[C@@H](C)O5)C[C@]4(O)C=C3)O[C@@H]2C)C=CC1=O
REMARK SMILES IDX 11 1 12 2 13 3 14 4 22 5 23 6 21 7 20 8 52 9 51 10 49 11
REMARK SMILES IDX 48 12 29 13 30 14 28 15 26 16 27 17 24 18 18 19 19 20 15 21
REMARK SMILES IDX 16 22 10 23 6 24 7 25 54 26 9 27 53 28 55 29 5 30 4 31 2 32
REMARK SMILES IDX 3 33 58 34 57 35 59 36 56 37 1 38 8 39 17 41 25 43 50 45
REMARK SMILES IDX 31 47 32 48 33 49 47 50 34 51 45 52 35 53 46 54 36 55 37 56
REMARK SMILES IDX 38 57 44 58 39 59 42 60 40 61 41 62 43 63
REMARK H PARENT 8 40 17 42 25 44 50 46
ROOT
ATOM      1  C   UNL     1      24.834  60.457  40.252  1.00  0.00     0.023 A 
ATOM      2  C   UNL     1      25.545  61.076  39.215  1.00  0.00     0.011 A 
ATOM      3  C   UNL     1      24.896  61.541  38.090  1.00  0.00     0.013 A 
ATOM      4  C   UNL     1      23.509  61.423  37.960  1.00  0.00     0.037 A 
ATOM      5  C   UNL     1      22.862  61.972  36.748  1.00  0.00     0.194 C 
ATOM      6  O   UNL     1      23.547  62.586  35.942  1.00  0.00    -0.289 OA
ATOM      7  C   UNL     1      21.388  61.863  36.538  1.00  0.00     0.054 C 
ATOM      8  C   UNL     1      20.625  61.336  37.536  1.00  0.00     0.033 C 
ATOM      9  C   UNL     1      19.135  61.449  37.465  1.00  0.00     0.011 C 
ATOM     10  C   UNL     1      18.509  61.851  36.351  1.00  0.00     0.012 C 
ATOM     11  C   UNL     1      19.286  61.967  35.064  1.00  0.00     0.126 C 
ATOM     12  C   UNL     1      18.533  62.838  33.991  1.00  0.00     0.079 C 
ATOM     13  C   UNL     1      19.383  63.322  32.745  1.00  0.00     0.079 C 
ATOM     14  C   UNL     1      19.698  64.843  32.870  1.00  0.00     0.043 C 
ATOM     15  C   UNL     1      20.713  62.499  32.652  1.00  0.00     0.114 C 
ATOM     16  C   UNL     1      21.416  62.242  33.968  1.00  0.00     0.175 C 
ATOM     17  O   UNL     1      22.433  61.566  33.921  1.00  0.00    -0.296 OA
ATOM     18  C   UNL     1      20.717  62.529  35.312  1.00  0.00     0.185 C 
ATOM     19  C   UNL     1      21.253  60.773  38.774  1.00  0.00     0.198 C 
ATOM     20  O   UNL     1      20.518  60.308  39.629  1.00  0.00    -0.288 OA
ATOM     21  C   UNL     1      22.744  60.812  38.978  1.00  0.00     0.076 A 
ATOM     22  C   UNL     1      23.427  60.310  40.141  1.00  0.00     0.133 A 
ENDROOT
BRANCH   1  23
ATOM     23  C   UNL     1      25.591  59.975  41.487  1.00  0.00     0.155 C 
ATOM     24  C   UNL     1      27.733  59.053  43.146  1.00  0.00     0.179 C 
ATOM     25  C   UNL     1      27.506  58.310  41.817  1.00  0.00     0.149 C 
ATOM     26  C   UNL     1      27.255  60.535  43.025  1.00  0.00     0.147 C 
ATOM     27  C   UNL     1      26.040  58.493  41.343  1.00  0.00     0.071 C 
ATOM     28  O   UNL     1      26.711  60.814  41.743  1.00  0.00    -0.368 OA
ATOM     29  C   UNL     1      28.402  61.512  43.283  1.00  0.00     0.041 C 
BRANCH  24  30
ATOM     30  O   UNL     1      26.983  58.425  44.179  1.00  0.00    -0.340 OA
BRANCH  30  31
ATOM     31  C   UNL     1      27.621  58.467  45.448  1.00  0.00     0.276 C 
ATOM     32  C   UNL     1      27.824  56.161  46.117  1.00  0.00     0.189 C 
ATOM     33  O   UNL     1      28.458  57.328  45.614  1.00  0.00    -0.338 OA
ATOM     34  C   UNL     1      26.962  56.436  47.319  1.00  0.00     0.184 C 
ATOM     35  C   UNL     1      26.315  57.740  47.434  1.00  0.00     0.051 C 
ATOM     36  O   UNL     1      26.668  55.538  48.093  1.00  0.00    -0.292 OA
ATOM     37  C   UNL     1      26.588  58.679  46.532  1.00  0.00     0.038 C 
ATOM     38  C   UNL     1      27.037  55.428  45.027  1.00  0.00     0.048 C 
ENDBRANCH  30  31
ENDBRANCH  24  30
BRANCH  25  39
ATOM     39  O   UNL     1      28.438  58.788  40.864  1.00  0.00    -0.390 OA
ATOM     40  H   UNL     1      29.366  58.594  41.152  1.00  0.00     0.211 HD
ENDBRANCH  25  39
ENDBRANCH   1  23
BRANCH  22  41
ATOM     41  O   UNL     1      22.794  59.709  41.175  1.00  0.00    -0.507 OA
ATOM     42  H   UNL     1      22.661  58.764  41.301  1.00  0.00     0.293 HD
ENDBRANCH  22  41
BRANCH  18  43
ATOM     43  O   UNL     1      20.648  63.902  35.593  1.00  0.00    -0.374 OA
ATOM     44  H   UNL     1      21.353  64.353  35.061  1.00  0.00     0.212 HD
ENDBRANCH  18  43
BRANCH  11  45
ATOM     45  O   UNL     1      19.427  60.642  34.580  1.00  0.00    -0.382 OA
ATOM     46  H   UNL     1      19.429  60.666  33.587  1.00  0.00     0.212 HD
ENDBRANCH  11  45
BRANCH  13  47
ATOM     47  O   UNL     1      18.546  63.151  31.589  1.00  0.00    -0.346 OA
BRANCH  47  48
ATOM     48  C   UNL     1      17.910  64.333  31.103  1.00  0.00     0.251 C 
ATOM     49  C   UNL     1      18.072  64.367  29.548  1.00  0.00     0.065 C 
ATOM     50  O   UNL     1      16.542  64.309  31.532  1.00  0.00    -0.347 OA
ATOM     51  C   UNL     1      16.871  63.655  28.939  1.00  0.00     0.040 C 
ATOM     52  C   UNL     1      15.746  65.123  30.693  1.00  0.00     0.147 C 
ATOM     53  C   UNL     1      15.598  64.463  29.289  1.00  0.00     0.150 C 
ATOM     54  C   UNL     1      14.409  65.447  31.357  1.00  0.00     0.041 C 
BRANCH  53  55
ATOM     55  O   UNL     1      14.478  63.588  29.223  1.00  0.00    -0.343 OA
BRANCH  55  56
ATOM     56  C   UNL     1      14.483  62.767  28.062  1.00  0.00     0.275 C 
ATOM     57  C   UNL     1      13.769  61.464  28.422  1.00  0.00     0.038 C 
ATOM     58  O   UNL     1      13.827  63.499  27.023  1.00  0.00    -0.338 OA
ATOM     59  C   UNL     1      12.790  60.971  27.649  1.00  0.00     0.051 C 
ATOM     60  C   UNL     1      13.520  62.658  25.931  1.00  0.00     0.189 C 
ATOM     61  C   UNL     1      12.493  61.656  26.387  1.00  0.00     0.184 C 
ATOM     62  O   UNL     1      11.483  61.400  25.747  1.00  0.00    -0.292 OA
ATOM     63  C   UNL     1      13.062  63.490  24.736  1.00  0.00     0.048 C 
ENDBRANCH  55  56
ENDBRANCH  53  55
ENDBRANCH  47  48
ENDBRANCH  13  47
TORSDOF 11
ENDMDL
MODEL 2
REMARK VINA RESULT:   -13.935      1.948      2.506
REMARK INTER + INTRA:         -23.018
REMARK INTER:                 -21.421
REMARK INTRA:                  -1.597
REMARK UNBOUND:                -1.751
REMARK SMILES C[C@H]1O[C@@H](O[C@H]2[C@H](O)C[C@H](c3ccc4c(c3O)C(=O)C3=C(C4=O)[C@@]4(O)C(=O)C[C@@](C)(O[C@H]5CC[C@@H](O[C@H]6C=CC(=O)[C@@H](C)O6)[C@@H](C)O5)C[C@]4(O)C=C3)O[C@@H]2C)C=CC1=O
REMARK SMILES IDX 11 1 12 2 13 3 14 4 22 5 23 6 21 7 20 8 52 9 51 10 49 11
REMARK SMILES IDX 48 12 29 13 30 14 28 15 26 16 27 17 24 18 18 19 19 20 15 21
REMARK SMILES IDX 16 22 10 23 6 24 7 25 54 26 9 27 53 28 55 29 5 30 4 31 2 32
REMARK SMILES IDX 3 33 58 34 57 35 59 36 56 37 1 38 8 39 17 41 25 43 50 45
REMARK SMILES IDX 31 47 32 48 33 49 47 50 34 51 45 52 35 53 46 54 36 55 37 56
REMARK SMILES IDX 38 57 44 58 39 59 42 60 40 61 41 62 43 63
REMARK H PARENT 8 40 17 42 25 44 50 46
ROOT
ATOM      1  C   UNL     1      24.901  60.414  39.889  1.00  0.00     0.023 A 
ATOM      2  C   UNL     1      25.567  61.085  38.855  1.00  0.00     0.011 A 
ATOM      3  C   UNL     1      24.874  61.580  37.771  1.00  0.00     0.013 A 
ATOM      4  C   UNL     1      23.486  61.441  37.680  1.00  0.00     0.037 A 
ATOM      5  C   UNL     1      22.790  62.024  36.511  1.00  0.00     0.194 C 
ATOM      6  O   UNL     1      23.438  62.680  35.708  1.00  0.00    -0.289 OA
ATOM      7  C   UNL     1      21.312  61.897  36.345  1.00  0.00     0.054 C 
ATOM      8  C   UNL     1      20.591  61.318  37.345  1.00  0.00     0.033 C 
ATOM      9  C   UNL     1      19.098  61.406  37.327  1.00  0.00     0.011 C 
ATOM     10  C   UNL     1      18.430  61.839  36.249  1.00  0.00     0.012 C 
ATOM     11  C   UNL     1      19.162  62.017  34.944  1.00  0.00     0.126 C 
ATOM     12  C   UNL     1      18.360  62.914  33.929  1.00  0.00     0.079 C 
ATOM     13  C   UNL     1      19.160  63.461  32.676  1.00  0.00     0.079 C 
ATOM     14  C   UNL     1      19.453  64.981  32.849  1.00  0.00     0.043 C 
ATOM     15  C   UNL     1      20.500  62.666  32.510  1.00  0.00     0.114 C 
ATOM     16  C   UNL     1      21.249  62.372  33.791  1.00  0.00     0.175 C 
ATOM     17  O   UNL     1      22.276  61.718  33.686  1.00  0.00    -0.296 OA
ATOM     18  C   UNL     1      20.591  62.596  35.167  1.00  0.00     0.185 C 
ATOM     19  C   UNL     1      21.269  60.720  38.540  1.00  0.00     0.198 C 
ATOM     20  O   UNL     1      20.570  60.210  39.400  1.00  0.00    -0.288 OA
ATOM     21  C   UNL     1      22.765  60.778  38.698  1.00  0.00     0.076 A 
ATOM     22  C   UNL     1      23.494  60.246  39.818  1.00  0.00     0.133 A 
ENDROOT
BRANCH   1  23
ATOM     23  C   UNL     1      25.706  59.899  41.081  1.00  0.00     0.155 C 
ATOM     24  C   UNL     1      26.352  58.517  43.502  1.00  0.00     0.179 C 
ATOM     25  C   UNL     1      25.090  59.399  43.513  1.00  0.00     0.149 C 
ATOM     26  C   UNL     1      26.632  57.992  42.058  1.00  0.00     0.147 C 
ATOM     27  C   UNL     1      25.191  60.497  42.421  1.00  0.00     0.071 C 
ATOM     28  O   UNL     1      25.678  58.478  41.123  1.00  0.00    -0.368 OA
ATOM     29  C   UNL     1      26.617  56.465  42.009  1.00  0.00     0.041 C 
BRANCH  24  30
ATOM     30  O   UNL     1      27.473  59.283  43.924  1.00  0.00    -0.340 OA
BRANCH  30  31
ATOM     31  C   UNL     1      28.399  58.547  44.711  1.00  0.00     0.276 C 
ATOM     32  C   UNL     1      27.696  58.901  46.989  1.00  0.00     0.189 C 
ATOM     33  O   UNL     1      27.754  58.029  45.870  1.00  0.00    -0.338 OA
ATOM     34  C   UNL     1      29.020  59.550  47.294  1.00  0.00     0.184 C 
ATOM     35  C   UNL     1      29.940  59.816  46.192  1.00  0.00     0.051 C 
ATOM     36  O   UNL     1      29.250  60.001  48.405  1.00  0.00    -0.292 OA
ATOM     37  C   UNL     1      29.630  59.387  44.972  1.00  0.00     0.038 C 
ATOM     38  C   UNL     1      26.589  59.948  46.836  1.00  0.00     0.048 C 
ENDBRANCH  30  31
ENDBRANCH  24  30
BRANCH  25  39
ATOM     39  O   UNL     1      23.955  58.571  43.332  1.00  0.00    -0.390 OA
ATOM     40  H   UNL     1      24.130  57.656  43.670  1.00  0.00     0.211 HD
ENDBRANCH  25  39
ENDBRANCH   1  23
BRANCH  22  41
ATOM     41  O   UNL     1      22.905  59.594  40.848  1.00  0.00    -0.507 OA
ATOM     42  H   UNL     1      22.061  59.805  41.259  1.00  0.00     0.293 HD
ENDBRANCH  22  41
BRANCH  18  43
ATOM     43  O   UNL     1      20.507  63.955  35.503  1.00  0.00    -0.374 OA
ATOM     44  H   UNL     1      20.214  64.447  34.692  1.00  0.00     0.212 HD
ENDBRANCH  18  43
BRANCH  11  45
ATOM     45  O   UNL     1      19.309  60.715  34.405  1.00  0.00    -0.382 OA
ATOM     46  H   UNL     1      20.270  60.467  34.434  1.00  0.00     0.212 HD
ENDBRANCH  11  45
BRANCH  13  47
ATOM     47  O   UNL     1      18.289  63.318  31.543  1.00  0.00    -0.346 OA
BRANCH  47  48
ATOM     48  C   UNL     1      17.610  64.504  31.128  1.00  0.00     0.251 C 
ATOM     49  C   UNL     1      17.258  64.358  29.612  1.00  0.00     0.065 C 
ATOM     50  O   UNL     1      16.458  64.672  31.966  1.00  0.00    -0.347 OA
ATOM     51  C   UNL     1      15.879  63.718  29.514  1.00  0.00     0.040 C 
ATOM     52  C   UNL     1      15.489  65.474  31.320  1.00  0.00     0.147 C 
ATOM     53  C   UNL     1      14.847  64.690  30.136  1.00  0.00     0.150 C 
ATOM     54  C   UNL     1      14.467  66.006  32.323  1.00  0.00     0.041 C 
BRANCH  53  55
ATOM     55  O   UNL     1      13.711  63.938  30.544  1.00  0.00    -0.343 OA
BRANCH  55  56
ATOM     56  C   UNL     1      12.661  63.953  29.585  1.00  0.00     0.275 C 
ATOM     57  C   UNL     1      11.537  63.068  30.125  1.00  0.00     0.038 C 
ATOM     58  O   UNL     1      12.267  65.317  29.411  1.00  0.00    -0.338 OA
ATOM     59  C   UNL     1      10.269  63.501  30.167  1.00  0.00     0.051 C 
ATOM     60  C   UNL     1      11.043  65.402  28.711  1.00  0.00     0.189 C 
ATOM     61  C   UNL     1       9.965  64.811  29.581  1.00  0.00     0.184 C 
ATOM     62  O   UNL     1       8.892  65.362  29.777  1.00  0.00    -0.292 OA
ATOM     63  C   UNL     1      10.766  66.848  28.306  1.00  0.00     0.048 C 
ENDBRANCH  55  56
ENDBRANCH  53  55
ENDBRANCH  47  48
ENDBRANCH  13  47
TORSDOF 11
ENDMDL
MODEL 3
REMARK VINA RESULT:   -13.884      1.584      2.497
REMARK INTER + INTRA:         -22.940
REMARK INTER:                 -21.183
REMARK INTRA:                  -1.757
REMARK UNBOUND:                -1.751
REMARK SMILES C[C@H]1O[C@@H](O[C@H]2[C@H](O)C[C@H](c3ccc4c(c3O)C(=O)C3=C(C4=O)[C@@]4(O)C(=O)C[C@@](C)(O[C@H]5CC[C@@H](O[C@H]6C=CC(=O)[C@@H](C)O6)[C@@H](C)O5)C[C@]4(O)C=C3)O[C@@H]2C)C=CC1=O
REMARK SMILES IDX 11 1 12 2 13 3 14 4 22 5 23 6 21 7 20 8 52 9 51 10 49 11
REMARK SMILES IDX 48 12 29 13 30 14 28 15 26 16 27 17 24 18 18 19 19 20 15 21
REMARK SMILES IDX 16 22 10 23 6 24 7 25 54 26 9 27 53 28 55 29 5 30 4 31 2 32
REMARK SMILES IDX 3 33 58 34 57 35 59 36 56 37 1 38 8 39 17 41 25 43 50 45
REMARK SMILES IDX 31 47 32 48 33 49 47 50 34 51 45 52 35 53 46 54 36 55 37 56
REMARK SMILES IDX 38 57 44 58 39 59 42 60 40 61 41 62 43 63
REMARK H PARENT 8 40 17 42 25 44 50 46
ROOT
ATOM      1  C   UNL     1      25.168  60.461  40.300  1.00  0.00     0.023 A 
ATOM      2  C   UNL     1      25.811  61.190  39.290  1.00  0.00     0.011 A 
ATOM      3  C   UNL     1      25.104  61.682  38.212  1.00  0.00     0.013 A 
ATOM      4  C   UNL     1      23.725  61.483  38.105  1.00  0.00     0.037 A 
ATOM      5  C   UNL     1      23.014  62.066  36.945  1.00  0.00     0.194 C 
ATOM      6  O   UNL     1      23.637  62.772  36.167  1.00  0.00    -0.289 OA
ATOM      7  C   UNL     1      21.544  61.875  36.761  1.00  0.00     0.054 C 
ATOM      8  C   UNL     1      20.842  61.237  37.739  1.00  0.00     0.033 C 
ATOM      9  C   UNL     1      19.347  61.259  37.709  1.00  0.00     0.011 C 
ATOM     10  C   UNL     1      18.668  61.690  36.637  1.00  0.00     0.012 C 
ATOM     11  C   UNL     1      19.403  61.936  35.344  1.00  0.00     0.126 C 
ATOM     12  C   UNL     1      18.569  62.823  34.346  1.00  0.00     0.079 C 
ATOM     13  C   UNL     1      19.354  63.440  33.116  1.00  0.00     0.079 C 
ATOM     14  C   UNL     1      19.575  64.966  33.332  1.00  0.00     0.043 C 
ATOM     15  C   UNL     1      20.730  62.711  32.941  1.00  0.00     0.114 C 
ATOM     16  C   UNL     1      21.481  62.417  34.221  1.00  0.00     0.175 C 
ATOM     17  O   UNL     1      22.537  61.813  34.108  1.00  0.00    -0.296 OA
ATOM     18  C   UNL     1      20.801  62.573  35.596  1.00  0.00     0.185 C 
ATOM     19  C   UNL     1      21.536  60.639  38.924  1.00  0.00     0.198 C 
ATOM     20  O   UNL     1      20.854  60.075  39.763  1.00  0.00    -0.288 OA
ATOM     21  C   UNL     1      23.027  60.761  39.097  1.00  0.00     0.076 A 
ATOM     22  C   UNL     1      23.770  60.231  40.210  1.00  0.00     0.133 A 
ENDROOT
BRANCH   1  23
ATOM     23  C   UNL     1      25.985  59.952  41.484  1.00  0.00     0.155 C 
ATOM     24  C   UNL     1      26.650  58.602  43.918  1.00  0.00     0.179 C 
ATOM     25  C   UNL     1      25.407  59.511  43.938  1.00  0.00     0.149 C 
ATOM     26  C   UNL     1      26.888  58.043  42.480  1.00  0.00     0.147 C 
ATOM     27  C   UNL     1      25.511  60.586  42.823  1.00  0.00     0.071 C 
ATOM     28  O   UNL     1      25.927  58.533  41.555  1.00  0.00    -0.368 OA
ATOM     29  C   UNL     1      26.839  56.516  42.461  1.00  0.00     0.041 C 
BRANCH  24  30
ATOM     30  O   UNL     1      27.796  59.351  44.303  1.00  0.00    -0.340 OA
BRANCH  30  31
ATOM     31  C   UNL     1      29.013  58.628  44.180  1.00  0.00     0.276 C 
ATOM     32  C   UNL     1      30.216  59.086  46.218  1.00  0.00     0.189 C 
ATOM     33  O   UNL     1      29.442  58.170  45.458  1.00  0.00    -0.338 OA
ATOM     34  C   UNL     1      31.322  59.720  45.419  1.00  0.00     0.184 C 
ATOM     35  C   UNL     1      31.125  59.925  43.987  1.00  0.00     0.051 C 
ATOM     36  O   UNL     1      32.291  60.211  45.978  1.00  0.00    -0.292 OA
ATOM     37  C   UNL     1      30.021  59.453  43.412  1.00  0.00     0.038 C 
ATOM     38  C   UNL     1      29.339  60.147  46.889  1.00  0.00     0.048 C 
ENDBRANCH  30  31
ENDBRANCH  24  30
BRANCH  25  39
ATOM     39  O   UNL     1      24.251  58.706  43.796  1.00  0.00    -0.390 OA
ATOM     40  H   UNL     1      23.885  58.457  44.683  1.00  0.00     0.211 HD
ENDBRANCH  25  39
ENDBRANCH   1  23
BRANCH  22  41
ATOM     41  O   UNL     1      23.203  59.526  41.217  1.00  0.00    -0.507 OA
ATOM     42  H   UNL     1      23.621  59.259  42.042  1.00  0.00     0.293 HD
ENDBRANCH  22  41
BRANCH  18  43
ATOM     43  O   UNL     1      20.653  63.918  35.967  1.00  0.00    -0.374 OA
ATOM     44  H   UNL     1      20.172  64.380  35.233  1.00  0.00     0.212 HD
ENDBRANCH  18  43
BRANCH  11  45
ATOM     45  O   UNL     1      19.614  60.657  34.772  1.00  0.00    -0.382 OA
ATOM     46  H   UNL     1      19.520  60.731  33.786  1.00  0.00     0.212 HD
ENDBRANCH  11  45
BRANCH  13  47
ATOM     47  O   UNL     1      18.499  63.288  31.970  1.00  0.00    -0.346 OA
BRANCH  47  48
ATOM     48  C   UNL     1      17.872  64.482  31.501  1.00  0.00     0.251 C 
ATOM     49  C   UNL     1      17.895  64.461  29.938  1.00  0.00     0.065 C 
ATOM     50  O   UNL     1      16.549  64.533  32.051  1.00  0.00    -0.347 OA
ATOM     51  C   UNL     1      16.615  63.785  29.463  1.00  0.00     0.040 C 
ATOM     52  C   UNL     1      15.716  65.356  31.258  1.00  0.00     0.147 C 
ATOM     53  C   UNL     1      15.414  64.661  29.896  1.00  0.00     0.150 C 
ATOM     54  C   UNL     1      14.459  65.760  32.026  1.00  0.00     0.041 C 
BRANCH  53  55
ATOM     55  O   UNL     1      14.257  63.835  29.960  1.00  0.00    -0.343 OA
BRANCH  55  56
ATOM     56  C   UNL     1      13.413  63.974  28.824  1.00  0.00     0.275 C 
ATOM     57  C   UNL     1      13.754  65.309  28.162  1.00  0.00     0.038 C 
ATOM     58  O   UNL     1      13.656  62.848  27.977  1.00  0.00    -0.338 OA
ATOM     59  C   UNL     1      14.000  65.391  26.847  1.00  0.00     0.051 C 
ATOM     60  C   UNL     1      13.091  63.050  26.698  1.00  0.00     0.189 C 
ATOM     61  C   UNL     1      13.828  64.183  26.034  1.00  0.00     0.184 C 
ATOM     62  O   UNL     1      14.242  64.125  24.885  1.00  0.00    -0.292 OA
ATOM     63  C   UNL     1      13.129  61.752  25.893  1.00  0.00     0.048 C 
ENDBRANCH  55  56
ENDBRANCH  53  55
ENDBRANCH  47  48
ENDBRANCH  13  47
TORSDOF 11
ENDMDL
MODEL 4
REMARK VINA RESULT:   -13.676      1.665      2.616
REMARK INTER + INTRA:         -22.622
REMARK INTER:                 -21.206
REMARK INTRA:                  -1.416
REMARK UNBOUND:                -1.751
REMARK SMILES C[C@H]1O[C@@H](O[C@H]2[C@H](O)C[C@H](c3ccc4c(c3O)C(=O)C3=C(C4=O)[C@@]4(O)C(=O)C[C@@](C)(O[C@H]5CC[C@@H](O[C@H]6C=CC(=O)[C@@H](C)O6)[C@@H](C)O5)C[C@]4(O)C=C3)O[C@@H]2C)C=CC1=O
REMARK SMILES IDX 11 1 12 2 13 3 14 4 22 5 23 6 21 7 20 8 52 9 51 10 49 11
REMARK SMILES IDX 48 12 29 13 30 14 28 15 26 16 27 17 24 18 18 19 19 20 15 21
REMARK SMILES IDX 16 22 10 23 6 24 7 25 54 26 9 27 53 28 55 29 5 30 4 31 2 32
REMARK SMILES IDX 3 33 58 34 57 35 59 36 56 37 1 38 8 39 17 41 25 43 50 45
REMARK SMILES IDX 31 47 32 48 33 49 47 50 34 51 45 52 35 53 46 54 36 55 37 56
REMARK SMILES IDX 38 57 44 58 39 59 42 60 40 61 41 62 43 63
REMARK H PARENT 8 40 17 42 25 44 50 46
ROOT
ATOM      1  C   UNL     1      24.034  60.926  40.245  1.00  0.00     0.023 A 
ATOM      2  C   UNL     1      22.928  61.700  40.622  1.00  0.00     0.011 A 
ATOM      3  C   UNL     1      22.068  62.214  39.675  1.00  0.00     0.013 A 
ATOM      4  C   UNL     1      22.264  61.964  38.313  1.00  0.00     0.037 A 
ATOM      5  C   UNL     1      21.288  62.511  37.345  1.00  0.00     0.194 C 
ATOM      6  O   UNL     1      20.298  63.088  37.770  1.00  0.00    -0.289 OA
ATOM      7  C   UNL     1      21.448  62.296  35.876  1.00  0.00     0.054 C 
ATOM      8  C   UNL     1      22.461  61.495  35.442  1.00  0.00     0.033 C 
ATOM      9  C   UNL     1      22.493  61.054  34.013  1.00  0.00     0.011 C 
ATOM     10  C   UNL     1      21.690  61.596  33.088  1.00  0.00     0.012 C 
ATOM     11  C   UNL     1      20.902  62.837  33.425  1.00  0.00     0.126 C 
ATOM     12  C   UNL     1      19.721  63.084  32.415  1.00  0.00     0.079 C 
ATOM     13  C   UNL     1      18.620  64.137  32.852  1.00  0.00     0.079 C 
ATOM     14  C   UNL     1      17.309  63.403  33.262  1.00  0.00     0.043 C 
ATOM     15  C   UNL     1      19.153  65.003  34.044  1.00  0.00     0.114 C 
ATOM     16  C   UNL     1      19.915  64.249  35.112  1.00  0.00     0.175 C 
ATOM     17  O   UNL     1      20.373  64.913  36.029  1.00  0.00    -0.296 OA
ATOM     18  C   UNL     1      20.366  62.792  34.887  1.00  0.00     0.185 C 
ATOM     19  C   UNL     1      23.463  60.927  36.400  1.00  0.00     0.198 C 
ATOM     20  O   UNL     1      24.351  60.222  35.951  1.00  0.00    -0.288 OA
ATOM     21  C   UNL     1      23.359  61.186  37.880  1.00  0.00     0.076 A 
ATOM     22  C   UNL     1      24.266  60.667  38.869  1.00  0.00     0.133 A 
ENDROOT
BRANCH   1  23
ATOM     23  C   UNL     1      24.949  60.360  41.328  1.00  0.00     0.155 C 
ATOM     24  C   UNL     1      27.089  58.918  42.566  1.00  0.00     0.179 C 
ATOM     25  C   UNL     1      26.215  58.149  41.558  1.00  0.00     0.149 C 
ATOM     26  C   UNL     1      27.108  60.439  42.213  1.00  0.00     0.147 C 
ATOM     27  C   UNL     1      24.819  58.815  41.440  1.00  0.00     0.071 C 
ATOM     28  O   UNL     1      26.300  60.732  41.082  1.00  0.00    -0.368 OA
ATOM     29  C   UNL     1      28.528  60.927  41.928  1.00  0.00     0.041 C 
BRANCH  24  30
ATOM     30  O   UNL     1      26.553  58.769  43.875  1.00  0.00    -0.340 OA
BRANCH  30  31
ATOM     31  C   UNL     1      27.425  59.225  44.900  1.00  0.00     0.276 C 
ATOM     32  C   UNL     1      27.641  57.356  46.406  1.00  0.00     0.189 C 
ATOM     33  O   UNL     1      28.222  58.147  45.379  1.00  0.00    -0.338 OA
ATOM     34  C   UNL     1      27.042  58.181  47.512  1.00  0.00     0.184 C 
ATOM     35  C   UNL     1      26.494  59.495  47.188  1.00  0.00     0.051 C 
ATOM     36  O   UNL     1      26.859  57.699  48.619  1.00  0.00    -0.292 OA
ATOM     37  C   UNL     1      26.633  59.967  45.952  1.00  0.00     0.038 C 
ATOM     38  C   UNL     1      26.624  56.358  45.846  1.00  0.00     0.048 C 
ENDBRANCH  30  31
ENDBRANCH  24  30
BRANCH  25  39
ATOM     39  O   UNL     1      26.890  58.101  40.314  1.00  0.00    -0.390 OA
ATOM     40  H   UNL     1      26.424  57.494  39.684  1.00  0.00     0.211 HD
ENDBRANCH  25  39
ENDBRANCH   1  23
BRANCH  22  41
ATOM     41  O   UNL     1      25.347  59.910  38.566  1.00  0.00    -0.507 OA
ATOM     42  H   UNL     1      26.011  60.093  37.894  1.00  0.00     0.293 HD
ENDBRANCH  22  41
BRANCH  18  43
ATOM     43  O   UNL     1      19.301  61.884  34.975  1.00  0.00    -0.374 OA
ATOM     44  H   UNL     1      18.487  62.399  35.215  1.00  0.00     0.212 HD
ENDBRANCH  18  43
BRANCH  11  45
ATOM     45  O   UNL     1      21.824  63.911  33.342  1.00  0.00    -0.382 OA
ATOM     46  H   UNL     1      21.439  64.695  33.815  1.00  0.00     0.212 HD
ENDBRANCH  11  45
BRANCH  13  47
ATOM     47  O   UNL     1      18.325  64.924  31.686  1.00  0.00    -0.346 OA
BRANCH  47  48
ATOM     48  C   UNL     1      18.462  64.253  30.433  1.00  0.00     0.251 C 
ATOM     49  C   UNL     1      17.199  63.356  30.222  1.00  0.00     0.065 C 
ATOM     50  O   UNL     1      18.631  65.248  29.414  1.00  0.00    -0.347 OA
ATOM     51  C   UNL     1      16.155  64.188  29.488  1.00  0.00     0.040 C 
ATOM     52  C   UNL     1      18.257  64.730  28.152  1.00  0.00     0.147 C 
ATOM     53  C   UNL     1      16.712  64.540  28.087  1.00  0.00     0.150 C 
ATOM     54  C   UNL     1      18.811  65.597  27.023  1.00  0.00     0.041 C 
BRANCH  53  55
ATOM     55  O   UNL     1      16.046  65.708  27.620  1.00  0.00    -0.343 OA
BRANCH  55  56
ATOM     56  C   UNL     1      14.948  65.417  26.765  1.00  0.00     0.275 C 
ATOM     57  C   UNL     1      15.272  64.114  26.033  1.00  0.00     0.038 C 
ATOM     58  O   UNL     1      13.783  65.322  27.590  1.00  0.00    -0.338 OA
ATOM     59  C   UNL     1      14.393  63.103  25.989  1.00  0.00     0.051 C 
ATOM     60  C   UNL     1      12.708  64.746  26.878  1.00  0.00     0.189 C 
ATOM     61  C   UNL     1      13.064  63.315  26.571  1.00  0.00     0.184 C 
ATOM     62  O   UNL     1      12.298  62.383  26.764  1.00  0.00    -0.292 OA
ATOM     63  C   UNL     1      11.412  64.887  27.674  1.00  0.00     0.048 C 
ENDBRANCH  55  56
ENDBRANCH  53  55
ENDBRANCH  47  48
ENDBRANCH  13  47
TORSDOF 11
ENDMDL
MODEL 5
REMARK VINA RESULT:   -13.165      2.152      2.774
REMARK INTER + INTRA:         -21.842
REMARK INTER:                 -20.374
REMARK INTRA:                  -1.468
REMARK UNBOUND:                -1.751
REMARK SMILES C[C@H]1O[C@@H](O[C@H]2[C@H](O)C[C@H](c3ccc4c(c3O)C(=O)C3=C(C4=O)[C@@]4(O)C(=O)C[C@@](C)(O[C@H]5CC[C@@H](O[C@H]6C=CC(=O)[C@@H](C)O6)[C@@H](C)O5)C[C@]4(O)C=C3)O[C@@H]2C)C=CC1=O
REMARK SMILES IDX 11 1 12 2 13 3 14 4 22 5 23 6 21 7 20 8 52 9 51 10 49 11
REMARK SMILES IDX 48 12 29 13 30 14 28 15 26 16 27 17 24 18 18 19 19 20 15 21
REMARK SMILES IDX 16 22 10 23 6 24 7 25 54 26 9 27 53 28 55 29 5 30 4 31 2 32
REMARK SMILES IDX 3 33 58 34 57 35 59 36 56 37 1 38 8 39 17 41 25 43 50 45
REMARK SMILES IDX 31 47 32 48 33 49 47 50 34 51 45 52 35 53 46 54 36 55 37 56
REMARK SMILES IDX 38 57 44 58 39 59 42 60 40 61 41 62 43 63
REMARK H PARENT 8 40 17 42 25 44 50 46
ROOT
ATOM      1  C   UNL     1      24.936  60.476  39.741  1.00  0.00     0.023 A 
ATOM      2  C   UNL     1      25.535  61.221  38.717  1.00  0.00     0.011 A 
ATOM      3  C   UNL     1      24.780  61.744  37.688  1.00  0.00     0.013 A 
ATOM      4  C   UNL     1      23.395  61.561  37.646  1.00  0.00     0.037 A 
ATOM      5  C   UNL     1      22.632  62.176  36.537  1.00  0.00     0.194 C 
ATOM      6  O   UNL     1      23.223  62.894  35.744  1.00  0.00    -0.289 OA
ATOM      7  C   UNL     1      21.153  62.004  36.424  1.00  0.00     0.054 C 
ATOM      8  C   UNL     1      20.495  61.351  37.422  1.00  0.00     0.033 C 
ATOM      9  C   UNL     1      19.000  61.387  37.468  1.00  0.00     0.011 C 
ATOM     10  C   UNL     1      18.273  61.849  36.442  1.00  0.00     0.012 C 
ATOM     11  C   UNL     1      18.943  62.118  35.119  1.00  0.00     0.126 C 
ATOM     12  C   UNL     1      18.070  63.035  34.185  1.00  0.00     0.079 C 
ATOM     13  C   UNL     1      18.798  63.671  32.930  1.00  0.00     0.079 C 
ATOM     14  C   UNL     1      19.046  65.191  33.169  1.00  0.00     0.043 C 
ATOM     15  C   UNL     1      20.156  62.934  32.670  1.00  0.00     0.114 C 
ATOM     16  C   UNL     1      20.968  62.604  33.903  1.00  0.00     0.175 C 
ATOM     17  O   UNL     1      22.010  61.992  33.723  1.00  0.00    -0.296 OA
ATOM     18  C   UNL     1      20.360  62.735  35.314  1.00  0.00     0.185 C 
ATOM     19  C   UNL     1      21.242  60.719  38.557  1.00  0.00     0.198 C 
ATOM     20  O   UNL     1      20.597  60.142  39.417  1.00  0.00    -0.288 OA
ATOM     21  C   UNL     1      22.741  60.823  38.656  1.00  0.00     0.076 A 
ATOM     22  C   UNL     1      23.533  60.261  39.718  1.00  0.00     0.133 A 
ENDROOT
BRANCH   1  23
ATOM     23  C   UNL     1      25.807  59.932  40.871  1.00  0.00     0.155 C 
ATOM     24  C   UNL     1      27.667  59.861  43.044  1.00  0.00     0.179 C 
ATOM     25  C   UNL     1      28.113  60.590  41.764  1.00  0.00     0.149 C 
ATOM     26  C   UNL     1      26.113  59.917  43.186  1.00  0.00     0.147 C 
ATOM     27  C   UNL     1      27.321  60.059  40.540  1.00  0.00     0.071 C 
ATOM     28  O   UNL     1      25.506  60.593  42.093  1.00  0.00    -0.368 OA
ATOM     29  C   UNL     1      25.696  60.618  44.478  1.00  0.00     0.041 C 
BRANCH  24  30
ATOM     30  O   UNL     1      28.062  58.496  42.979  1.00  0.00    -0.340 OA
BRANCH  30  31
ATOM     31  C   UNL     1      29.452  58.297  43.192  1.00  0.00     0.276 C 
ATOM     32  C   UNL     1      29.914  56.116  42.275  1.00  0.00     0.189 C 
ATOM     33  O   UNL     1      30.005  57.526  42.130  1.00  0.00    -0.338 OA
ATOM     34  C   UNL     1      30.348  55.640  43.635  1.00  0.00     0.184 C 
ATOM     35  C   UNL     1      30.146  56.519  44.784  1.00  0.00     0.051 C 
ATOM     36  O   UNL     1      30.699  54.483  43.806  1.00  0.00    -0.292 OA
ATOM     37  C   UNL     1      29.683  57.749  44.582  1.00  0.00     0.038 C 
ATOM     38  C   UNL     1      28.516  55.599  41.927  1.00  0.00     0.048 C 
ENDBRANCH  30  31
ENDBRANCH  24  30
BRANCH  25  39
ATOM     39  O   UNL     1      27.936  61.983  41.949  1.00  0.00    -0.390 OA
ATOM     40  H   UNL     1      26.987  62.238  41.819  1.00  0.00     0.211 HD
ENDBRANCH  25  39
ENDBRANCH   1  23
BRANCH  22  41
ATOM     41  O   UNL     1      23.011  59.539  40.736  1.00  0.00    -0.507 OA
ATOM     42  H   UNL     1      23.169  59.667  41.677  1.00  0.00     0.293 HD
ENDBRANCH  22  41
BRANCH  18  43
ATOM     43  O   UNL     1      20.245  64.072  35.722  1.00  0.00    -0.374 OA
ATOM     44  H   UNL     1      19.925  64.597  34.943  1.00  0.00     0.212 HD
ENDBRANCH  18  43
BRANCH  11  45
ATOM     45  O   UNL     1      19.111  60.850  34.509  1.00  0.00    -0.382 OA
ATOM     46  H   UNL     1      18.504  60.792  33.726  1.00  0.00     0.212 HD
ENDBRANCH  11  45
BRANCH  13  47
ATOM     47  O   UNL     1      17.885  63.554  31.827  1.00  0.00    -0.346 OA
BRANCH  47  48
ATOM     48  C   UNL     1      17.225  64.759  31.436  1.00  0.00     0.251 C 
ATOM     49  C   UNL     1      16.697  64.572  29.976  1.00  0.00     0.065 C 
ATOM     50  O   UNL     1      16.186  65.024  32.388  1.00  0.00    -0.347 OA
ATOM     51  C   UNL     1      15.285  64.008  30.061  1.00  0.00     0.040 C 
ATOM     52  C   UNL     1      15.193  65.853  31.817  1.00  0.00     0.147 C 
ATOM     53  C   UNL     1      14.381  65.061  30.748  1.00  0.00     0.150 C 
ATOM     54  C   UNL     1      14.319  66.482  32.901  1.00  0.00     0.041 C 
BRANCH  53  55
ATOM     55  O   UNL     1      13.261  64.390  31.314  1.00  0.00    -0.343 OA
BRANCH  55  56
ATOM     56  C   UNL     1      12.042  64.684  30.644  1.00  0.00     0.275 C 
ATOM     57  C   UNL     1      11.375  65.837  31.396  1.00  0.00     0.038 C 
ATOM     58  O   UNL     1      12.370  65.011  29.291  1.00  0.00    -0.338 OA
ATOM     59  C   UNL     1      10.928  66.923  30.749  1.00  0.00     0.051 C 
ATOM     60  C   UNL     1      11.268  65.602  28.635  1.00  0.00     0.189 C 
ATOM     61  C   UNL     1      10.996  66.933  29.284  1.00  0.00     0.184 C 
ATOM     62  O   UNL     1      10.817  67.960  28.647  1.00  0.00    -0.292 OA
ATOM     63  C   UNL     1      11.541  65.708  27.136  1.00  0.00     0.048 C 
ENDBRANCH  55  56
ENDBRANCH  53  55
ENDBRANCH  47  48
ENDBRANCH  13  47
TORSDOF 11
ENDMDL
MODEL 6
REMARK VINA RESULT:   -13.159      3.770     18.330
REMARK INTER + INTRA:         -21.834
REMARK INTER:                 -20.094
REMARK INTRA:                  -1.740
REMARK UNBOUND:                -1.751
REMARK SMILES C[C@H]1O[C@@H](O[C@H]2[C@H](O)C[C@H](c3ccc4c(c3O)C(=O)C3=C(C4=O)[C@@]4(O)C(=O)C[C@@](C)(O[C@H]5CC[C@@H](O[C@H]6C=CC(=O)[C@@H](C)O6)[C@@H](C)O5)C[C@]4(O)C=C3)O[C@@H]2C)C=CC1=O
REMARK SMILES IDX 11 1 12 2 13 3 14 4 22 5 23 6 21 7 20 8 52 9 51 10 49 11
REMARK SMILES IDX 48 12 29 13 30 14 28 15 26 16 27 17 24 18 18 19 19 20 15 21
REMARK SMILES IDX 16 22 10 23 6 24 7 25 54 26 9 27 53 28 55 29 5 30 4 31 2 32
REMARK SMILES IDX 3 33 58 34 57 35 59 36 56 37 1 38 8 39 17 41 25 43 50 45
REMARK SMILES IDX 31 47 32 48 33 49 47 50 34 51 45 52 35 53 46 54 36 55 37 56
REMARK SMILES IDX 38 57 44 58 39 59 42 60 40 61 41 62 43 63
REMARK H PARENT 8 40 17 42 25 44 50 46
ROOT
ATOM      1  C   UNL     1      23.961  61.508  38.825  1.00  0.00     0.023 A 
ATOM      2  C   UNL     1      24.547  62.496  39.628  1.00  0.00     0.011 A 
ATOM      3  C   UNL     1      25.254  62.158  40.763  1.00  0.00     0.013 A 
ATOM      4  C   UNL     1      25.421  60.821  41.135  1.00  0.00     0.037 A 
ATOM      5  C   UNL     1      26.221  60.516  42.343  1.00  0.00     0.194 C 
ATOM      6  O   UNL     1      26.779  61.434  42.925  1.00  0.00    -0.289 OA
ATOM      7  C   UNL     1      26.424  59.111  42.805  1.00  0.00     0.054 C 
ATOM      8  C   UNL     1      25.942  58.096  42.035  1.00  0.00     0.033 C 
ATOM      9  C   UNL     1      26.348  56.687  42.331  1.00  0.00     0.011 C 
ATOM     10  C   UNL     1      26.989  56.360  43.461  1.00  0.00     0.012 C 
ATOM     11  C   UNL     1      27.099  57.373  44.571  1.00  0.00     0.126 C 
ATOM     12  C   UNL     1      28.216  56.994  45.613  1.00  0.00     0.079 C 
ATOM     13  C   UNL     1      28.667  58.133  46.618  1.00  0.00     0.079 C 
ATOM     14  C   UNL     1      30.074  58.671  46.221  1.00  0.00     0.043 C 
ATOM     15  C   UNL     1      27.619  59.297  46.611  1.00  0.00     0.114 C 
ATOM     16  C   UNL     1      27.082  59.686  45.251  1.00  0.00     0.175 C 
ATOM     17  O   UNL     1      26.233  60.564  45.230  1.00  0.00    -0.296 OA
ATOM     18  C   UNL     1      27.342  58.806  44.012  1.00  0.00     0.185 C 
ATOM     19  C   UNL     1      25.130  58.375  40.807  1.00  0.00     0.198 C 
ATOM     20  O   UNL     1      24.721  57.424  40.161  1.00  0.00    -0.288 OA
ATOM     21  C   UNL     1      24.857  59.786  40.358  1.00  0.00     0.076 A 
ATOM     22  C   UNL     1      24.103  60.143  39.185  1.00  0.00     0.133 A 
ENDROOT
BRANCH   1  23
ATOM     23  C   UNL     1      23.204  61.926  37.567  1.00  0.00     0.155 C 
ATOM     24  C   UNL     1      21.714  61.739  35.131  1.00  0.00     0.179 C 
ATOM     25  C   UNL     1      22.996  60.893  35.235  1.00  0.00     0.149 C 
ATOM     26  C   UNL     1      21.103  61.972  36.549  1.00  0.00     0.147 C 
ATOM     27  C   UNL     1      23.966  61.514  36.275  1.00  0.00     0.071 C 
ATOM     28  O   UNL     1      21.892  61.377  37.570  1.00  0.00    -0.368 OA
ATOM     29  C   UNL     1      19.687  61.406  36.646  1.00  0.00     0.041 C 
BRANCH  24  30
ATOM     30  O   UNL     1      22.021  63.005  34.563  1.00  0.00    -0.340 OA
BRANCH  30  31
ATOM     31  C   UNL     1      21.443  63.207  33.280  1.00  0.00     0.276 C 
ATOM     32  C   UNL     1      19.676  64.806  33.641  1.00  0.00     0.189 C 
ATOM     33  O   UNL     1      20.986  64.550  33.155  1.00  0.00    -0.338 OA
ATOM     34  C   UNL     1      18.669  63.795  33.166  1.00  0.00     0.184 C 
ATOM     35  C   UNL     1      19.112  62.427  32.915  1.00  0.00     0.051 C 
ATOM     36  O   UNL     1      17.477  64.062  33.156  1.00  0.00    -0.292 OA
ATOM     37  C   UNL     1      20.407  62.139  33.013  1.00  0.00     0.038 C 
ATOM     38  C   UNL     1      19.653  64.937  35.166  1.00  0.00     0.048 C 
ENDBRANCH  30  31
ENDBRANCH  24  30
BRANCH  25  39
ATOM     39  O   UNL     1      22.639  59.564  35.567  1.00  0.00    -0.390 OA
ATOM     40  H   UNL     1      23.399  58.946  35.413  1.00  0.00     0.211 HD
ENDBRANCH  25  39
ENDBRANCH   1  23
BRANCH  22  41
ATOM     41  O   UNL     1      23.520  59.234  38.369  1.00  0.00    -0.507 OA
ATOM     42  H   UNL     1      23.814  58.975  37.490  1.00  0.00     0.293 HD
ENDBRANCH  22  41
BRANCH  18  43
ATOM     43  O   UNL     1      28.661  58.918  43.547  1.00  0.00    -0.374 OA
ATOM     44  H   UNL     1      28.963  59.847  43.722  1.00  0.00     0.212 HD
ENDBRANCH  18  43
BRANCH  11  45
ATOM     45  O   UNL     1      25.837  57.375  45.216  1.00  0.00    -0.382 OA
ATOM     46  H   UNL     1      25.146  57.650  44.557  1.00  0.00     0.212 HD
ENDBRANCH  11  45
BRANCH  13  47
ATOM     47  O   UNL     1      28.794  57.511  47.908  1.00  0.00    -0.346 OA
BRANCH  47  48
ATOM     48  C   UNL     1      28.704  56.086  47.921  1.00  0.00     0.251 C 
ATOM     49  C   UNL     1      30.098  55.515  48.338  1.00  0.00     0.065 C 
ATOM     50  O   UNL     1      27.647  55.717  48.817  1.00  0.00    -0.347 OA
ATOM     51  C   UNL     1      30.110  55.375  49.855  1.00  0.00     0.040 C 
ATOM     52  C   UNL     1      27.830  54.393  49.278  1.00  0.00     0.147 C 
ATOM     53  C   UNL     1      29.043  54.327  50.254  1.00  0.00     0.150 C 
ATOM     54  C   UNL     1      26.537  53.842  49.878  1.00  0.00     0.041 C 
BRANCH  53  55
ATOM     55  O   UNL     1      28.660  54.568  51.603  1.00  0.00    -0.343 OA
BRANCH  55  56
ATOM     56  C   UNL     1      29.772  54.691  52.482  1.00  0.00     0.275 C 
ATOM     57  C   UNL     1      29.272  54.387  53.895  1.00  0.00     0.038 C 
ATOM     58  O   UNL     1      30.772  53.775  52.030  1.00  0.00    -0.338 OA
ATOM     59  C   UNL     1      29.911  53.513  54.685  1.00  0.00     0.051 C 
ATOM     60  C   UNL     1      31.781  53.611  53.005  1.00  0.00     0.189 C 
ATOM     61  C   UNL     1      31.169  52.934  54.202  1.00  0.00     0.184 C 
ATOM     62  O   UNL     1      31.685  51.978  54.762  1.00  0.00    -0.292 OA
ATOM     63  C   UNL     1      32.963  52.843  52.417  1.00  0.00     0.048 C 
ENDBRANCH  55  56
ENDBRANCH  53  55
ENDBRANCH  47  48
ENDBRANCH  13  47
TORSDOF 11
ENDMDL
MODEL 7
REMARK VINA RESULT:   -12.966      1.728      2.233
REMARK INTER + INTRA:         -21.539
REMARK INTER:                 -20.327
REMARK INTRA:                  -1.212
REMARK UNBOUND:                -1.751
REMARK SMILES C[C@H]1O[C@@H](O[C@H]2[C@H](O)C[C@H](c3ccc4c(c3O)C(=O)C3=C(C4=O)[C@@]4(O)C(=O)C[C@@](C)(O[C@H]5CC[C@@H](O[C@H]6C=CC(=O)[C@@H](C)O6)[C@@H](C)O5)C[C@]4(O)C=C3)O[C@@H]2C)C=CC1=O
REMARK SMILES IDX 11 1 12 2 13 3 14 4 22 5 23 6 21 7 20 8 52 9 51 10 49 11
REMARK SMILES IDX 48 12 29 13 30 14 28 15 26 16 27 17 24 18 18 19 19 20 15 21
REMARK SMILES IDX 16 22 10 23 6 24 7 25 54 26 9 27 53 28 55 29 5 30 4 31 2 32
REMARK SMILES IDX 3 33 58 34 57 35 59 36 56 37 1 38 8 39 17 41 25 43 50 45
REMARK SMILES IDX 31 47 32 48 33 49 47 50 34 51 45 52 35 53 46 54 36 55 37 56
REMARK SMILES IDX 38 57 44 58 39 59 42 60 40 61 41 62 43 63
REMARK H PARENT 8 40 17 42 25 44 50 46
ROOT
ATOM      1  C   UNL     1      25.544  59.363  40.946  1.00  0.00     0.023 A 
ATOM      2  C   UNL     1      25.822  58.774  39.705  1.00  0.00     0.011 A 
ATOM      3  C   UNL     1      25.098  59.115  38.582  1.00  0.00     0.013 A 
ATOM      4  C   UNL     1      24.078  60.069  38.645  1.00  0.00     0.037 A 
ATOM      5  C   UNL     1      23.359  60.422  37.400  1.00  0.00     0.194 C 
ATOM      6  O   UNL     1      23.736  59.933  36.345  1.00  0.00    -0.289 OA
ATOM      7  C   UNL     1      22.249  61.420  37.402  1.00  0.00     0.054 C 
ATOM      8  C   UNL     1      21.970  62.083  38.558  1.00  0.00     0.033 C 
ATOM      9  C   UNL     1      21.048  63.261  38.531  1.00  0.00     0.011 C 
ATOM     10  C   UNL     1      20.309  63.554  37.453  1.00  0.00     0.012 C 
ATOM     11  C   UNL     1      20.211  62.557  36.327  1.00  0.00     0.126 C 
ATOM     12  C   UNL     1      19.681  63.211  34.997  1.00  0.00     0.079 C 
ATOM     13  C   UNL     1      19.863  62.369  33.668  1.00  0.00     0.079 C 
ATOM     14  C   UNL     1      21.001  62.980  32.798  1.00  0.00     0.043 C 
ATOM     15  C   UNL     1      20.192  60.878  34.021  1.00  0.00     0.114 C 
ATOM     16  C   UNL     1      21.166  60.675  35.160  1.00  0.00     0.175 C 
ATOM     17  O   UNL     1      21.403  59.519  35.477  1.00  0.00    -0.296 OA
ATOM     18  C   UNL     1      21.575  61.847  36.076  1.00  0.00     0.185 C 
ATOM     19  C   UNL     1      22.682  61.747  39.833  1.00  0.00     0.198 C 
ATOM     20  O   UNL     1      22.385  62.372  40.838  1.00  0.00    -0.288 OA
ATOM     21  C   UNL     1      23.761  60.697  39.870  1.00  0.00     0.076 A 
ATOM     22  C   UNL     1      24.504  60.325  41.044  1.00  0.00     0.133 A 
ENDROOT
BRANCH   1  23
ATOM     23  C   UNL     1      26.383  58.971  42.160  1.00  0.00     0.155 C 
ATOM     24  C   UNL     1      28.004  57.405  43.923  1.00  0.00     0.179 C 
ATOM     25  C   UNL     1      26.695  56.768  43.423  1.00  0.00     0.149 C 
ATOM     26  C   UNL     1      28.539  58.433  42.876  1.00  0.00     0.147 C 
ATOM     27  C   UNL     1      25.685  57.871  43.009  1.00  0.00     0.071 C 
ATOM     28  O   UNL     1      27.676  58.542  41.752  1.00  0.00    -0.368 OA
ATOM     29  C   UNL     1      29.931  58.047  42.377  1.00  0.00     0.041 C 
BRANCH  24  30
ATOM     30  O   UNL     1      27.766  58.093  45.144  1.00  0.00    -0.340 OA
BRANCH  30  31
ATOM     31  C   UNL     1      27.304  57.249  46.190  1.00  0.00     0.276 C 
ATOM     32  C   UNL     1      27.157  58.680  48.123  1.00  0.00     0.189 C 
ATOM     33  O   UNL     1      26.479  57.986  47.086  1.00  0.00    -0.338 OA
ATOM     34  C   UNL     1      28.176  57.828  48.829  1.00  0.00     0.184 C 
ATOM     35  C   UNL     1      28.853  56.776  48.076  1.00  0.00     0.051 C 
ATOM     36  O   UNL     1      28.558  58.117  49.952  1.00  0.00    -0.292 OA
ATOM     37  C   UNL     1      28.476  56.533  46.823  1.00  0.00     0.038 C 
ATOM     38  C   UNL     1      27.779  59.985  47.618  1.00  0.00     0.048 C 
ENDBRANCH  30  31
ENDBRANCH  24  30
BRANCH  25  39
ATOM     39  O   UNL     1      26.995  55.890  42.353  1.00  0.00    -0.390 OA
ATOM     40  H   UNL     1      26.167  55.611  41.884  1.00  0.00     0.211 HD
ENDBRANCH  25  39
ENDBRANCH   1  23
BRANCH  22  41
ATOM     41  O   UNL     1      24.285  60.863  42.266  1.00  0.00    -0.507 OA
ATOM     42  H   UNL     1      23.899  60.423  43.030  1.00  0.00     0.293 HD
ENDBRANCH  22  41
BRANCH  18  43
ATOM     43  O   UNL     1      22.463  62.731  35.445  1.00  0.00    -0.374 OA
ATOM     44  H   UNL     1      21.968  63.180  34.711  1.00  0.00     0.212 HD
ENDBRANCH  18  43
BRANCH  11  45
ATOM     45  O   UNL     1      19.292  61.571  36.765  1.00  0.00    -0.382 OA
ATOM     46  H   UNL     1      18.416  61.739  36.329  1.00  0.00     0.212 HD
ENDBRANCH  11  45
BRANCH  13  47
ATOM     47  O   UNL     1      18.638  62.504  32.929  1.00  0.00    -0.346 OA
BRANCH  47  48
ATOM     48  C   UNL     1      18.248  63.842  32.613  1.00  0.00     0.251 C 
ATOM     49  C   UNL     1      18.763  64.171  31.174  1.00  0.00     0.065 C 
ATOM     50  O   UNL     1      16.822  63.930  32.743  1.00  0.00    -0.347 OA
ATOM     51  C   UNL     1      17.668  63.782  30.189  1.00  0.00     0.040 C 
ATOM     52  C   UNL     1      16.323  65.007  31.974  1.00  0.00     0.147 C 
ATOM     53  C   UNL     1      16.435  64.679  30.454  1.00  0.00     0.150 C 
ATOM     54  C   UNL     1      14.908  65.378  32.413  1.00  0.00     0.041 C 
BRANCH  53  55
ATOM     55  O   UNL     1      15.279  64.009  29.963  1.00  0.00    -0.343 OA
BRANCH  55  56
ATOM     56  C   UNL     1      15.547  63.205  28.822  1.00  0.00     0.275 C 
ATOM     57  C   UNL     1      14.554  62.042  28.840  1.00  0.00     0.038 C 
ATOM     58  O   UNL     1      15.409  64.043  27.672  1.00  0.00    -0.338 OA
ATOM     59  C   UNL     1      13.831  61.727  27.756  1.00  0.00     0.051 C 
ATOM     60  C   UNL     1      15.361  63.272  26.489  1.00  0.00     0.189 C 
ATOM     61  C   UNL     1      14.093  62.459  26.513  1.00  0.00     0.184 C 
ATOM     62  O   UNL     1      13.335  62.383  25.558  1.00  0.00    -0.292 OA
ATOM     63  C   UNL     1      15.475  64.176  25.264  1.00  0.00     0.048 C 
ENDBRANCH  55  56
ENDBRANCH  53  55
ENDBRANCH  47  48
ENDBRANCH  13  47
TORSDOF 11
ENDMDL
MODEL 8
REMARK VINA RESULT:   -12.947      2.275      3.163
REMARK INTER + INTRA:         -21.509
REMARK INTER:                 -19.962
REMARK INTRA:                  -1.548
REMARK UNBOUND:                -1.751
REMARK SMILES C[C@H]1O[C@@H](O[C@H]2[C@H](O)C[C@H](c3ccc4c(c3O)C(=O)C3=C(C4=O)[C@@]4(O)C(=O)C[C@@](C)(O[C@H]5CC[C@@H](O[C@H]6C=CC(=O)[C@@H](C)O6)[C@@H](C)O5)C[C@]4(O)C=C3)O[C@@H]2C)C=CC1=O
REMARK SMILES IDX 11 1 12 2 13 3 14 4 22 5 23 6 21 7 20 8 52 9 51 10 49 11
REMARK SMILES IDX 48 12 29 13 30 14 28 15 26 16 27 17 24 18 18 19 19 20 15 21
REMARK SMILES IDX 16 22 10 23 6 24 7 25 54 26 9 27 53 28 55 29 5 30 4 31 2 32
REMARK SMILES IDX 3 33 58 34 57 35 59 36 56 37 1 38 8 39 17 41 25 43 50 45
REMARK SMILES IDX 31 47 32 48 33 49 47 50 34 51 45 52 35 53 46 54 36 55 37 56
REMARK SMILES IDX 38 57 44 58 39 59 42 60 40 61 41 62 43 63
REMARK H PARENT 8 40 17 42 25 44 50 46
ROOT
ATOM      1  C   UNL     1      24.882  60.790  39.079  1.00  0.00     0.023 A 
ATOM      2  C   UNL     1      25.398  61.589  38.049  1.00  0.00     0.011 A 
ATOM      3  C   UNL     1      24.572  62.107  37.073  1.00  0.00     0.013 A 
ATOM      4  C   UNL     1      23.196  61.863  37.092  1.00  0.00     0.037 A 
ATOM      5  C   UNL     1      22.354  62.473  36.039  1.00  0.00     0.194 C 
ATOM      6  O   UNL     1      22.874  63.238  35.240  1.00  0.00    -0.289 OA
ATOM      7  C   UNL     1      20.880  62.239  35.991  1.00  0.00     0.054 C 
ATOM      8  C   UNL     1      20.300  61.530  36.999  1.00  0.00     0.033 C 
ATOM      9  C   UNL     1      18.809  61.498  37.117  1.00  0.00     0.011 C 
ATOM     10  C   UNL     1      18.014  61.955  36.140  1.00  0.00     0.012 C 
ATOM     11  C   UNL     1      18.607  62.289  34.796  1.00  0.00     0.126 C 
ATOM     12  C   UNL     1      17.650  63.192  33.931  1.00  0.00     0.079 C 
ATOM     13  C   UNL     1      18.288  63.894  32.663  1.00  0.00     0.079 C 
ATOM     14  C   UNL     1      18.482  65.416  32.934  1.00  0.00     0.043 C 
ATOM     15  C   UNL     1      19.663  63.226  32.317  1.00  0.00     0.114 C 
ATOM     16  C   UNL     1      20.547  62.898  33.500  1.00  0.00     0.175 C 
ATOM     17  O   UNL     1      21.605  62.339  33.253  1.00  0.00    -0.296 OA
ATOM     18  C   UNL     1      20.003  62.964  34.941  1.00  0.00     0.185 C 
ATOM     19  C   UNL     1      21.128  60.901  38.078  1.00  0.00     0.198 C 
ATOM     20  O   UNL     1      20.551  60.273  38.950  1.00  0.00    -0.288 OA
ATOM     21  C   UNL     1      22.624  61.069  38.110  1.00  0.00     0.076 A 
ATOM     22  C   UNL     1      23.490  60.514  39.115  1.00  0.00     0.133 A 
ENDROOT
BRANCH   1  23
ATOM     23  C   UNL     1      25.830  60.255  40.150  1.00  0.00     0.155 C 
ATOM     24  C   UNL     1      26.772  59.271  42.666  1.00  0.00     0.179 C 
ATOM     25  C   UNL     1      25.947  60.571  42.686  1.00  0.00     0.149 C 
ATOM     26  C   UNL     1      26.359  58.388  41.447  1.00  0.00     0.147 C 
ATOM     27  C   UNL     1      26.023  61.277  41.306  1.00  0.00     0.071 C 
ATOM     28  O   UNL     1      25.358  59.012  40.654  1.00  0.00    -0.368 OA
ATOM     29  C   UNL     1      25.834  57.026  41.899  1.00  0.00     0.041 C 
BRANCH  24  30
ATOM     30  O   UNL     1      28.154  59.584  42.545  1.00  0.00    -0.340 OA
BRANCH  30  31
ATOM     31  C   UNL     1      28.647  60.395  43.602  1.00  0.00     0.276 C 
ATOM     32  C   UNL     1      31.004  59.903  43.714  1.00  0.00     0.189 C 
ATOM     33  O   UNL     1      29.981  60.807  43.322  1.00  0.00    -0.338 OA
ATOM     34  C   UNL     1      30.828  59.396  45.119  1.00  0.00     0.184 C 
ATOM     35  C   UNL     1      29.476  59.262  45.653  1.00  0.00     0.051 C 
ATOM     36  O   UNL     1      31.777  58.941  45.740  1.00  0.00    -0.292 OA
ATOM     37  C   UNL     1      28.448  59.688  44.924  1.00  0.00     0.038 C 
ATOM     38  C   UNL     1      31.149  58.747  42.721  1.00  0.00     0.048 C 
ENDBRANCH  30  31
ENDBRANCH  24  30
BRANCH  25  39
ATOM     39  O   UNL     1      24.615  60.260  43.053  1.00  0.00    -0.390 OA
ATOM     40  H   UNL     1      24.136  59.825  42.302  1.00  0.00     0.211 HD
ENDBRANCH  25  39
ENDBRANCH   1  23
BRANCH  22  41
ATOM     41  O   UNL     1      23.050  59.742  40.136  1.00  0.00    -0.507 OA
ATOM     42  H   UNL     1      23.545  59.059  40.599  1.00  0.00     0.293 HD
ENDBRANCH  22  41
BRANCH  18  43
ATOM     43  O   UNL     1      19.850  64.283  35.394  1.00  0.00    -0.374 OA
ATOM     44  H   UNL     1      20.094  64.887  34.645  1.00  0.00     0.212 HD
ENDBRANCH  18  43
BRANCH  11  45
ATOM     45  O   UNL     1      18.800  61.047  34.141  1.00  0.00    -0.382 OA
ATOM     46  H   UNL     1      18.597  60.316  34.782  1.00  0.00     0.212 HD
ENDBRANCH  11  45
BRANCH  13  47
ATOM     47  O   UNL     1      17.329  63.766  31.601  1.00  0.00    -0.346 OA
BRANCH  47  48
ATOM     48  C   UNL     1      17.866  63.474  30.310  1.00  0.00     0.251 C 
ATOM     49  C   UNL     1      16.855  62.547  29.561  1.00  0.00     0.065 C 
ATOM     50  O   UNL     1      18.104  64.718  29.637  1.00  0.00    -0.347 OA
ATOM     51  C   UNL     1      15.891  63.438  28.789  1.00  0.00     0.040 C 
ATOM     52  C   UNL     1      18.129  64.525  28.237  1.00  0.00     0.147 C 
ATOM     53  C   UNL     1      16.696  64.207  27.713  1.00  0.00     0.150 C 
ATOM     54  C   UNL     1      18.783  65.714  27.535  1.00  0.00     0.041 C 
BRANCH  53  55
ATOM     55  O   UNL     1      15.976  65.385  27.371  1.00  0.00    -0.343 OA
BRANCH  55  56
ATOM     56  C   UNL     1      15.481  65.367  26.038  1.00  0.00     0.275 C 
ATOM     57  C   UNL     1      13.957  65.284  26.118  1.00  0.00     0.038 C 
ATOM     58  O   UNL     1      15.946  66.558  25.398  1.00  0.00    -0.338 OA
ATOM     59  C   UNL     1      13.177  66.123  25.423  1.00  0.00     0.051 C 
ATOM     60  C   UNL     1      15.265  66.773  24.179  1.00  0.00     0.189 C 
ATOM     61  C   UNL     1      13.821  67.058  24.495  1.00  0.00     0.184 C 
ATOM     62  O   UNL     1      13.204  67.990  24.000  1.00  0.00    -0.292 OA
ATOM     63  C   UNL     1      15.941  67.889  23.386  1.00  0.00     0.048 C 
ENDBRANCH  55  56
ENDBRANCH  53  55
ENDBRANCH  47  48
ENDBRANCH  13  47
TORSDOF 11
ENDMDL
MODEL 9
REMARK VINA RESULT:   -12.876      5.010     10.605
REMARK INTER + INTRA:         -21.402
REMARK INTER:                 -19.253
REMARK INTRA:                  -2.149
REMARK UNBOUND:                -1.751
REMARK SMILES C[C@H]1O[C@@H](O[C@H]2[C@H](O)C[C@H](c3ccc4c(c3O)C(=O)C3=C(C4=O)[C@@]4(O)C(=O)C[C@@](C)(O[C@H]5CC[C@@H](O[C@H]6C=CC(=O)[C@@H](C)O6)[C@@H](C)O5)C[C@]4(O)C=C3)O[C@@H]2C)C=CC1=O
REMARK SMILES IDX 11 1 12 2 13 3 14 4 22 5 23 6 21 7 20 8 52 9 51 10 49 11
REMARK SMILES IDX 48 12 29 13 30 14 28 15 26 16 27 17 24 18 18 19 19 20 15 21
REMARK SMILES IDX 16 22 10 23 6 24 7 25 54 26 9 27 53 28 55 29 5 30 4 31 2 32
REMARK SMILES IDX 3 33 58 34 57 35 59 36 56 37 1 38 8 39 17 41 25 43 50 45
REMARK SMILES IDX 31 47 32 48 33 49 47 50 34 51 45 52 35 53 46 54 36 55 37 56
REMARK SMILES IDX 38 57 44 58 39 59 42 60 40 61 41 62 43 63
REMARK H PARENT 8 40 17 42 25 44 50 46
ROOT
ATOM      1  C   UNL     1      29.887  60.019  49.028  1.00  0.00     0.023 A 
ATOM      2  C   UNL     1      28.513  59.742  49.063  1.00  0.00     0.011 A 
ATOM      3  C   UNL     1      27.786  59.620  47.897  1.00  0.00     0.013 A 
ATOM      4  C   UNL     1      28.401  59.752  46.648  1.00  0.00     0.037 A 
ATOM      5  C   UNL     1      27.578  59.576  45.431  1.00  0.00     0.194 C 
ATOM      6  O   UNL     1      26.410  59.236  45.555  1.00  0.00    -0.289 OA
ATOM      7  C   UNL     1      28.168  59.721  44.067  1.00  0.00     0.054 C 
ATOM      8  C   UNL     1      29.511  59.920  43.956  1.00  0.00     0.033 C 
ATOM      9  C   UNL     1      30.166  59.812  42.616  1.00  0.00     0.011 C 
ATOM     10  C   UNL     1      29.452  59.747  41.485  1.00  0.00     0.012 C 
ATOM     11  C   UNL     1      27.971  60.027  41.525  1.00  0.00     0.126 C 
ATOM     12  C   UNL     1      27.232  59.500  40.239  1.00  0.00     0.079 C 
ATOM     13  C   UNL     1      25.651  59.417  40.311  1.00  0.00     0.079 C 
ATOM     14  C   UNL     1      25.199  57.931  40.438  1.00  0.00     0.043 C 
ATOM     15  C   UNL     1      25.128  60.249  41.531  1.00  0.00     0.114 C 
ATOM     16  C   UNL     1      25.932  60.117  42.806  1.00  0.00     0.175 C 
ATOM     17  O   UNL     1      25.563  60.790  43.757  1.00  0.00    -0.296 OA
ATOM     18  C   UNL     1      27.315  59.437  42.808  1.00  0.00     0.185 C 
ATOM     19  C   UNL     1      30.369  60.102  45.172  1.00  0.00     0.198 C 
ATOM     20  O   UNL     1      31.564  60.284  45.008  1.00  0.00    -0.288 OA
ATOM     21  C   UNL     1      29.783  60.026  46.557  1.00  0.00     0.076 A 
ATOM     22  C   UNL     1      30.535  60.172  47.775  1.00  0.00     0.133 A 
ENDROOT
BRANCH   1  23
ATOM     23  C   UNL     1      30.656  60.125  50.342  1.00  0.00     0.155 C 
ATOM     24  C   UNL     1      32.845  60.227  52.183  1.00  0.00     0.179 C 
ATOM     25  C   UNL     1      32.824  59.057  51.183  1.00  0.00     0.149 C 
ATOM     26  C   UNL     1      32.112  61.467  51.580  1.00  0.00     0.147 C 
ATOM     27  C   UNL     1      31.375  58.792  50.696  1.00  0.00     0.071 C 
ATOM     28  O   UNL     1      31.590  61.196  50.286  1.00  0.00    -0.368 OA
ATOM     29  C   UNL     1      33.047  62.672  51.479  1.00  0.00     0.041 C 
BRANCH  24  30
ATOM     30  O   UNL     1      32.173  59.847  53.377  1.00  0.00    -0.340 OA
BRANCH  30  31
ATOM     31  C   UNL     1      31.189  60.783  53.797  1.00  0.00     0.276 C 
ATOM     32  C   UNL     1      31.313  60.776  56.204  1.00  0.00     0.189 C 
ATOM     33  O   UNL     1      31.615  61.441  54.985  1.00  0.00    -0.338 OA
ATOM     34  C   UNL     1      29.887  60.302  56.273  1.00  0.00     0.184 C 
ATOM     35  C   UNL     1      29.213  59.923  55.034  1.00  0.00     0.051 C 
ATOM     36  O   UNL     1      29.360  60.072  57.350  1.00  0.00    -0.292 OA
ATOM     37  C   UNL     1      29.840  60.105  53.875  1.00  0.00     0.038 C 
ATOM     38  C   UNL     1      32.292  59.632  56.482  1.00  0.00     0.048 C 
ENDBRANCH  30  31
ENDBRANCH  24  30
BRANCH  25  39
ATOM     39  O   UNL     1      33.699  59.358  50.111  1.00  0.00    -0.390 OA
ATOM     40  H   UNL     1      33.578  58.716  49.366  1.00  0.00     0.211 HD
ENDBRANCH  25  39
ENDBRANCH   1  23
BRANCH  22  41
ATOM     41  O   UNL     1      31.863  60.433  47.804  1.00  0.00    -0.507 OA
ATOM     42  H   UNL     1      32.380  60.713  48.566  1.00  0.00     0.293 HD
ENDBRANCH  22  41
BRANCH  18  43
ATOM     43  O   UNL     1      27.223  58.041  42.696  1.00  0.00    -0.374 OA
ATOM     44  H   UNL     1      28.143  57.674  42.754  1.00  0.00     0.212 HD
ENDBRANCH  18  43
BRANCH  11  45
ATOM     45  O   UNL     1      27.848  61.437  41.593  1.00  0.00    -0.382 OA
ATOM     46  H   UNL     1      26.884  61.672  41.575  1.00  0.00     0.212 HD
ENDBRANCH  11  45
BRANCH  13  47
ATOM     47  O   UNL     1      25.159  59.909  39.054  1.00  0.00    -0.346 OA
BRANCH  47  48
ATOM     48  C   UNL     1      24.136  60.902  39.135  1.00  0.00     0.251 C 
ATOM     49  C   UNL     1      24.551  62.102  38.222  1.00  0.00     0.065 C 
ATOM     50  O   UNL     1      22.897  60.294  38.746  1.00  0.00    -0.347 OA
ATOM     51  C   UNL     1      23.982  61.848  36.832  1.00  0.00     0.040 C 
ATOM     52  C   UNL     1      21.981  61.277  38.304  1.00  0.00     0.147 C 
ATOM     53  C   UNL     1      22.437  61.855  36.930  1.00  0.00     0.150 C 
ATOM     54  C   UNL     1      20.556  60.726  38.288  1.00  0.00     0.041 C 
BRANCH  53  55
ATOM     55  O   UNL     1      21.915  61.113  35.835  1.00  0.00    -0.343 OA
BRANCH  55  56
ATOM     56  C   UNL     1      21.403  61.940  34.797  1.00  0.00     0.275 C 
ATOM     57  C   UNL     1      20.406  61.102  33.996  1.00  0.00     0.038 C 
ATOM     58  O   UNL     1      20.807  63.080  35.420  1.00  0.00    -0.338 OA
ATOM     59  C   UNL     1      19.178  61.562  33.717  1.00  0.00     0.051 C 
ATOM     60  C   UNL     1      20.017  63.801  34.498  1.00  0.00     0.189 C 
ATOM     61  C   UNL     1      18.848  62.936  34.107  1.00  0.00     0.184 C 
ATOM     62  O   UNL     1      17.696  63.345  34.086  1.00  0.00    -0.292 OA
ATOM     63  C   UNL     1      19.601  65.144  35.096  1.00  0.00     0.048 C 
ENDBRANCH  55  56
ENDBRANCH  53  55
ENDBRANCH  47  48
ENDBRANCH  13  47
TORSDOF 11
ENDMDL
