REMARK  Name = 
REMARK  17 active torsions:
REMARK  status: ('A' for Active; 'I' for Inactive)
REMARK    1  A    between atoms: C_1  and  O_2
REMARK    2  A    between atoms: O_2  and  C_3
REMARK    3  A    between atoms: C_5  and  O_6
REMARK    4  A    between atoms: O_6  and  C_7
REMARK    5  A    between atoms: C_10  and  C_11
REMARK    6  A    between atoms: C_17  and  O_18
REMARK    7  A    between atoms: C_20  and  C_21
REMARK    8  A    between atoms: C_22  and  C_23
REMARK    9  A    between atoms: C_31  and  O_32
REMARK   10  A    between atoms: C_35  and  C_36
REMARK   11  A    between atoms: C_37  and  O_38
REMARK   12  A    between atoms: O_38  and  C_39
REMARK   13  A    between atoms: C_41  and  C_42
REMARK   14  A    between atoms: C_42  and  O_43
REMARK   15  A    between atoms: C_44  and  O_45
REMARK   16  A    between atoms: C_46  and  O_47
REMARK   17  A    between atoms: C_48  and  O_49
REMARK                            x       y       z     vdW  Elec       q    Type
REMARK                         _______ _______ _______ _____ _____    ______ ____
ROOT
ATOM      1  C   UNL     1      24.488  61.022  39.322  0.00  0.00    +0.000 C 
ATOM      2  C   UNL     1      25.237  61.446  38.043  0.00  0.00    +0.000 C 
ATOM      3  C   UNL     1      24.296  62.181  37.046  0.00  0.00    +0.000 C 
ATOM      4  C   UNL     1      23.057  61.322  36.616  0.00  0.00    +0.000 C 
ATOM      5  C   UNL     1      23.581  60.042  35.890  0.00  0.00    +0.000 C 
ATOM      6  C   UNL     1      22.317  60.909  37.933  0.00  0.00    +0.000 C 
ATOM      7  C   UNL     1      21.623  62.102  38.665  0.00  0.00    +0.000 C 
ATOM      8  C   UNL     1      21.065  63.184  37.737  0.00  0.00    +0.000 C 
ATOM      9  C   UNL     1      20.730  62.611  36.363  0.00  0.00    +0.000 C 
ATOM     10  C   UNL     1      22.064  62.179  35.646  0.00  0.00    +0.000 C 
ATOM     11  C   UNL     1      21.633  61.534  34.277  0.00  0.00    +0.000 C 
ATOM     12  C   UNL     1      20.858  62.558  33.434  0.00  0.00    +0.000 C 
ATOM     13  C   UNL     1      19.546  63.110  34.073  0.00  0.00    +0.000 C 
ATOM     14  C   UNL     1      18.460  61.998  34.020  0.00  0.00    +0.000 C 
ATOM     15  C   UNL     1      19.206  64.456  33.299  0.00  0.00    +0.000 C 
ATOM     16  C   UNL     1      19.282  65.575  34.354  0.00  0.00    +0.000 C 
ATOM     17  C   UNL     1      20.317  65.026  35.344  0.00  0.00    +0.000 C 
ATOM     18  C   UNL     1      19.808  63.590  35.555  0.00  0.00    +0.000 C 
ATOM     19  C   UNL     1      23.241  60.163  38.937  0.00  0.00    +0.000 C 
ENDROOT
BRANCH  15  20
ATOM     20  C   UNL     1      18.043  64.482  32.325  0.00  0.00    +0.000 C 
ATOM     21  C   UNL     1      16.836  64.984  32.557  0.00  0.00    +0.000 C 
ATOM     22  C   UNL     1      16.103  64.831  31.322  0.00  0.00    +0.000 C 
ATOM     23  O   UNL     1      14.950  65.183  31.143  0.00  0.00    +0.000 OA
ATOM     24  O   UNL     1      16.865  64.267  30.374  0.00  0.00    +0.000 OA
ATOM     25  C   UNL     1      18.118  64.002  30.890  0.00  0.00    +0.000 C 
ENDBRANCH  15  20
BRANCH  11  26
ATOM     26  O   UNL     1      22.730  61.122  33.502  0.00  0.00    +0.000 OA
ATOM     27  H   UNL     1      22.688  60.133  33.408  0.00  0.00    +0.000 HD
ENDBRANCH  11  26
BRANCH  18  28
ATOM     28  O   UNL     1      18.612  63.680  36.322  0.00  0.00    +0.000 OA
ATOM     29  H   UNL     1      17.841  63.260  35.868  0.00  0.00    +0.000 HD
ENDBRANCH  18  28
BRANCH   1  30
ATOM     30  O   UNL     1      25.373  60.304  40.180  0.00  0.00    +0.000 OA
BRANCH  30  33
ATOM     31  C   UNL     1      26.004  58.228  42.365  0.00  0.00    +0.000 C 
ATOM     32  C   UNL     1      24.695  58.990  42.132  0.00  0.00    +0.000 C 
ATOM     33  C   UNL     1      24.963  60.389  41.545  0.00  0.00    +0.000 C 
ATOM     34  O   UNL     1      25.890  61.137  42.320  0.00  0.00    +0.000 OA
ATOM     35  C   UNL     1      27.119  60.454  42.541  0.00  0.00    +0.000 C 
ATOM     36  C   UNL     1      28.005  61.369  43.389  0.00  0.00    +0.000 C 
ATOM     37  C   UNL     1      26.888  59.102  43.263  0.00  0.00    +0.000 C 
BRANCH  31  39
ATOM     38  C   UNL     1      26.245  55.916  42.300  0.00  0.00    +0.000 C 
ATOM     39  O   UNL     1      25.727  57.006  43.028  0.00  0.00    +0.000 OA
ENDBRANCH  31  39
BRANCH  37  40
ATOM     40  O   UNL     1      28.133  58.449  43.525  0.00  0.00    +0.000 OA
BRANCH  40  41
ATOM     41  C   UNL     1      28.353  58.268  44.923  0.00  0.00    +0.000 C 
ATOM     42  O   UNL     1      27.107  58.525  45.586  0.00  0.00    +0.000 OA
ATOM     43  C   UNL     1      26.947  57.881  46.840  0.00  0.00    +0.000 C 
ATOM     44  C   UNL     1      27.060  56.322  46.731  0.00  0.00    +0.000 C 
ATOM     45  C   UNL     1      27.782  55.871  45.440  0.00  0.00    +0.000 C 
ATOM     46  C   UNL     1      28.934  56.843  45.184  0.00  0.00    +0.000 C 
BRANCH  44  47
ATOM     47  O   UNL     1      25.804  55.696  46.822  0.00  0.00    +0.000 OA
ATOM     48  H   UNL     1      25.925  54.863  47.344  0.00  0.00    +0.000 HD
ENDBRANCH  44  47
BRANCH  45  49
ATOM     49  O   UNL     1      28.215  54.538  45.549  0.00  0.00    +0.000 OA
ATOM     50  H   UNL     1      29.191  54.522  45.367  0.00  0.00    +0.000 HD
ENDBRANCH  45  49
BRANCH  46  51
ATOM     51  O   UNL     1      29.782  56.424  44.142  0.00  0.00    +0.000 OA
ATOM     52  H   UNL     1      30.641  56.134  44.547  0.00  0.00    +0.000 HD
ENDBRANCH  46  51
BRANCH  43  53
ATOM     53  C   UNL     1      27.872  58.523  47.899  0.00  0.00    +0.000 C 
BRANCH  53  54
ATOM     54  O   UNL     1      27.257  58.532  49.160  0.00  0.00    +0.000 OA
ATOM     55  H   UNL     1      27.516  59.385  49.599  0.00  0.00    +0.000 HD
ENDBRANCH  53  54
ENDBRANCH  43  53
ENDBRANCH  40  41
ENDBRANCH  37  40
ENDBRANCH  30  33
ENDBRANCH   1  30
TORSDOF 13
