MODEL 1
REMARK VINA RESULT:   -12.814      0.000      0.000
REMARK INTER + INTRA:         -26.875
REMARK INTER:                 -24.426
REMARK INTRA:                  -2.449
REMARK UNBOUND:                -2.449
REMARK SMILES C[C@@H]1O[C@@H](O[C@H]2[C@H](O)[C@@H](O)[C@H](OC[C@H]3O[C@@H](OC(=O)[C@]45CCC(C)(C)C[C@H]4C4=CC[C@@H]6[C@@]7(C)CC[C@H](O)[C@@](C)(CO)[C@H]7CC[C@@]6(C)[C@]4(C)CC5)[C@H](O)[C@@H](O)[C@@H]3O)O[C@@H]2CO)[C@H](O)[C@H](O)[C@H]1O
REMARK SMILES IDX 14 1 15 2 16 3 51 4 53 5 55 6 13 7 12 8 11 9 6 10 7 11 58 12
REMARK SMILES IDX 9 13 57 14 5 15 4 16 2 17 3 18 65 19 63 20 61 21 1 22 66 23
REMARK SMILES IDX 64 25 62 27 8 29 59 31 60 32 10 34 56 36 17 38 18 39 19 40
REMARK SMILES IDX 20 41 21 42 27 43 50 44 22 45 26 46 28 47 49 48 23 49 29 50
REMARK SMILES IDX 47 51 30 52 45 53 31 54 44 55 32 56 43 57 34 58 42 59 35 60
REMARK SMILES IDX 38 61 36 62 24 63 25 64 48 65 46 66 33 67 39 68 40 69 41 70
REMARK SMILES IDX 37 72 54 74 52 76
REMARK H PARENT 66 24 64 26 62 28 8 30 60 33 10 35 56 37 41 71 37 73 54 75
REMARK H PARENT 52 77
ROOT
ATOM      1  C   UNL     1      26.147  60.502  41.567  1.00  0.00     0.180 C 
ATOM      2  O   UNL     1      26.558  59.959  42.813  1.00  0.00    -0.332 OA
ATOM      3  C   UNL     1      27.907  59.577  42.833  1.00  0.00     0.342 C 
ATOM      4  C   UNL     1      28.194  58.404  41.853  1.00  0.00     0.214 C 
ATOM      5  C   UNL     1      27.339  58.505  40.548  1.00  0.00     0.180 C 
ATOM      6  C   UNL     1      26.962  59.973  40.312  1.00  0.00     0.177 C 
ENDROOT
BRANCH   1   7
ATOM      7  C   UNL     1      24.640  60.201  41.486  1.00  0.00     0.198 C 
BRANCH   7   8
ATOM      8  O   UNL     1      24.063  60.788  40.352  1.00  0.00    -0.347 OA
BRANCH   8   9
ATOM      9  C   UNL     1      23.268  59.879  39.619  1.00  0.00     0.282 C 
ATOM     10  C   UNL     1      22.177  61.006  37.187  1.00  0.00     0.184 C 
ATOM     11  C   UNL     1      21.258  60.223  38.140  1.00  0.00     0.180 C 
ATOM     12  C   UNL     1      23.671  60.611  37.369  1.00  0.00     0.178 C 
ATOM     13  C   UNL     1      21.826  60.437  39.544  1.00  0.00     0.202 C 
ATOM     14  O   UNL     1      23.879  59.620  38.362  1.00  0.00    -0.341 OA
BRANCH  10  15
ATOM     15  O   UNL     1      21.774  60.781  35.841  1.00  0.00    -0.341 OA
BRANCH  15  16
ATOM     16  C   UNL     1      21.068  61.870  35.280  1.00  0.00     0.282 C 
ATOM     17  C   UNL     1      19.054  62.453  34.190  1.00  0.00     0.150 C 
ATOM     18  O   UNL     1      19.919  61.395  34.622  1.00  0.00    -0.344 OA
ATOM     19  C   UNL     1      19.774  63.835  33.981  1.00  0.00     0.174 C 
ATOM     20  C   UNL     1      21.152  63.548  33.347  1.00  0.00     0.179 C 
ATOM     21  C   UNL     1      21.983  62.620  34.283  1.00  0.00     0.202 C 
ATOM     22  C   UNL     1      17.872  62.570  35.150  1.00  0.00     0.041 C 
BRANCH  19  23
ATOM     23  O   UNL     1      18.997  64.703  33.202  1.00  0.00    -0.388 OA
ATOM     24  H   UNL     1      19.560  65.489  32.970  1.00  0.00     0.211 HD
ENDBRANCH  19  23
BRANCH  20  25
ATOM     25  O   UNL     1      21.852  64.711  32.989  1.00  0.00    -0.387 OA
ATOM     26  H   UNL     1      21.192  65.453  32.931  1.00  0.00     0.211 HD
ENDBRANCH  20  25
BRANCH  21  27
ATOM     27  O   UNL     1      22.975  63.326  34.991  1.00  0.00    -0.385 OA
ATOM     28  H   UNL     1      22.717  64.284  35.002  1.00  0.00     0.211 HD
ENDBRANCH  21  27
ENDBRANCH  15  16
ENDBRANCH  10  15
BRANCH  11  29
ATOM     29  O   UNL     1      19.930  60.681  38.048  1.00  0.00    -0.387 OA
ATOM     30  H   UNL     1      19.698  61.132  38.904  1.00  0.00     0.211 HD
ENDBRANCH  11  29
BRANCH  12  31
ATOM     31  C   UNL     1      24.596  61.828  37.582  1.00  0.00     0.191 C 
BRANCH  31  32
ATOM     32  O   UNL     1      25.218  62.194  36.380  1.00  0.00    -0.394 OA
ATOM     33  H   UNL     1      26.109  62.562  36.619  1.00  0.00     0.210 HD
ENDBRANCH  31  32
ENDBRANCH  12  31
BRANCH  13  34
ATOM     34  O   UNL     1      21.008  59.904  40.555  1.00  0.00    -0.385 OA
ATOM     35  H   UNL     1      20.700  60.658  41.119  1.00  0.00     0.211 HD
ENDBRANCH  13  34
ENDBRANCH   8   9
ENDBRANCH   7   8
ENDBRANCH   1   7
BRANCH   6  36
ATOM     36  O   UNL     1      28.160  60.689  40.093  1.00  0.00    -0.387 OA
ATOM     37  H   UNL     1      28.538  61.000  40.953  1.00  0.00     0.211 HD
ENDBRANCH   6  36
BRANCH   3  38
ATOM     38  O   UNL     1      28.166  59.140  44.101  1.00  0.00    -0.432 OA
BRANCH  38  39
ATOM     39  C   UNL     1      28.710  59.826  45.127  1.00  0.00     0.315 C 
ATOM     40  O   UNL     1      28.356  60.971  45.374  1.00  0.00    -0.252 OA
BRANCH  39  41
ATOM     41  C   UNL     1      29.758  59.085  45.947  1.00  0.00     0.075 C 
ATOM     42  C   UNL     1      31.047  60.000  45.908  1.00  0.00     0.020 C 
ATOM     43  C   UNL     1      30.051  57.630  45.347  1.00  0.00     0.033 C 
ATOM     44  C   UNL     1      29.220  59.060  47.414  1.00  0.00     0.020 C 
ATOM     45  C   UNL     1      32.298  59.200  46.303  1.00  0.00     0.007 C 
ATOM     46  C   UNL     1      31.333  57.672  44.478  1.00  0.00     0.015 C 
ATOM     47  C   UNL     1      29.909  56.419  46.296  1.00  0.00    -0.063 C 
ATOM     48  C   UNL     1      28.369  57.831  47.715  1.00  0.00     0.013 C 
ATOM     49  C   UNL     1      32.613  58.077  45.262  1.00  0.00    -0.035 C 
ATOM     50  C   UNL     1      30.188  55.192  45.777  1.00  0.00    -0.027 C 
ATOM     51  C   UNL     1      29.214  56.521  47.668  1.00  0.00    -0.006 C 
ATOM     52  C   UNL     1      29.876  53.869  46.430  1.00  0.00     0.032 C 
ATOM     53  C   UNL     1      28.268  55.213  47.883  1.00  0.00    -0.020 C 
ATOM     54  C   UNL     1      29.201  53.963  47.821  1.00  0.00     0.006 C 
ATOM     55  C   UNL     1      27.577  55.214  49.277  1.00  0.00     0.008 C 
ATOM     56  C   UNL     1      28.749  52.555  48.461  1.00  0.00    -0.025 C 
ATOM     57  C   UNL     1      26.712  53.966  49.475  1.00  0.00     0.005 C 
ATOM     58  C   UNL     1      30.029  52.021  49.202  1.00  0.00     0.010 C 
ATOM     59  C   UNL     1      27.527  52.644  49.514  1.00  0.00     0.006 C 
ATOM     60  C   UNL     1      29.878  50.754  50.034  1.00  0.00     0.033 C 
ATOM     61  C   UNL     1      27.761  52.039  50.980  1.00  0.00     0.020 C 
ATOM     62  C   UNL     1      28.583  50.694  50.875  1.00  0.00     0.123 C 
ATOM     63  C   UNL     1      33.229  56.859  45.985  1.00  0.00     0.011 C 
ATOM     64  C   UNL     1      33.643  58.585  44.226  1.00  0.00     0.011 C 
ATOM     65  C   UNL     1      30.345  56.641  48.770  1.00  0.00     0.017 C 
ATOM     66  C   UNL     1      27.166  55.156  46.766  1.00  0.00     0.012 C 
ATOM     67  C   UNL     1      28.390  51.535  47.343  1.00  0.00     0.012 C 
ATOM     68  C   UNL     1      26.389  51.662  51.636  1.00  0.00     0.017 C 
BRANCH  61  69
ATOM     69  C   UNL     1      28.456  53.028  51.976  1.00  0.00     0.165 C 
BRANCH  69  70
ATOM     70  O   UNL     1      28.134  52.716  53.307  1.00  0.00    -0.396 OA
ATOM     71  H   UNL     1      27.978  51.737  53.356  1.00  0.00     0.210 HD
ENDBRANCH  69  70
ENDBRANCH  61  69
BRANCH  62  72
ATOM     72  O   UNL     1      27.801  49.610  50.424  1.00  0.00    -0.392 OA
ATOM     73  H   UNL     1      27.454  49.111  51.199  1.00  0.00     0.210 HD
ENDBRANCH  62  72
ENDBRANCH  39  41
ENDBRANCH  38  39
ENDBRANCH   3  38
BRANCH   5  74
ATOM     74  O   UNL     1      26.169  57.718  40.599  1.00  0.00    -0.387 OA
ATOM     75  H   UNL     1      25.545  58.074  41.282  1.00  0.00     0.211 HD
ENDBRANCH   5  74
BRANCH   4  76
ATOM     76  O   UNL     1      29.572  58.347  41.575  1.00  0.00    -0.384 OA
ATOM     77  H   UNL     1      29.905  59.275  41.470  1.00  0.00     0.211 HD
ENDBRANCH   4  76
TORSDOF 21
ENDMDL
MODEL 2
REMARK VINA RESULT:   -12.618      2.841      5.311
REMARK INTER + INTRA:         -26.500
REMARK INTER:                 -24.342
REMARK INTRA:                  -2.158
REMARK UNBOUND:                -2.449
REMARK SMILES C[C@@H]1O[C@@H](O[C@H]2[C@H](O)[C@@H](O)[C@H](OC[C@H]3O[C@@H](OC(=O)[C@]45CCC(C)(C)C[C@H]4C4=CC[C@@H]6[C@@]7(C)CC[C@H](O)[C@@](C)(CO)[C@H]7CC[C@@]6(C)[C@]4(C)CC5)[C@H](O)[C@@H](O)[C@@H]3O)O[C@@H]2CO)[C@H](O)[C@H](O)[C@H]1O
REMARK SMILES IDX 14 1 15 2 16 3 51 4 53 5 55 6 13 7 12 8 11 9 6 10 7 11 58 12
REMARK SMILES IDX 9 13 57 14 5 15 4 16 2 17 3 18 65 19 63 20 61 21 1 22 66 23
REMARK SMILES IDX 64 25 62 27 8 29 59 31 60 32 10 34 56 36 17 38 18 39 19 40
REMARK SMILES IDX 20 41 21 42 27 43 50 44 22 45 26 46 28 47 49 48 23 49 29 50
REMARK SMILES IDX 47 51 30 52 45 53 31 54 44 55 32 56 43 57 34 58 42 59 35 60
REMARK SMILES IDX 38 61 36 62 24 63 25 64 48 65 46 66 33 67 39 68 40 69 41 70
REMARK SMILES IDX 37 72 54 74 52 76
REMARK H PARENT 66 24 64 26 62 28 8 30 60 33 10 35 56 37 41 71 37 73 54 75
REMARK H PARENT 52 77
ROOT
ATOM      1  C   UNL     1      25.497  59.374  41.364  1.00  0.00     0.180 C 
ATOM      2  O   UNL     1      26.843  58.962  41.548  1.00  0.00    -0.332 OA
ATOM      3  C   UNL     1      27.026  58.150  42.676  1.00  0.00     0.342 C 
ATOM      4  C   UNL     1      26.735  58.917  43.998  1.00  0.00     0.214 C 
ATOM      5  C   UNL     1      25.558  59.935  43.840  1.00  0.00     0.180 C 
ATOM      6  C   UNL     1      24.645  59.467  42.701  1.00  0.00     0.177 C 
ENDROOT
BRANCH   1   7
ATOM      7  C   UNL     1      25.595  60.711  40.610  1.00  0.00     0.198 C 
BRANCH   7   8
ATOM      8  O   UNL     1      24.337  61.144  40.172  1.00  0.00    -0.347 OA
BRANCH   8   9
ATOM      9  C   UNL     1      23.631  60.138  39.476  1.00  0.00     0.282 C 
ATOM     10  C   UNL     1      22.190  61.127  37.169  1.00  0.00     0.184 C 
ATOM     11  C   UNL     1      21.479  60.197  38.168  1.00  0.00     0.180 C 
ATOM     12  C   UNL     1      23.736  60.960  37.224  1.00  0.00     0.178 C 
ATOM     13  C   UNL     1      22.121  60.472  39.529  1.00  0.00     0.202 C 
ATOM     14  O   UNL     1      24.170  59.996  38.169  1.00  0.00    -0.341 OA
BRANCH  10  15
ATOM     15  O   UNL     1      21.718  60.865  35.854  1.00  0.00    -0.341 OA
BRANCH  15  16
ATOM     16  C   UNL     1      21.013  61.952  35.286  1.00  0.00     0.282 C 
ATOM     17  C   UNL     1      18.986  62.540  34.225  1.00  0.00     0.150 C 
ATOM     18  O   UNL     1      19.846  61.480  34.659  1.00  0.00    -0.344 OA
ATOM     19  C   UNL     1      19.717  63.910  33.978  1.00  0.00     0.174 C 
ATOM     20  C   UNL     1      21.079  63.596  33.324  1.00  0.00     0.179 C 
ATOM     21  C   UNL     1      21.917  62.675  34.259  1.00  0.00     0.202 C 
ATOM     22  C   UNL     1      17.823  62.687  35.205  1.00  0.00     0.041 C 
BRANCH  19  23
ATOM     23  O   UNL     1      18.935  64.773  33.199  1.00  0.00    -0.388 OA
ATOM     24  H   UNL     1      19.341  64.816  32.293  1.00  0.00     0.211 HD
ENDBRANCH  19  23
BRANCH  20  25
ATOM     25  O   UNL     1      21.785  64.744  32.932  1.00  0.00    -0.387 OA
ATOM     26  H   UNL     1      22.012  64.643  31.968  1.00  0.00     0.211 HD
ENDBRANCH  20  25
BRANCH  21  27
ATOM     27  O   UNL     1      22.931  63.381  34.936  1.00  0.00    -0.385 OA
ATOM     28  H   UNL     1      22.687  64.343  34.928  1.00  0.00     0.211 HD
ENDBRANCH  21  27
ENDBRANCH  15  16
ENDBRANCH  10  15
BRANCH  11  29
ATOM     29  O   UNL     1      20.094  60.450  38.193  1.00  0.00    -0.387 OA
ATOM     30  H   UNL     1      19.848  60.735  39.113  1.00  0.00     0.211 HD
ENDBRANCH  11  29
BRANCH  12  31
ATOM     31  C   UNL     1      24.482  62.300  37.400  1.00  0.00     0.191 C 
BRANCH  31  32
ATOM     32  O   UNL     1      25.860  62.085  37.542  1.00  0.00    -0.394 OA
ATOM     33  H   UNL     1      25.992  61.102  37.606  1.00  0.00     0.210 HD
ENDBRANCH  31  32
ENDBRANCH  12  31
BRANCH  13  34
ATOM     34  O   UNL     1      21.476  59.804  40.585  1.00  0.00    -0.385 OA
ATOM     35  H   UNL     1      21.305  60.469  41.300  1.00  0.00     0.211 HD
ENDBRANCH  13  34
ENDBRANCH   8   9
ENDBRANCH   7   8
ENDBRANCH   1   7
BRANCH   6  36
ATOM     36  O   UNL     1      24.087  58.228  43.085  1.00  0.00    -0.387 OA
ATOM     37  H   UNL     1      23.107  58.232  42.941  1.00  0.00     0.211 HD
ENDBRANCH   6  36
BRANCH   3  38
ATOM     38  O   UNL     1      28.342  57.785  42.681  1.00  0.00    -0.432 OA
BRANCH  38  39
ATOM     39  C   UNL     1      28.872  56.562  42.481  1.00  0.00     0.315 C 
ATOM     40  O   UNL     1      28.520  55.874  41.532  1.00  0.00    -0.252 OA
BRANCH  39  41
ATOM     41  C   UNL     1      29.926  56.116  43.485  1.00  0.00     0.075 C 
ATOM     42  C   UNL     1      30.494  54.751  42.923  1.00  0.00     0.020 C 
ATOM     43  C   UNL     1      29.303  55.934  44.949  1.00  0.00     0.033 C 
ATOM     44  C   UNL     1      31.066  57.183  43.419  1.00  0.00     0.020 C 
ATOM     45  C   UNL     1      31.228  53.968  44.022  1.00  0.00     0.007 C 
ATOM     46  C   UNL     1      28.995  54.437  45.203  1.00  0.00     0.015 C 
ATOM     47  C   UNL     1      29.966  56.703  46.113  1.00  0.00    -0.063 C 
ATOM     48  C   UNL     1      30.864  58.331  44.402  1.00  0.00     0.013 C 
ATOM     49  C   UNL     1      30.250  53.519  45.156  1.00  0.00    -0.035 C 
ATOM     50  C   UNL     1      29.440  56.517  47.354  1.00  0.00    -0.027 C 
ATOM     51  C   UNL     1      30.975  57.845  45.881  1.00  0.00    -0.006 C 
ATOM     52  C   UNL     1      29.753  57.343  48.576  1.00  0.00     0.032 C 
ATOM     53  C   UNL     1      30.648  59.060  46.915  1.00  0.00    -0.020 C 
ATOM     54  C   UNL     1      30.786  58.478  48.357  1.00  0.00     0.006 C 
ATOM     55  C   UNL     1      31.666  60.229  46.783  1.00  0.00     0.008 C 
ATOM     56  C   UNL     1      31.024  59.443  49.625  1.00  0.00    -0.025 C 
ATOM     57  C   UNL     1      31.363  61.352  47.779  1.00  0.00     0.005 C 
ATOM     58  C   UNL     1      32.120  58.713  50.485  1.00  0.00     0.010 C 
ATOM     59  C   UNL     1      31.539  60.931  49.265  1.00  0.00     0.006 C 
ATOM     60  C   UNL     1      32.664  59.456  51.698  1.00  0.00     0.033 C 
ATOM     61  C   UNL     1      32.895  61.438  49.952  1.00  0.00     0.020 C 
ATOM     62  C   UNL     1      32.939  60.957  51.457  1.00  0.00     0.123 C 
ATOM     63  C   UNL     1      30.991  53.524  46.511  1.00  0.00     0.011 C 
ATOM     64  C   UNL     1      29.753  52.079  44.893  1.00  0.00     0.011 C 
ATOM     65  C   UNL     1      32.428  57.249  46.083  1.00  0.00     0.017 C 
ATOM     66  C   UNL     1      29.200  59.611  46.660  1.00  0.00     0.012 C 
ATOM     67  C   UNL     1      29.733  59.542  50.488  1.00  0.00     0.012 C 
ATOM     68  C   UNL     1      32.931  63.003  49.993  1.00  0.00     0.017 C 
BRANCH  61  69
ATOM     69  C   UNL     1      34.196  60.998  49.200  1.00  0.00     0.165 C 
BRANCH  69  70
ATOM     70  O   UNL     1      34.898  62.111  48.708  1.00  0.00    -0.396 OA
ATOM     71  H   UNL     1      35.336  62.555  49.480  1.00  0.00     0.210 HD
ENDBRANCH  69  70
ENDBRANCH  61  69
BRANCH  62  72
ATOM     72  O   UNL     1      32.092  61.713  52.296  1.00  0.00    -0.392 OA
ATOM     73  H   UNL     1      32.314  62.668  52.211  1.00  0.00     0.210 HD
ENDBRANCH  62  72
ENDBRANCH  39  41
ENDBRANCH  38  39
ENDBRANCH   3  38
BRANCH   5  74
ATOM     74  O   UNL     1      26.004  61.249  43.582  1.00  0.00    -0.387 OA
ATOM     75  H   UNL     1      25.527  61.625  42.798  1.00  0.00     0.211 HD
ENDBRANCH   5  74
BRANCH   4  76
ATOM     76  O   UNL     1      26.499  57.997  45.035  1.00  0.00    -0.384 OA
ATOM     77  H   UNL     1      26.701  58.443  45.897  1.00  0.00     0.211 HD
ENDBRANCH   4  76
TORSDOF 21
ENDMDL
MODEL 3
REMARK VINA RESULT:   -12.577      1.341      2.293
REMARK INTER + INTRA:         -26.423
REMARK INTER:                 -23.911
REMARK INTRA:                  -2.512
REMARK UNBOUND:                -2.449
REMARK SMILES C[C@@H]1O[C@@H](O[C@H]2[C@H](O)[C@@H](O)[C@H](OC[C@H]3O[C@@H](OC(=O)[C@]45CCC(C)(C)C[C@H]4C4=CC[C@@H]6[C@@]7(C)CC[C@H](O)[C@@](C)(CO)[C@H]7CC[C@@]6(C)[C@]4(C)CC5)[C@H](O)[C@@H](O)[C@@H]3O)O[C@@H]2CO)[C@H](O)[C@H](O)[C@H]1O
REMARK SMILES IDX 14 1 15 2 16 3 51 4 53 5 55 6 13 7 12 8 11 9 6 10 7 11 58 12
REMARK SMILES IDX 9 13 57 14 5 15 4 16 2 17 3 18 65 19 63 20 61 21 1 22 66 23
REMARK SMILES IDX 64 25 62 27 8 29 59 31 60 32 10 34 56 36 17 38 18 39 19 40
REMARK SMILES IDX 20 41 21 42 27 43 50 44 22 45 26 46 28 47 49 48 23 49 29 50
REMARK SMILES IDX 47 51 30 52 45 53 31 54 44 55 32 56 43 57 34 58 42 59 35 60
REMARK SMILES IDX 38 61 36 62 24 63 25 64 48 65 46 66 33 67 39 68 40 69 41 70
REMARK SMILES IDX 37 72 54 74 52 76
REMARK H PARENT 66 24 64 26 62 28 8 30 60 33 10 35 56 37 41 71 37 73 54 75
REMARK H PARENT 52 77
ROOT
ATOM      1  C   UNL     1      25.304  60.114  41.122  1.00  0.00     0.180 C 
ATOM      2  O   UNL     1      25.392  59.840  42.513  1.00  0.00    -0.332 OA
ATOM      3  C   UNL     1      26.589  59.210  42.880  1.00  0.00     0.342 C 
ATOM      4  C   UNL     1      26.712  57.789  42.257  1.00  0.00     0.214 C 
ATOM      5  C   UNL     1      26.098  57.721  40.821  1.00  0.00     0.180 C 
ATOM      6  C   UNL     1      26.131  59.122  40.199  1.00  0.00     0.177 C 
ENDROOT
BRANCH   1   7
ATOM      7  C   UNL     1      23.796  60.117  40.817  1.00  0.00     0.198 C 
BRANCH   7   8
ATOM      8  O   UNL     1      23.549  60.405  39.468  1.00  0.00    -0.347 OA
BRANCH   8   9
ATOM      9  C   UNL     1      23.738  61.771  39.163  1.00  0.00     0.282 C 
ATOM     10  C   UNL     1      21.919  62.763  37.142  1.00  0.00     0.184 C 
ATOM     11  C   UNL     1      23.422  63.073  37.030  1.00  0.00     0.180 C 
ATOM     12  C   UNL     1      21.503  62.443  38.608  1.00  0.00     0.178 C 
ATOM     13  C   UNL     1      24.146  61.890  37.675  1.00  0.00     0.202 C 
ATOM     14  O   UNL     1      22.578  62.505  39.530  1.00  0.00    -0.341 OA
BRANCH  10  15
ATOM     15  O   UNL     1      21.166  63.865  36.651  1.00  0.00    -0.341 OA
BRANCH  15  16
ATOM     16  C   UNL     1      20.432  63.561  35.480  1.00  0.00     0.282 C 
ATOM     17  C   UNL     1      20.655  63.168  33.161  1.00  0.00     0.150 C 
ATOM     18  O   UNL     1      21.279  63.644  34.361  1.00  0.00    -0.344 OA
ATOM     19  C   UNL     1      19.084  63.227  33.179  1.00  0.00     0.174 C 
ATOM     20  C   UNL     1      18.678  64.536  33.889  1.00  0.00     0.179 C 
ATOM     21  C   UNL     1      19.255  64.556  35.336  1.00  0.00     0.202 C 
ATOM     22  C   UNL     1      21.167  61.765  32.843  1.00  0.00     0.041 C 
BRANCH  19  23
ATOM     23  O   UNL     1      18.555  63.133  31.885  1.00  0.00    -0.388 OA
ATOM     24  H   UNL     1      17.589  63.360  31.935  1.00  0.00     0.211 HD
ENDBRANCH  19  23
BRANCH  20  25
ATOM     25  O   UNL     1      17.295  64.777  33.862  1.00  0.00    -0.387 OA
ATOM     26  H   UNL     1      16.918  64.458  34.726  1.00  0.00     0.211 HD
ENDBRANCH  20  25
BRANCH  21  27
ATOM     27  O   UNL     1      18.275  64.271  36.306  1.00  0.00    -0.385 OA
ATOM     28  H   UNL     1      18.728  64.214  37.187  1.00  0.00     0.211 HD
ENDBRANCH  21  27
ENDBRANCH  15  16
ENDBRANCH  10  15
BRANCH  11  29
ATOM     29  O   UNL     1      23.803  63.238  35.685  1.00  0.00    -0.387 OA
ATOM     30  H   UNL     1      24.124  64.172  35.566  1.00  0.00     0.211 HD
ENDBRANCH  11  29
BRANCH  12  31
ATOM     31  C   UNL     1      20.721  61.119  38.737  1.00  0.00     0.191 C 
BRANCH  31  32
ATOM     32  O   UNL     1      20.523  60.791  40.087  1.00  0.00    -0.394 OA
ATOM     33  H   UNL     1      19.562  60.948  40.282  1.00  0.00     0.210 HD
ENDBRANCH  31  32
ENDBRANCH  12  31
BRANCH  13  34
ATOM     34  O   UNL     1      25.542  61.950  37.521  1.00  0.00    -0.385 OA
ATOM     35  H   UNL     1      25.950  61.531  38.321  1.00  0.00     0.211 HD
ENDBRANCH  13  34
ENDBRANCH   8   9
ENDBRANCH   7   8
ENDBRANCH   1   7
BRANCH   6  36
ATOM     36  O   UNL     1      27.486  59.496  40.065  1.00  0.00    -0.387 OA
ATOM     37  H   UNL     1      27.866  59.124  39.229  1.00  0.00     0.211 HD
ENDBRANCH   6  36
BRANCH   3  38
ATOM     38  O   UNL     1      26.554  59.074  44.238  1.00  0.00    -0.432 OA
BRANCH  38  39
ATOM     39  C   UNL     1      27.029  59.918  45.176  1.00  0.00     0.315 C 
ATOM     40  O   UNL     1      26.514  61.014  45.352  1.00  0.00    -0.252 OA
BRANCH  39  41
ATOM     41  C   UNL     1      28.213  59.415  45.992  1.00  0.00     0.075 C 
ATOM     42  C   UNL     1      29.259  60.600  45.989  1.00  0.00     0.020 C 
ATOM     43  C   UNL     1      28.834  58.080  45.363  1.00  0.00     0.033 C 
ATOM     44  C   UNL     1      27.685  59.233  47.452  1.00  0.00     0.020 C 
ATOM     45  C   UNL     1      30.658  60.097  46.380  1.00  0.00     0.007 C 
ATOM     46  C   UNL     1      30.078  58.434  44.511  1.00  0.00     0.015 C 
ATOM     47  C   UNL     1      28.965  56.846  46.283  1.00  0.00    -0.063 C 
ATOM     48  C   UNL     1      27.134  57.836  47.715  1.00  0.00     0.013 C 
ATOM     49  C   UNL     1      31.227  59.101  45.318  1.00  0.00    -0.035 C 
ATOM     50  C   UNL     1      29.520  55.728  45.740  1.00  0.00    -0.027 C 
ATOM     51  C   UNL     1      28.257  56.754  47.649  1.00  0.00    -0.006 C 
ATOM     52  C   UNL     1      29.513  54.353  46.360  1.00  0.00     0.032 C 
ATOM     53  C   UNL     1      27.631  55.260  47.823  1.00  0.00    -0.020 C 
ATOM     54  C   UNL     1      28.825  54.257  47.745  1.00  0.00     0.006 C 
ATOM     55  C   UNL     1      26.950  55.070  49.209  1.00  0.00     0.008 C 
ATOM     56  C   UNL     1      28.701  52.768  48.348  1.00  0.00    -0.025 C 
ATOM     57  C   UNL     1      26.391  53.654  49.369  1.00  0.00     0.005 C 
ATOM     58  C   UNL     1      30.065  52.522  49.092  1.00  0.00     0.010 C 
ATOM     59  C   UNL     1      27.485  52.551  49.388  1.00  0.00     0.006 C 
ATOM     60  C   UNL     1      30.201  51.234  49.894  1.00  0.00     0.033 C 
ATOM     61  C   UNL     1      27.841  51.980  50.843  1.00  0.00     0.020 C 
ATOM     62  C   UNL     1      28.949  50.860  50.718  1.00  0.00     0.123 C 
ATOM     63  C   UNL     1      32.100  58.038  46.021  1.00  0.00     0.011 C 
ATOM     64  C   UNL     1      32.121  59.855  44.306  1.00  0.00     0.011 C 
ATOM     65  C   UNL     1      29.323  57.101  48.767  1.00  0.00     0.017 C 
ATOM     66  C   UNL     1      26.579  54.981  46.693  1.00  0.00     0.012 C 
ATOM     67  C   UNL     1      28.592  51.721  47.204  1.00  0.00     0.012 C 
ATOM     68  C   UNL     1      26.587  51.284  51.474  1.00  0.00     0.017 C 
BRANCH  61  69
ATOM     69  C   UNL     1      28.286  53.077  51.869  1.00  0.00     0.165 C 
BRANCH  69  70
ATOM     70  O   UNL     1      28.078  52.648  53.191  1.00  0.00    -0.396 OA
ATOM     71  H   UNL     1      27.571  53.360  53.661  1.00  0.00     0.210 HD
ENDBRANCH  69  70
ENDBRANCH  61  69
BRANCH  62  72
ATOM     72  O   UNL     1      28.437  49.638  50.234  1.00  0.00    -0.392 OA
ATOM     73  H   UNL     1      29.146  49.155  49.749  1.00  0.00     0.210 HD
ENDBRANCH  62  72
ENDBRANCH  39  41
ENDBRANCH  38  39
ENDBRANCH   3  38
BRANCH   5  74
ATOM     74  O   UNL     1      24.775  57.231  40.815  1.00  0.00    -0.387 OA
ATOM     75  H   UNL     1      24.159  57.910  40.438  1.00  0.00     0.211 HD
ENDBRANCH   5  74
BRANCH   4  76
ATOM     76  O   UNL     1      28.059  57.382  42.274  1.00  0.00    -0.384 OA
ATOM     77  H   UNL     1      28.306  57.093  41.359  1.00  0.00     0.211 HD
ENDBRANCH   4  76
TORSDOF 21
ENDMDL
MODEL 4
REMARK VINA RESULT:   -12.245      2.267      3.400
REMARK INTER + INTRA:         -25.790
REMARK INTER:                 -23.467
REMARK INTRA:                  -2.324
REMARK UNBOUND:                -2.449
REMARK SMILES C[C@@H]1O[C@@H](O[C@H]2[C@H](O)[C@@H](O)[C@H](OC[C@H]3O[C@@H](OC(=O)[C@]45CCC(C)(C)C[C@H]4C4=CC[C@@H]6[C@@]7(C)CC[C@H](O)[C@@](C)(CO)[C@H]7CC[C@@]6(C)[C@]4(C)CC5)[C@H](O)[C@@H](O)[C@@H]3O)O[C@@H]2CO)[C@H](O)[C@H](O)[C@H]1O
REMARK SMILES IDX 14 1 15 2 16 3 51 4 53 5 55 6 13 7 12 8 11 9 6 10 7 11 58 12
REMARK SMILES IDX 9 13 57 14 5 15 4 16 2 17 3 18 65 19 63 20 61 21 1 22 66 23
REMARK SMILES IDX 64 25 62 27 8 29 59 31 60 32 10 34 56 36 17 38 18 39 19 40
REMARK SMILES IDX 20 41 21 42 27 43 50 44 22 45 26 46 28 47 49 48 23 49 29 50
REMARK SMILES IDX 47 51 30 52 45 53 31 54 44 55 32 56 43 57 34 58 42 59 35 60
REMARK SMILES IDX 38 61 36 62 24 63 25 64 48 65 46 66 33 67 39 68 40 69 41 70
REMARK SMILES IDX 37 72 54 74 52 76
REMARK H PARENT 66 24 64 26 62 28 8 30 60 33 10 35 56 37 41 71 37 73 54 75
REMARK H PARENT 52 77
ROOT
ATOM      1  C   UNL     1      25.933  60.693  41.798  1.00  0.00     0.180 C 
ATOM      2  O   UNL     1      26.160  60.176  43.100  1.00  0.00    -0.332 OA
ATOM      3  C   UNL     1      27.509  59.892  43.357  1.00  0.00     0.342 C 
ATOM      4  C   UNL     1      28.044  58.746  42.451  1.00  0.00     0.214 C 
ATOM      5  C   UNL     1      27.423  58.791  41.017  1.00  0.00     0.180 C 
ATOM      6  C   UNL     1      26.989  60.228  40.707  1.00  0.00     0.177 C 
ENDROOT
BRANCH   1   7
ATOM      7  C   UNL     1      24.488  60.285  41.459  1.00  0.00     0.198 C 
BRANCH   7   8
ATOM      8  O   UNL     1      24.095  60.784  40.211  1.00  0.00    -0.347 OA
BRANCH   8   9
ATOM      9  C   UNL     1      23.260  59.887  39.509  1.00  0.00     0.282 C 
ATOM     10  C   UNL     1      22.098  61.029  37.116  1.00  0.00     0.184 C 
ATOM     11  C   UNL     1      21.203  60.261  38.104  1.00  0.00     0.180 C 
ATOM     12  C   UNL     1      23.592  60.611  37.245  1.00  0.00     0.178 C 
ATOM     13  C   UNL     1      21.826  60.468  39.486  1.00  0.00     0.202 C 
ATOM     14  O   UNL     1      23.821  59.617  38.231  1.00  0.00    -0.341 OA
BRANCH  10  15
ATOM     15  O   UNL     1      21.643  60.808  35.787  1.00  0.00    -0.341 OA
BRANCH  15  16
ATOM     16  C   UNL     1      20.976  61.926  35.233  1.00  0.00     0.282 C 
ATOM     17  C   UNL     1      18.985  62.587  34.146  1.00  0.00     0.150 C 
ATOM     18  O   UNL     1      19.811  61.497  34.571  1.00  0.00    -0.344 OA
ATOM     19  C   UNL     1      19.753  63.945  33.947  1.00  0.00     0.174 C 
ATOM     20  C   UNL     1      21.121  63.613  33.312  1.00  0.00     0.179 C 
ATOM     21  C   UNL     1      21.918  62.650  34.242  1.00  0.00     0.202 C 
ATOM     22  C   UNL     1      17.806  62.739  35.105  1.00  0.00     0.041 C 
BRANCH  19  23
ATOM     23  O   UNL     1      19.008  64.845  33.174  1.00  0.00    -0.388 OA
ATOM     24  H   UNL     1      18.434  64.314  32.560  1.00  0.00     0.211 HD
ENDBRANCH  19  23
BRANCH  20  25
ATOM     25  O   UNL     1      21.862  64.753  32.962  1.00  0.00    -0.387 OA
ATOM     26  H   UNL     1      21.235  65.525  32.946  1.00  0.00     0.211 HD
ENDBRANCH  20  25
BRANCH  21  27
ATOM     27  O   UNL     1      22.934  63.315  34.956  1.00  0.00    -0.385 OA
ATOM     28  H   UNL     1      22.562  63.580  35.837  1.00  0.00     0.211 HD
ENDBRANCH  21  27
ENDBRANCH  15  16
ENDBRANCH  10  15
BRANCH  11  29
ATOM     29  O   UNL     1      19.879  60.740  38.060  1.00  0.00    -0.387 OA
ATOM     30  H   UNL     1      19.598  60.958  38.989  1.00  0.00     0.211 HD
ENDBRANCH  11  29
BRANCH  12  31
ATOM     31  C   UNL     1      24.542  61.813  37.421  1.00  0.00     0.191 C 
BRANCH  31  32
ATOM     32  O   UNL     1      23.832  62.949  37.836  1.00  0.00    -0.394 OA
ATOM     33  H   UNL     1      23.927  63.625  37.115  1.00  0.00     0.210 HD
ENDBRANCH  31  32
ENDBRANCH  12  31
BRANCH  13  34
ATOM     34  O   UNL     1      21.037  59.948  40.527  1.00  0.00    -0.385 OA
ATOM     35  H   UNL     1      20.087  60.056  40.265  1.00  0.00     0.211 HD
ENDBRANCH  13  34
ENDBRANCH   8   9
ENDBRANCH   7   8
ENDBRANCH   1   7
BRANCH   6  36
ATOM     36  O   UNL     1      28.152  61.030  40.692  1.00  0.00    -0.387 OA
ATOM     37  H   UNL     1      28.245  61.519  41.548  1.00  0.00     0.211 HD
ENDBRANCH   6  36
BRANCH   3  38
ATOM     38  O   UNL     1      27.575  59.470  44.654  1.00  0.00    -0.432 OA
BRANCH  38  39
ATOM     39  C   UNL     1      28.061  60.130  45.725  1.00  0.00     0.315 C 
ATOM     40  O   UNL     1      27.818  61.317  45.893  1.00  0.00    -0.252 OA
BRANCH  39  41
ATOM     41  C   UNL     1      28.901  59.308  46.694  1.00  0.00     0.075 C 
ATOM     42  C   UNL     1      28.936  60.144  48.035  1.00  0.00     0.020 C 
ATOM     43  C   UNL     1      30.374  59.052  46.122  1.00  0.00     0.033 C 
ATOM     44  C   UNL     1      28.096  57.995  46.957  1.00  0.00     0.020 C 
ATOM     45  C   UNL     1      30.085  59.677  48.942  1.00  0.00     0.007 C 
ATOM     46  C   UNL     1      31.362  60.069  46.747  1.00  0.00     0.015 C 
ATOM     47  C   UNL     1      30.866  57.591  46.030  1.00  0.00    -0.063 C 
ATOM     48  C   UNL     1      28.443  56.877  45.980  1.00  0.00     0.013 C 
ATOM     49  C   UNL     1      31.479  59.963  48.294  1.00  0.00    -0.035 C 
ATOM     50  C   UNL     1      32.131  57.393  45.566  1.00  0.00    -0.027 C 
ATOM     51  C   UNL     1      29.913  56.387  46.167  1.00  0.00    -0.006 C 
ATOM     52  C   UNL     1      32.720  56.067  45.157  1.00  0.00     0.032 C 
ATOM     53  C   UNL     1      30.299  55.273  45.044  1.00  0.00    -0.020 C 
ATOM     54  C   UNL     1      31.776  54.848  45.316  1.00  0.00     0.006 C 
ATOM     55  C   UNL     1      29.416  53.997  45.159  1.00  0.00     0.008 C 
ATOM     56  C   UNL     1      32.357  53.452  44.757  1.00  0.00    -0.025 C 
ATOM     57  C   UNL     1      29.808  52.947  44.115  1.00  0.00     0.005 C 
ATOM     58  C   UNL     1      33.197  52.862  45.948  1.00  0.00     0.010 C 
ATOM     59  C   UNL     1      31.238  52.375  44.314  1.00  0.00     0.006 C 
ATOM     60  C   UNL     1      33.768  51.461  45.773  1.00  0.00     0.033 C 
ATOM     61  C   UNL     1      31.294  50.922  44.989  1.00  0.00     0.020 C 
ATOM     62  C   UNL     1      32.798  50.454  45.117  1.00  0.00     0.123 C 
ATOM     63  C   UNL     1      32.475  58.854  48.700  1.00  0.00     0.011 C 
ATOM     64  C   UNL     1      32.037  61.311  48.804  1.00  0.00     0.011 C 
ATOM     65  C   UNL     1      30.049  55.834  47.645  1.00  0.00     0.017 C 
ATOM     66  C   UNL     1      30.137  55.879  43.605  1.00  0.00     0.012 C 
ATOM     67  C   UNL     1      33.330  53.700  43.569  1.00  0.00     0.012 C 
ATOM     68  C   UNL     1      30.587  49.870  44.069  1.00  0.00     0.017 C 
BRANCH  61  69
ATOM     69  C   UNL     1      30.574  50.833  46.376  1.00  0.00     0.165 C 
BRANCH  69  70
ATOM     70  O   UNL     1      30.984  49.693  47.088  1.00  0.00    -0.396 OA
ATOM     71  H   UNL     1      31.138  49.967  48.029  1.00  0.00     0.210 HD
ENDBRANCH  69  70
ENDBRANCH  61  69
BRANCH  62  72
ATOM     72  O   UNL     1      33.346  50.034  43.886  1.00  0.00    -0.392 OA
ATOM     73  H   UNL     1      33.716  49.127  43.985  1.00  0.00     0.210 HD
ENDBRANCH  62  72
ENDBRANCH  39  41
ENDBRANCH  38  39
ENDBRANCH   3  38
BRANCH   5  74
ATOM     74  O   UNL     1      26.321  57.921  40.872  1.00  0.00    -0.387 OA
ATOM     75  H   UNL     1      26.313  57.252  41.603  1.00  0.00     0.211 HD
ENDBRANCH   5  74
BRANCH   4  76
ATOM     76  O   UNL     1      29.450  58.790  42.417  1.00  0.00    -0.384 OA
ATOM     77  H   UNL     1      29.723  59.462  41.741  1.00  0.00     0.211 HD
ENDBRANCH   4  76
TORSDOF 21
ENDMDL
MODEL 5
REMARK VINA RESULT:   -12.236      2.041      2.957
REMARK INTER + INTRA:         -25.773
REMARK INTER:                 -24.205
REMARK INTRA:                  -1.568
REMARK UNBOUND:                -2.449
REMARK SMILES C[C@@H]1O[C@@H](O[C@H]2[C@H](O)[C@@H](O)[C@H](OC[C@H]3O[C@@H](OC(=O)[C@]45CCC(C)(C)C[C@H]4C4=CC[C@@H]6[C@@]7(C)CC[C@H](O)[C@@](C)(CO)[C@H]7CC[C@@]6(C)[C@]4(C)CC5)[C@H](O)[C@@H](O)[C@@H]3O)O[C@@H]2CO)[C@H](O)[C@H](O)[C@H]1O
REMARK SMILES IDX 14 1 15 2 16 3 51 4 53 5 55 6 13 7 12 8 11 9 6 10 7 11 58 12
REMARK SMILES IDX 9 13 57 14 5 15 4 16 2 17 3 18 65 19 63 20 61 21 1 22 66 23
REMARK SMILES IDX 64 25 62 27 8 29 59 31 60 32 10 34 56 36 17 38 18 39 19 40
REMARK SMILES IDX 20 41 21 42 27 43 50 44 22 45 26 46 28 47 49 48 23 49 29 50
REMARK SMILES IDX 47 51 30 52 45 53 31 54 44 55 32 56 43 57 34 58 42 59 35 60
REMARK SMILES IDX 38 61 36 62 24 63 25 64 48 65 46 66 33 67 39 68 40 69 41 70
REMARK SMILES IDX 37 72 54 74 52 76
REMARK H PARENT 66 24 64 26 62 28 8 30 60 33 10 35 56 37 41 71 37 73 54 75
REMARK H PARENT 52 77
ROOT
ATOM      1  C   UNL     1      26.087  60.130  41.209  1.00  0.00     0.180 C 
ATOM      2  O   UNL     1      26.770  60.129  42.454  1.00  0.00    -0.332 OA
ATOM      3  C   UNL     1      27.815  59.197  42.514  1.00  0.00     0.342 C 
ATOM      4  C   UNL     1      27.294  57.733  42.425  1.00  0.00     0.214 C 
ATOM      5  C   UNL     1      26.066  57.604  41.465  1.00  0.00     0.180 C 
ATOM      6  C   UNL     1      26.114  58.741  40.439  1.00  0.00     0.177 C 
ENDROOT
BRANCH   1   7
ATOM      7  C   UNL     1      24.665  60.615  41.541  1.00  0.00     0.198 C 
BRANCH   7   8
ATOM      8  O   UNL     1      24.026  61.135  40.408  1.00  0.00    -0.347 OA
BRANCH   8   9
ATOM      9  C   UNL     1      23.354  60.142  39.662  1.00  0.00     0.282 C 
ATOM     10  C   UNL     1      22.135  61.149  37.238  1.00  0.00     0.184 C 
ATOM     11  C   UNL     1      21.321  60.245  38.179  1.00  0.00     0.180 C 
ATOM     12  C   UNL     1      23.667  60.944  37.422  1.00  0.00     0.178 C 
ATOM     13  C   UNL     1      21.854  60.513  39.588  1.00  0.00     0.202 C 
ATOM     14  O   UNL     1      23.997  59.976  38.405  1.00  0.00    -0.341 OA
BRANCH  10  15
ATOM     15  O   UNL     1      21.768  60.889  35.889  1.00  0.00    -0.341 OA
BRANCH  15  16
ATOM     16  C   UNL     1      21.052  61.952  35.291  1.00  0.00     0.282 C 
ATOM     17  C   UNL     1      19.033  62.480  34.182  1.00  0.00     0.150 C 
ATOM     18  O   UNL     1      19.907  61.445  34.650  1.00  0.00    -0.344 OA
ATOM     19  C   UNL     1      19.740  63.860  33.926  1.00  0.00     0.174 C 
ATOM     20  C   UNL     1      21.121  63.564  33.302  1.00  0.00     0.179 C 
ATOM     21  C   UNL     1      21.960  62.676  34.268  1.00  0.00     0.202 C 
ATOM     22  C   UNL     1      17.849  62.618  35.138  1.00  0.00     0.041 C 
BRANCH  19  23
ATOM     23  O   UNL     1      18.955  64.694  33.118  1.00  0.00    -0.388 OA
ATOM     24  H   UNL     1      18.057  64.766  33.539  1.00  0.00     0.211 HD
ENDBRANCH  19  23
BRANCH  20  25
ATOM     25  O   UNL     1      21.810  64.720  32.904  1.00  0.00    -0.387 OA
ATOM     26  H   UNL     1      21.167  65.300  32.416  1.00  0.00     0.211 HD
ENDBRANCH  20  25
BRANCH  21  27
ATOM     27  O   UNL     1      22.946  63.414  34.952  1.00  0.00    -0.385 OA
ATOM     28  H   UNL     1      23.757  63.439  34.381  1.00  0.00     0.211 HD
ENDBRANCH  21  27
ENDBRANCH  15  16
ENDBRANCH  10  15
BRANCH  11  29
ATOM     29  O   UNL     1      19.945  60.532  38.087  1.00  0.00    -0.387 OA
ATOM     30  H   UNL     1      19.768  61.365  38.601  1.00  0.00     0.211 HD
ENDBRANCH  11  29
BRANCH  12  31
ATOM     31  C   UNL     1      24.429  62.266  37.652  1.00  0.00     0.191 C 
BRANCH  31  32
ATOM     32  O   UNL     1      25.805  62.087  37.443  1.00  0.00    -0.394 OA
ATOM     33  H   UNL     1      25.917  61.197  37.019  1.00  0.00     0.210 HD
ENDBRANCH  31  32
ENDBRANCH  12  31
BRANCH  13  34
ATOM     34  O   UNL     1      21.108  59.869  40.590  1.00  0.00    -0.385 OA
ATOM     35  H   UNL     1      20.587  59.145  40.156  1.00  0.00     0.211 HD
ENDBRANCH  13  34
ENDBRANCH   8   9
ENDBRANCH   7   8
ENDBRANCH   1   7
BRANCH   6  36
ATOM     36  O   UNL     1      27.281  58.566  39.663  1.00  0.00    -0.387 OA
ATOM     37  H   UNL     1      27.801  59.407  39.628  1.00  0.00     0.211 HD
ENDBRANCH   6  36
BRANCH   3  38
ATOM     38  O   UNL     1      28.410  59.360  43.733  1.00  0.00    -0.432 OA
BRANCH  38  39
ATOM     39  C   UNL     1      29.685  59.705  44.002  1.00  0.00     0.315 C 
ATOM     40  O   UNL     1      30.281  60.505  43.293  1.00  0.00    -0.252 OA
BRANCH  39  41
ATOM     41  C   UNL     1      30.310  59.055  45.229  1.00  0.00     0.075 C 
ATOM     42  C   UNL     1      30.539  60.233  46.258  1.00  0.00     0.020 C 
ATOM     43  C   UNL     1      31.682  58.315  44.867  1.00  0.00     0.033 C 
ATOM     44  C   UNL     1      29.219  58.101  45.815  1.00  0.00     0.020 C 
ATOM     45  C   UNL     1      31.547  59.824  47.344  1.00  0.00     0.007 C 
ATOM     46  C   UNL     1      32.880  59.228  45.230  1.00  0.00     0.015 C 
ATOM     47  C   UNL     1      31.819  56.825  45.253  1.00  0.00    -0.063 C 
ATOM     48  C   UNL     1      29.296  56.689  45.244  1.00  0.00     0.013 C 
ATOM     49  C   UNL     1      32.970  59.579  46.742  1.00  0.00    -0.035 C 
ATOM     50  C   UNL     1      33.001  56.218  44.962  1.00  0.00    -0.027 C 
ATOM     51  C   UNL     1      30.610  55.966  45.674  1.00  0.00    -0.006 C 
ATOM     52  C   UNL     1      33.265  54.734  45.011  1.00  0.00     0.032 C 
ATOM     53  C   UNL     1      30.724  54.504  44.966  1.00  0.00    -0.020 C 
ATOM     54  C   UNL     1      32.062  53.865  45.459  1.00  0.00     0.006 C 
ATOM     55  C   UNL     1      29.568  53.555  45.394  1.00  0.00     0.008 C 
ATOM     56  C   UNL     1      32.300  52.273  45.386  1.00  0.00    -0.025 C 
ATOM     57  C   UNL     1      29.703  52.176  44.743  1.00  0.00     0.005 C 
ATOM     58  C   UNL     1      32.979  51.906  46.756  1.00  0.00     0.010 C 
ATOM     59  C   UNL     1      30.960  51.389  45.206  1.00  0.00     0.006 C 
ATOM     60  C   UNL     1      33.207  50.429  47.049  1.00  0.00     0.033 C 
ATOM     61  C   UNL     1      30.675  50.240  46.286  1.00  0.00     0.020 C 
ATOM     62  C   UNL     1      32.028  49.512  46.656  1.00  0.00     0.123 C 
ATOM     63  C   UNL     1      33.679  58.457  47.531  1.00  0.00     0.011 C 
ATOM     64  C   UNL     1      33.828  60.860  46.864  1.00  0.00     0.011 C 
ATOM     65  C   UNL     1      30.613  55.878  47.256  1.00  0.00     0.017 C 
ATOM     66  C   UNL     1      30.709  54.658  43.404  1.00  0.00     0.012 C 
ATOM     67  C   UNL     1      33.304  51.921  44.251  1.00  0.00     0.012 C 
ATOM     68  C   UNL     1      29.741  49.141  45.675  1.00  0.00     0.017 C 
BRANCH  61  69
ATOM     69  C   UNL     1      29.954  50.745  47.582  1.00  0.00     0.165 C 
BRANCH  69  70
ATOM     70  O   UNL     1      29.148  49.737  48.138  1.00  0.00    -0.396 OA
ATOM     71  H   UNL     1      28.985  49.973  49.087  1.00  0.00     0.210 HD
ENDBRANCH  69  70
ENDBRANCH  61  69
BRANCH  62  72
ATOM     72  O   UNL     1      32.462  48.623  45.650  1.00  0.00    -0.392 OA
ATOM     73  H   UNL     1      33.416  48.417  45.785  1.00  0.00     0.210 HD
ENDBRANCH  62  72
ENDBRANCH  39  41
ENDBRANCH  38  39
ENDBRANCH   3  38
BRANCH   5  74
ATOM     74  O   UNL     1      24.833  57.633  42.150  1.00  0.00    -0.387 OA
ATOM     75  H   UNL     1      24.686  56.778  42.629  1.00  0.00     0.211 HD
ENDBRANCH   5  74
BRANCH   4  76
ATOM     76  O   UNL     1      28.348  56.880  42.050  1.00  0.00    -0.384 OA
ATOM     77  H   UNL     1      28.116  55.959  42.332  1.00  0.00     0.211 HD
ENDBRANCH   4  76
TORSDOF 21
ENDMDL
MODEL 6
REMARK VINA RESULT:   -12.132      3.107      6.133
REMARK INTER + INTRA:         -25.574
REMARK INTER:                 -23.361
REMARK INTRA:                  -2.213
REMARK UNBOUND:                -2.449
REMARK SMILES C[C@@H]1O[C@@H](O[C@H]2[C@H](O)[C@@H](O)[C@H](OC[C@H]3O[C@@H](OC(=O)[C@]45CCC(C)(C)C[C@H]4C4=CC[C@@H]6[C@@]7(C)CC[C@H](O)[C@@](C)(CO)[C@H]7CC[C@@]6(C)[C@]4(C)CC5)[C@H](O)[C@@H](O)[C@@H]3O)O[C@@H]2CO)[C@H](O)[C@H](O)[C@H]1O
REMARK SMILES IDX 14 1 15 2 16 3 51 4 53 5 55 6 13 7 12 8 11 9 6 10 7 11 58 12
REMARK SMILES IDX 9 13 57 14 5 15 4 16 2 17 3 18 65 19 63 20 61 21 1 22 66 23
REMARK SMILES IDX 64 25 62 27 8 29 59 31 60 32 10 34 56 36 17 38 18 39 19 40
REMARK SMILES IDX 20 41 21 42 27 43 50 44 22 45 26 46 28 47 49 48 23 49 29 50
REMARK SMILES IDX 47 51 30 52 45 53 31 54 44 55 32 56 43 57 34 58 42 59 35 60
REMARK SMILES IDX 38 61 36 62 24 63 25 64 48 65 46 66 33 67 39 68 40 69 41 70
REMARK SMILES IDX 37 72 54 74 52 76
REMARK H PARENT 66 24 64 26 62 28 8 30 60 33 10 35 56 37 41 71 37 73 54 75
REMARK H PARENT 52 77
ROOT
ATOM      1  C   UNL     1      24.908  59.139  41.098  1.00  0.00     0.180 C 
ATOM      2  O   UNL     1      26.015  58.257  41.208  1.00  0.00    -0.332 OA
ATOM      3  C   UNL     1      26.839  58.536  42.308  1.00  0.00     0.342 C 
ATOM      4  C   UNL     1      27.535  59.921  42.176  1.00  0.00     0.214 C 
ATOM      5  C   UNL     1      26.612  60.980  41.490  1.00  0.00     0.180 C 
ATOM      6  C   UNL     1      25.148  60.583  41.713  1.00  0.00     0.177 C 
ENDROOT
BRANCH   1   7
ATOM      7  C   UNL     1      24.574  59.164  39.597  1.00  0.00     0.198 C 
BRANCH   7   8
ATOM      8  O   UNL     1      23.408  59.898  39.345  1.00  0.00    -0.347 OA
BRANCH   8   9
ATOM      9  C   UNL     1      23.672  61.261  39.084  1.00  0.00     0.282 C 
ATOM     10  C   UNL     1      21.878  62.431  37.138  1.00  0.00     0.184 C 
ATOM     11  C   UNL     1      23.393  62.656  37.005  1.00  0.00     0.180 C 
ATOM     12  C   UNL     1      21.470  62.083  38.599  1.00  0.00     0.178 C 
ATOM     13  C   UNL     1      24.058  61.410  37.593  1.00  0.00     0.202 C 
ATOM     14  O   UNL     1      22.565  62.048  39.501  1.00  0.00    -0.341 OA
BRANCH  10  15
ATOM     15  O   UNL     1      21.182  63.592  36.701  1.00  0.00    -0.341 OA
BRANCH  15  16
ATOM     16  C   UNL     1      20.476  63.397  35.491  1.00  0.00     0.282 C 
ATOM     17  C   UNL     1      20.757  63.192  33.154  1.00  0.00     0.150 C 
ATOM     18  O   UNL     1      21.354  63.558  34.404  1.00  0.00    -0.344 OA
ATOM     19  C   UNL     1      19.187  63.275  33.135  1.00  0.00     0.174 C 
ATOM     20  C   UNL     1      18.780  64.528  33.940  1.00  0.00     0.179 C 
ATOM     21  C   UNL     1      19.318  64.419  35.398  1.00  0.00     0.202 C 
ATOM     22  C   UNL     1      21.256  61.811  32.734  1.00  0.00     0.041 C 
BRANCH  19  23
ATOM     23  O   UNL     1      18.692  63.296  31.825  1.00  0.00    -0.388 OA
ATOM     24  H   UNL     1      19.410  62.963  31.224  1.00  0.00     0.211 HD
ENDBRANCH  19  23
BRANCH  20  25
ATOM     25  O   UNL     1      17.402  64.793  33.897  1.00  0.00    -0.387 OA
ATOM     26  H   UNL     1      17.267  65.729  34.206  1.00  0.00     0.211 HD
ENDBRANCH  20  25
BRANCH  21  27
ATOM     27  O   UNL     1      18.307  64.073  36.316  1.00  0.00    -0.385 OA
ATOM     28  H   UNL     1      17.671  64.832  36.368  1.00  0.00     0.211 HD
ENDBRANCH  21  27
ENDBRANCH  15  16
ENDBRANCH  10  15
BRANCH  11  29
ATOM     29  O   UNL     1      23.758  62.846  35.658  1.00  0.00    -0.387 OA
ATOM     30  H   UNL     1      24.742  62.990  35.622  1.00  0.00     0.211 HD
ENDBRANCH  11  29
BRANCH  12  31
ATOM     31  C   UNL     1      20.614  60.803  38.699  1.00  0.00     0.191 C 
BRANCH  31  32
ATOM     32  O   UNL     1      20.515  60.376  40.031  1.00  0.00    -0.394 OA
ATOM     33  H   UNL     1      19.860  60.976  40.476  1.00  0.00     0.210 HD
ENDBRANCH  31  32
ENDBRANCH  12  31
BRANCH  13  34
ATOM     34  O   UNL     1      25.452  61.393  37.411  1.00  0.00    -0.385 OA
ATOM     35  H   UNL     1      25.651  61.892  36.578  1.00  0.00     0.211 HD
ENDBRANCH  13  34
ENDBRANCH   8   9
ENDBRANCH   7   8
ENDBRANCH   1   7
BRANCH   6  36
ATOM     36  O   UNL     1      24.899  60.637  43.102  1.00  0.00    -0.387 OA
ATOM     37  H   UNL     1      25.352  59.886  43.563  1.00  0.00     0.211 HD
ENDBRANCH   6  36
BRANCH   3  38
ATOM     38  O   UNL     1      27.810  57.575  42.317  1.00  0.00    -0.432 OA
BRANCH  38  39
ATOM     39  C   UNL     1      27.719  56.297  42.739  1.00  0.00     0.315 C 
ATOM     40  O   UNL     1      27.196  55.441  42.038  1.00  0.00    -0.252 OA
BRANCH  39  41
ATOM     41  C   UNL     1      28.312  56.001  44.110  1.00  0.00     0.075 C 
ATOM     42  C   UNL     1      27.157  55.289  44.923  1.00  0.00     0.020 C 
ATOM     43  C   UNL     1      28.804  57.339  44.838  1.00  0.00     0.033 C 
ATOM     44  C   UNL     1      29.454  54.961  43.871  1.00  0.00     0.020 C 
ATOM     45  C   UNL     1      27.445  55.329  46.432  1.00  0.00     0.007 C 
ATOM     46  C   UNL     1      27.727  57.813  45.844  1.00  0.00     0.015 C 
ATOM     47  C   UNL     1      30.268  57.392  45.329  1.00  0.00    -0.063 C 
ATOM     48  C   UNL     1      30.809  55.614  43.619  1.00  0.00     0.013 C 
ATOM     49  C   UNL     1      27.431  56.793  46.980  1.00  0.00    -0.035 C 
ATOM     50  C   UNL     1      30.663  58.527  45.970  1.00  0.00    -0.027 C 
ATOM     51  C   UNL     1      31.328  56.366  44.883  1.00  0.00    -0.006 C 
ATOM     52  C   UNL     1      32.086  58.899  46.302  1.00  0.00     0.032 C 
ATOM     53  C   UNL     1      32.721  57.147  44.561  1.00  0.00    -0.020 C 
ATOM     54  C   UNL     1      33.156  57.861  45.879  1.00  0.00     0.006 C 
ATOM     55  C   UNL     1      33.861  56.167  44.161  1.00  0.00     0.008 C 
ATOM     56  C   UNL     1      34.684  58.315  46.114  1.00  0.00    -0.025 C 
ATOM     57  C   UNL     1      35.171  56.911  43.887  1.00  0.00     0.005 C 
ATOM     58  C   UNL     1      34.995  57.918  47.604  1.00  0.00     0.010 C 
ATOM     59  C   UNL     1      35.764  57.610  45.142  1.00  0.00     0.006 C 
ATOM     60  C   UNL     1      36.428  58.098  48.089  1.00  0.00     0.033 C 
ATOM     61  C   UNL     1      36.989  56.837  45.827  1.00  0.00     0.020 C 
ATOM     62  C   UNL     1      37.506  57.658  47.074  1.00  0.00     0.123 C 
ATOM     63  C   UNL     1      28.458  56.926  48.126  1.00  0.00     0.011 C 
ATOM     64  C   UNL     1      26.036  57.135  47.551  1.00  0.00     0.011 C 
ATOM     65  C   UNL     1      31.483  55.301  46.045  1.00  0.00     0.017 C 
ATOM     66  C   UNL     1      32.503  58.180  43.399  1.00  0.00     0.012 C 
ATOM     67  C   UNL     1      34.820  59.860  45.998  1.00  0.00     0.012 C 
ATOM     68  C   UNL     1      38.198  56.748  44.833  1.00  0.00     0.017 C 
BRANCH  61  69
ATOM     69  C   UNL     1      36.665  55.361  46.240  1.00  0.00     0.165 C 
BRANCH  69  70
ATOM     70  O   UNL     1      37.502  54.452  45.573  1.00  0.00    -0.396 OA
ATOM     71  H   UNL     1      37.504  54.696  44.611  1.00  0.00     0.210 HD
ENDBRANCH  69  70
ENDBRANCH  61  69
BRANCH  62  72
ATOM     72  O   UNL     1      38.268  58.787  46.707  1.00  0.00    -0.392 OA
ATOM     73  H   UNL     1      38.922  58.986  47.416  1.00  0.00     0.210 HD
ENDBRANCH  62  72
ENDBRANCH  39  41
ENDBRANCH  38  39
ENDBRANCH   3  38
BRANCH   5  74
ATOM     74  O   UNL     1      26.863  61.111  40.108  1.00  0.00    -0.387 OA
ATOM     75  H   UNL     1      27.411  60.350  39.785  1.00  0.00     0.211 HD
ENDBRANCH   5  74
BRANCH   4  76
ATOM     76  O   UNL     1      27.978  60.349  43.441  1.00  0.00    -0.384 OA
ATOM     77  H   UNL     1      28.710  59.748  43.733  1.00  0.00     0.211 HD
ENDBRANCH   4  76
TORSDOF 21
ENDMDL
MODEL 7
REMARK VINA RESULT:   -12.107      1.681      2.352
REMARK INTER + INTRA:         -25.526
REMARK INTER:                 -23.727
REMARK INTRA:                  -1.799
REMARK UNBOUND:                -2.449
REMARK SMILES C[C@@H]1O[C@@H](O[C@H]2[C@H](O)[C@@H](O)[C@H](OC[C@H]3O[C@@H](OC(=O)[C@]45CCC(C)(C)C[C@H]4C4=CC[C@@H]6[C@@]7(C)CC[C@H](O)[C@@](C)(CO)[C@H]7CC[C@@]6(C)[C@]4(C)CC5)[C@H](O)[C@@H](O)[C@@H]3O)O[C@@H]2CO)[C@H](O)[C@H](O)[C@H]1O
REMARK SMILES IDX 14 1 15 2 16 3 51 4 53 5 55 6 13 7 12 8 11 9 6 10 7 11 58 12
REMARK SMILES IDX 9 13 57 14 5 15 4 16 2 17 3 18 65 19 63 20 61 21 1 22 66 23
REMARK SMILES IDX 64 25 62 27 8 29 59 31 60 32 10 34 56 36 17 38 18 39 19 40
REMARK SMILES IDX 20 41 21 42 27 43 50 44 22 45 26 46 28 47 49 48 23 49 29 50
REMARK SMILES IDX 47 51 30 52 45 53 31 54 44 55 32 56 43 57 34 58 42 59 35 60
REMARK SMILES IDX 38 61 36 62 24 63 25 64 48 65 46 66 33 67 39 68 40 69 41 70
REMARK SMILES IDX 37 72 54 74 52 76
REMARK H PARENT 66 24 64 26 62 28 8 30 60 33 10 35 56 37 41 71 37 73 54 75
REMARK H PARENT 52 77
ROOT
ATOM      1  C   UNL     1      26.565  59.912  41.202  1.00  0.00     0.180 C 
ATOM      2  O   UNL     1      26.911  59.559  42.532  1.00  0.00    -0.332 OA
ATOM      3  C   UNL     1      27.522  58.301  42.632  1.00  0.00     0.342 C 
ATOM      4  C   UNL     1      26.555  57.151  42.228  1.00  0.00     0.214 C 
ATOM      5  C   UNL     1      25.603  57.567  41.059  1.00  0.00     0.180 C 
ATOM      6  C   UNL     1      26.272  58.680  40.244  1.00  0.00     0.177 C 
ENDROOT
BRANCH   1   7
ATOM      7  C   UNL     1      25.368  60.868  41.348  1.00  0.00     0.198 C 
BRANCH   7   8
ATOM      8  O   UNL     1      24.740  61.092  40.116  1.00  0.00    -0.347 OA
BRANCH   8   9
ATOM      9  C   UNL     1      23.382  60.704  40.123  1.00  0.00     0.282 C 
ATOM     10  C   UNL     1      21.998  61.308  37.653  1.00  0.00     0.184 C 
ATOM     11  C   UNL     1      21.351  61.682  38.998  1.00  0.00     0.180 C 
ATOM     12  C   UNL     1      23.037  60.159  37.811  1.00  0.00     0.178 C 
ATOM     13  C   UNL     1      22.508  61.970  39.956  1.00  0.00     0.202 C 
ATOM     14  O   UNL     1      23.171  59.694  39.145  1.00  0.00    -0.341 OA
BRANCH  10  15
ATOM     15  O   UNL     1      20.989  60.928  36.726  1.00  0.00    -0.341 OA
BRANCH  15  16
ATOM     16  C   UNL     1      20.722  61.920  35.754  1.00  0.00     0.282 C 
ATOM     17  C   UNL     1      18.981  63.179  34.770  1.00  0.00     0.150 C 
ATOM     18  O   UNL     1      19.332  62.063  35.599  1.00  0.00    -0.344 OA
ATOM     19  C   UNL     1      20.107  63.620  33.764  1.00  0.00     0.174 C 
ATOM     20  C   UNL     1      20.776  62.336  33.227  1.00  0.00     0.179 C 
ATOM     21  C   UNL     1      21.372  61.514  34.409  1.00  0.00     0.202 C 
ATOM     22  C   UNL     1      18.519  64.341  35.647  1.00  0.00     0.041 C 
BRANCH  19  23
ATOM     23  O   UNL     1      19.590  64.422  32.739  1.00  0.00    -0.388 OA
ATOM     24  H   UNL     1      20.207  64.358  31.963  1.00  0.00     0.211 HD
ENDBRANCH  19  23
BRANCH  20  25
ATOM     25  O   UNL     1      21.720  62.582  32.218  1.00  0.00    -0.387 OA
ATOM     26  H   UNL     1      21.643  61.849  31.550  1.00  0.00     0.211 HD
ENDBRANCH  20  25
BRANCH  21  27
ATOM     27  O   UNL     1      22.771  61.648  34.501  1.00  0.00    -0.385 OA
ATOM     28  H   UNL     1      23.023  61.552  35.456  1.00  0.00     0.211 HD
ENDBRANCH  21  27
ENDBRANCH  15  16
ENDBRANCH  10  15
BRANCH  11  29
ATOM     29  O   UNL     1      20.510  62.802  38.856  1.00  0.00    -0.387 OA
ATOM     30  H   UNL     1      21.001  63.601  39.188  1.00  0.00     0.211 HD
ENDBRANCH  11  29
BRANCH  12  31
ATOM     31  C   UNL     1      24.408  60.495  37.188  1.00  0.00     0.191 C 
BRANCH  31  32
ATOM     32  O   UNL     1      24.659  59.679  36.075  1.00  0.00    -0.394 OA
ATOM     33  H   UNL     1      25.474  60.038  35.635  1.00  0.00     0.210 HD
ENDBRANCH  31  32
ENDBRANCH  12  31
BRANCH  13  34
ATOM     34  O   UNL     1      22.080  62.474  41.197  1.00  0.00    -0.385 OA
ATOM     35  H   UNL     1      21.381  63.154  41.019  1.00  0.00     0.211 HD
ENDBRANCH  13  34
ENDBRANCH   8   9
ENDBRANCH   7   8
ENDBRANCH   1   7
BRANCH   6  36
ATOM     36  O   UNL     1      27.444  58.141  39.668  1.00  0.00    -0.387 OA
ATOM     37  H   UNL     1      27.676  58.629  38.839  1.00  0.00     0.211 HD
ENDBRANCH   6  36
BRANCH   3  38
ATOM     38  O   UNL     1      27.852  58.134  43.947  1.00  0.00    -0.432 OA
BRANCH  38  39
ATOM     39  C   UNL     1      27.073  58.311  45.033  1.00  0.00     0.315 C 
ATOM     40  O   UNL     1      25.893  58.611  44.916  1.00  0.00    -0.252 OA
BRANCH  39  41
ATOM     41  C   UNL     1      27.747  58.100  46.382  1.00  0.00     0.075 C 
ATOM     42  C   UNL     1      27.747  59.519  47.079  1.00  0.00     0.020 C 
ATOM     43  C   UNL     1      29.233  57.528  46.212  1.00  0.00     0.033 C 
ATOM     44  C   UNL     1      26.802  57.156  47.194  1.00  0.00     0.020 C 
ATOM     45  C   UNL     1      28.767  59.565  48.228  1.00  0.00     0.007 C 
ATOM     46  C   UNL     1      30.255  58.686  46.327  1.00  0.00     0.015 C 
ATOM     47  C   UNL     1      29.591  56.225  46.961  1.00  0.00    -0.063 C 
ATOM     48  C   UNL     1      27.125  55.679  46.998  1.00  0.00     0.013 C 
ATOM     49  C   UNL     1      30.231  59.414  47.701  1.00  0.00    -0.035 C 
ATOM     50  C   UNL     1      30.866  55.767  46.827  1.00  0.00    -0.027 C 
ATOM     51  C   UNL     1      28.521  55.312  47.591  1.00  0.00    -0.006 C 
ATOM     52  C   UNL     1      31.360  54.406  47.248  1.00  0.00     0.032 C 
ATOM     53  C   UNL     1      28.893  53.759  47.275  1.00  0.00    -0.020 C 
ATOM     54  C   UNL     1      30.296  53.491  47.906  1.00  0.00     0.006 C 
ATOM     55  C   UNL     1      27.888  52.771  47.933  1.00  0.00     0.008 C 
ATOM     56  C   UNL     1      30.788  51.993  48.236  1.00  0.00    -0.025 C 
ATOM     57  C   UNL     1      28.266  51.314  47.650  1.00  0.00     0.005 C 
ATOM     58  C   UNL     1      31.466  52.096  49.652  1.00  0.00     0.010 C 
ATOM     59  C   UNL     1      29.614  50.885  48.292  1.00  0.00     0.006 C 
ATOM     60  C   UNL     1      31.916  50.797  50.307  1.00  0.00     0.033 C 
ATOM     61  C   UNL     1      29.477  50.011  49.628  1.00  0.00     0.020 C 
ATOM     62  C   UNL     1      30.913  49.630  50.164  1.00  0.00     0.123 C 
ATOM     63  C   UNL     1      31.081  58.656  48.745  1.00  0.00     0.011 C 
ATOM     64  C   UNL     1      30.869  60.807  47.492  1.00  0.00     0.011 C 
ATOM     65  C   UNL     1      28.479  55.624  49.143  1.00  0.00     0.017 C 
ATOM     66  C   UNL     1      28.911  53.513  45.724  1.00  0.00     0.012 C 
ATOM     67  C   UNL     1      31.877  51.538  47.223  1.00  0.00     0.012 C 
ATOM     68  C   UNL     1      28.754  48.656  49.318  1.00  0.00     0.017 C 
BRANCH  61  69
ATOM     69  C   UNL     1      28.636  50.698  50.757  1.00  0.00     0.165 C 
BRANCH  69  70
ATOM     70  O   UNL     1      27.314  50.224  50.764  1.00  0.00    -0.396 OA
ATOM     71  H   UNL     1      27.159  49.755  49.904  1.00  0.00     0.210 HD
ENDBRANCH  69  70
ENDBRANCH  61  69
BRANCH  62  72
ATOM     72  O   UNL     1      31.522  48.602  49.413  1.00  0.00    -0.392 OA
ATOM     73  H   UNL     1      31.937  48.986  48.608  1.00  0.00     0.210 HD
ENDBRANCH  62  72
ENDBRANCH  39  41
ENDBRANCH  38  39
ENDBRANCH   3  38
BRANCH   5  74
ATOM     74  O   UNL     1      24.340  58.003  41.511  1.00  0.00    -0.387 OA
ATOM     75  H   UNL     1      23.801  58.340  40.751  1.00  0.00     0.211 HD
ENDBRANCH   5  74
BRANCH   4  76
ATOM     76  O   UNL     1      27.297  55.997  41.918  1.00  0.00    -0.384 OA
ATOM     77  H   UNL     1      26.670  55.307  41.581  1.00  0.00     0.211 HD
ENDBRANCH   4  76
TORSDOF 21
ENDMDL
MODEL 8
REMARK VINA RESULT:   -11.958      9.137     23.036
REMARK INTER + INTRA:         -25.244
REMARK INTER:                 -22.775
REMARK INTRA:                  -2.468
REMARK UNBOUND:                -2.449
REMARK SMILES C[C@@H]1O[C@@H](O[C@H]2[C@H](O)[C@@H](O)[C@H](OC[C@H]3O[C@@H](OC(=O)[C@]45CCC(C)(C)C[C@H]4C4=CC[C@@H]6[C@@]7(C)CC[C@H](O)[C@@](C)(CO)[C@H]7CC[C@@]6(C)[C@]4(C)CC5)[C@H](O)[C@@H](O)[C@@H]3O)O[C@@H]2CO)[C@H](O)[C@H](O)[C@H]1O
REMARK SMILES IDX 14 1 15 2 16 3 51 4 53 5 55 6 13 7 12 8 11 9 6 10 7 11 58 12
REMARK SMILES IDX 9 13 57 14 5 15 4 16 2 17 3 18 65 19 63 20 61 21 1 22 66 23
REMARK SMILES IDX 64 25 62 27 8 29 59 31 60 32 10 34 56 36 17 38 18 39 19 40
REMARK SMILES IDX 20 41 21 42 27 43 50 44 22 45 26 46 28 47 49 48 23 49 29 50
REMARK SMILES IDX 47 51 30 52 45 53 31 54 44 55 32 56 43 57 34 58 42 59 35 60
REMARK SMILES IDX 38 61 36 62 24 63 25 64 48 65 46 66 33 67 39 68 40 69 41 70
REMARK SMILES IDX 37 72 54 74 52 76
REMARK H PARENT 66 24 64 26 62 28 8 30 60 33 10 35 56 37 41 71 37 73 54 75
REMARK H PARENT 52 77
ROOT
ATOM      1  C   UNL     1      17.713  63.585  31.063  1.00  0.00     0.180 C 
ATOM      2  O   UNL     1      16.956  64.774  31.230  1.00  0.00    -0.332 OA
ATOM      3  C   UNL     1      15.798  64.810  30.440  1.00  0.00     0.342 C 
ATOM      4  C   UNL     1      16.132  64.843  28.921  1.00  0.00     0.214 C 
ATOM      5  C   UNL     1      17.394  63.986  28.577  1.00  0.00     0.180 C 
ATOM      6  C   UNL     1      17.560  62.896  29.641  1.00  0.00     0.177 C 
ENDROOT
BRANCH   1   7
ATOM      7  C   UNL     1      19.161  63.992  31.390  1.00  0.00     0.198 C 
BRANCH   7   8
ATOM      8  O   UNL     1      19.445  63.820  32.751  1.00  0.00    -0.347 OA
BRANCH   8   9
ATOM      9  C   UNL     1      19.628  62.463  33.097  1.00  0.00     0.282 C 
ATOM     10  C   UNL     1      20.782  62.090  35.726  1.00  0.00     0.184 C 
ATOM     11  C   UNL     1      21.355  61.314  34.528  1.00  0.00     0.180 C 
ATOM     12  C   UNL     1      19.312  62.538  35.475  1.00  0.00     0.178 C 
ATOM     13  C   UNL     1      21.140  62.208  33.305  1.00  0.00     0.202 C 
ATOM     14  O   UNL     1      18.805  62.142  34.211  1.00  0.00    -0.341 OA
BRANCH  10  15
ATOM     15  O   UNL     1      20.853  61.285  36.896  1.00  0.00    -0.341 OA
BRANCH  15  16
ATOM     16  C   UNL     1      21.870  61.689  37.791  1.00  0.00     0.282 C 
ATOM     17  C   UNL     1      24.141  61.347  38.348  1.00  0.00     0.150 C 
ATOM     18  O   UNL     1      23.005  60.879  37.609  1.00  0.00    -0.344 OA
ATOM     19  C   UNL     1      23.783  62.225  39.602  1.00  0.00     0.174 C 
ATOM     20  C   UNL     1      22.535  61.601  40.263  1.00  0.00     0.179 C 
ATOM     21  C   UNL     1      21.355  61.571  39.246  1.00  0.00     0.202 C 
ATOM     22  C   UNL     1      25.100  62.070  37.404  1.00  0.00     0.041 C 
BRANCH  19  23
ATOM     23  O   UNL     1      24.866  62.319  40.485  1.00  0.00    -0.388 OA
ATOM     24  H   UNL     1      24.680  63.064  41.116  1.00  0.00     0.211 HD
ENDBRANCH  19  23
BRANCH  20  25
ATOM     25  O   UNL     1      22.181  62.217  41.474  1.00  0.00    -0.387 OA
ATOM     26  H   UNL     1      22.556  63.139  41.462  1.00  0.00     0.211 HD
ENDBRANCH  20  25
BRANCH  21  27
ATOM     27  O   UNL     1      20.408  62.583  39.495  1.00  0.00    -0.385 OA
ATOM     28  H   UNL     1      19.762  62.587  38.742  1.00  0.00     0.211 HD
ENDBRANCH  21  27
ENDBRANCH  15  16
ENDBRANCH  10  15
BRANCH  11  29
ATOM     29  O   UNL     1      22.719  61.026  34.721  1.00  0.00    -0.387 OA
ATOM     30  H   UNL     1      23.241  61.846  34.509  1.00  0.00     0.211 HD
ENDBRANCH  11  29
BRANCH  12  31
ATOM     31  C   UNL     1      19.088  64.043  35.728  1.00  0.00     0.191 C 
BRANCH  31  32
ATOM     32  O   UNL     1      20.302  64.743  35.660  1.00  0.00    -0.394 OA
ATOM     33  H   UNL     1      20.987  64.171  36.097  1.00  0.00     0.210 HD
ENDBRANCH  31  32
ENDBRANCH  12  31
BRANCH  13  34
ATOM     34  O   UNL     1      21.748  61.703  32.142  1.00  0.00    -0.385 OA
ATOM     35  H   UNL     1      22.100  62.475  31.629  1.00  0.00     0.211 HD
ENDBRANCH  13  34
ENDBRANCH   8   9
ENDBRANCH   7   8
ENDBRANCH   1   7
BRANCH   6  36
ATOM     36  O   UNL     1      16.434  62.047  29.560  1.00  0.00    -0.387 OA
ATOM     37  H   UNL     1      16.488  61.337  30.248  1.00  0.00     0.211 HD
ENDBRANCH   6  36
BRANCH   3  38
ATOM     38  O   UNL     1      15.150  65.970  30.755  1.00  0.00    -0.432 OA
BRANCH  38  39
ATOM     39  C   UNL     1      14.349  66.221  31.811  1.00  0.00     0.315 C 
ATOM     40  O   UNL     1      14.802  66.253  32.947  1.00  0.00    -0.252 OA
BRANCH  39  41
ATOM     41  C   UNL     1      12.881  66.470  31.493  1.00  0.00     0.075 C 
ATOM     42  C   UNL     1      12.082  65.378  32.312  1.00  0.00     0.020 C 
ATOM     43  C   UNL     1      12.593  66.355  29.923  1.00  0.00     0.033 C 
ATOM     44  C   UNL     1      12.542  67.873  32.091  1.00  0.00     0.020 C 
ATOM     45  C   UNL     1      10.656  65.216  31.762  1.00  0.00     0.007 C 
ATOM     46  C   UNL     1      12.016  64.954  29.598  1.00  0.00     0.015 C 
ATOM     47  C   UNL     1      11.907  67.553  29.229  1.00  0.00    -0.063 C 
ATOM     48  C   UNL     1      12.769  69.012  31.102  1.00  0.00     0.013 C 
ATOM     49  C   UNL     1      10.665  64.649  30.304  1.00  0.00    -0.035 C 
ATOM     50  C   UNL     1      11.645  67.428  27.899  1.00  0.00    -0.027 C 
ATOM     51  C   UNL     1      11.777  68.934  29.900  1.00  0.00    -0.006 C 
ATOM     52  C   UNL     1      11.225  68.545  26.976  1.00  0.00     0.032 C 
ATOM     53  C   UNL     1      12.108  70.092  28.803  1.00  0.00    -0.020 C 
ATOM     54  C   UNL     1      11.067  69.932  27.649  1.00  0.00     0.006 C 
ATOM     55  C   UNL     1      11.938  71.521  29.391  1.00  0.00     0.008 C 
ATOM     56  C   UNL     1      10.747  71.150  26.644  1.00  0.00    -0.025 C 
ATOM     57  C   UNL     1      12.224  72.599  28.342  1.00  0.00     0.005 C 
ATOM     58  C   UNL     1       9.182  71.135  26.481  1.00  0.00     0.010 C 
ATOM     59  C   UNL     1      11.210  72.607  27.165  1.00  0.00     0.006 C 
ATOM     60  C   UNL     1       8.552  72.271  25.686  1.00  0.00     0.033 C 
ATOM     61  C   UNL     1      10.099  73.759  27.241  1.00  0.00     0.020 C 
ATOM     62  C   UNL     1       9.149  73.665  25.983  1.00  0.00     0.123 C 
ATOM     63  C   UNL     1       9.479  65.242  29.512  1.00  0.00     0.011 C 
ATOM     64  C   UNL     1      10.498  63.112  30.329  1.00  0.00     0.011 C 
ATOM     65  C   UNL     1      10.309  69.049  30.482  1.00  0.00     0.017 C 
ATOM     66  C   UNL     1      13.576  69.928  28.271  1.00  0.00     0.012 C 
ATOM     67  C   UNL     1      11.370  70.883  25.244  1.00  0.00     0.012 C 
ATOM     68  C   UNL     1      10.776  75.170  27.171  1.00  0.00     0.017 C 
BRANCH  61  69
ATOM     69  C   UNL     1       9.259  73.751  28.563  1.00  0.00     0.165 C 
BRANCH  69  70
ATOM     70  O   UNL     1       9.932  74.425  29.595  1.00  0.00    -0.396 OA
ATOM     71  H   UNL     1      10.879  74.530  29.318  1.00  0.00     0.210 HD
ENDBRANCH  69  70
ENDBRANCH  61  69
BRANCH  62  72
ATOM     72  O   UNL     1       9.750  74.158  24.805  1.00  0.00    -0.392 OA
ATOM     73  H   UNL     1      10.726  74.046  24.865  1.00  0.00     0.210 HD
ENDBRANCH  62  72
ENDBRANCH  39  41
ENDBRANCH  38  39
ENDBRANCH   3  38
BRANCH   5  74
ATOM     74  O   UNL     1      18.573  64.757  28.499  1.00  0.00    -0.387 OA
ATOM     75  H   UNL     1      18.870  65.023  29.407  1.00  0.00     0.211 HD
ENDBRANCH   5  74
BRANCH   4  76
ATOM     76  O   UNL     1      15.005  64.441  28.181  1.00  0.00    -0.384 OA
ATOM     77  H   UNL     1      15.050  63.459  28.057  1.00  0.00     0.211 HD
ENDBRANCH   4  76
TORSDOF 21
ENDMDL
MODEL 9
REMARK VINA RESULT:   -11.799      3.059      4.527
REMARK INTER + INTRA:         -24.939
REMARK INTER:                 -23.795
REMARK INTRA:                  -1.144
REMARK UNBOUND:                -2.449
REMARK SMILES C[C@@H]1O[C@@H](O[C@H]2[C@H](O)[C@@H](O)[C@H](OC[C@H]3O[C@@H](OC(=O)[C@]45CCC(C)(C)C[C@H]4C4=CC[C@@H]6[C@@]7(C)CC[C@H](O)[C@@](C)(CO)[C@H]7CC[C@@]6(C)[C@]4(C)CC5)[C@H](O)[C@@H](O)[C@@H]3O)O[C@@H]2CO)[C@H](O)[C@H](O)[C@H]1O
REMARK SMILES IDX 14 1 15 2 16 3 51 4 53 5 55 6 13 7 12 8 11 9 6 10 7 11 58 12
REMARK SMILES IDX 9 13 57 14 5 15 4 16 2 17 3 18 65 19 63 20 61 21 1 22 66 23
REMARK SMILES IDX 64 25 62 27 8 29 59 31 60 32 10 34 56 36 17 38 18 39 19 40
REMARK SMILES IDX 20 41 21 42 27 43 50 44 22 45 26 46 28 47 49 48 23 49 29 50
REMARK SMILES IDX 47 51 30 52 45 53 31 54 44 55 32 56 43 57 34 58 42 59 35 60
REMARK SMILES IDX 38 61 36 62 24 63 25 64 48 65 46 66 33 67 39 68 40 69 41 70
REMARK SMILES IDX 37 72 54 74 52 76
REMARK H PARENT 66 24 64 26 62 28 8 30 60 33 10 35 56 37 41 71 37 73 54 75
REMARK H PARENT 52 77
ROOT
ATOM      1  C   UNL     1      26.248  59.962  40.970  1.00  0.00     0.180 C 
ATOM      2  O   UNL     1      26.959  60.083  42.193  1.00  0.00    -0.332 OA
ATOM      3  C   UNL     1      27.554  58.884  42.610  1.00  0.00     0.342 C 
ATOM      4  C   UNL     1      26.493  57.798  42.953  1.00  0.00     0.214 C 
ATOM      5  C   UNL     1      25.251  57.870  42.006  1.00  0.00     0.180 C 
ATOM      6  C   UNL     1      25.672  58.512  40.679  1.00  0.00     0.177 C 
ENDROOT
BRANCH   1   7
ATOM      7  C   UNL     1      25.159  61.047  41.039  1.00  0.00     0.198 C 
BRANCH   7   8
ATOM      8  O   UNL     1      24.588  61.279  39.782  1.00  0.00    -0.347 OA
BRANCH   8   9
ATOM      9  C   UNL     1      23.242  60.857  39.713  1.00  0.00     0.282 C 
ATOM     10  C   UNL     1      21.963  61.488  37.195  1.00  0.00     0.184 C 
ATOM     11  C   UNL     1      21.242  61.812  38.515  1.00  0.00     0.180 C 
ATOM     12  C   UNL     1      23.022  60.362  37.375  1.00  0.00     0.178 C 
ATOM     13  C   UNL     1      22.344  62.104  39.535  1.00  0.00     0.202 C 
ATOM     14  O   UNL     1      23.105  59.867  38.702  1.00  0.00    -0.341 OA
BRANCH  10  15
ATOM     15  O   UNL     1      21.009  61.107  36.211  1.00  0.00    -0.341 OA
BRANCH  15  16
ATOM     16  C   UNL     1      20.576  62.186  35.405  1.00  0.00     0.282 C 
ATOM     17  C   UNL     1      18.890  62.852  33.890  1.00  0.00     0.150 C 
ATOM     18  O   UNL     1      19.505  61.767  34.597  1.00  0.00    -0.344 OA
ATOM     19  C   UNL     1      19.826  64.097  33.670  1.00  0.00     0.174 C 
ATOM     20  C   UNL     1      21.238  63.563  33.350  1.00  0.00     0.179 C 
ATOM     21  C   UNL     1      21.750  62.678  34.526  1.00  0.00     0.202 C 
ATOM     22  C   UNL     1      17.586  63.240  34.585  1.00  0.00     0.041 C 
BRANCH  19  23
ATOM     23  O   UNL     1      19.330  64.937  32.665  1.00  0.00    -0.388 OA
ATOM     24  H   UNL     1      18.394  64.663  32.475  1.00  0.00     0.211 HD
ENDBRANCH  19  23
BRANCH  20  25
ATOM     25  O   UNL     1      22.150  64.574  33.005  1.00  0.00    -0.387 OA
ATOM     26  H   UNL     1      22.805  64.182  32.368  1.00  0.00     0.211 HD
ENDBRANCH  20  25
BRANCH  21  27
ATOM     27  O   UNL     1      22.693  63.350  35.328  1.00  0.00    -0.385 OA
ATOM     28  H   UNL     1      22.210  64.045  35.846  1.00  0.00     0.211 HD
ENDBRANCH  21  27
ENDBRANCH  15  16
ENDBRANCH  10  15
BRANCH  11  29
ATOM     29  O   UNL     1      20.379  62.914  38.360  1.00  0.00    -0.387 OA
ATOM     30  H   UNL     1      20.269  63.085  37.387  1.00  0.00     0.211 HD
ENDBRANCH  11  29
BRANCH  12  31
ATOM     31  C   UNL     1      24.412  60.748  36.827  1.00  0.00     0.191 C 
BRANCH  31  32
ATOM     32  O   UNL     1      25.073  59.622  36.316  1.00  0.00    -0.394 OA
ATOM     33  H   UNL     1      25.718  59.328  37.012  1.00  0.00     0.210 HD
ENDBRANCH  31  32
ENDBRANCH  12  31
BRANCH  13  34
ATOM     34  O   UNL     1      21.844  62.566  40.766  1.00  0.00    -0.385 OA
ATOM     35  H   UNL     1      21.856  63.557  40.741  1.00  0.00     0.211 HD
ENDBRANCH  13  34
ENDBRANCH   8   9
ENDBRANCH   7   8
ENDBRANCH   1   7
BRANCH   6  36
ATOM     36  O   UNL     1      26.619  57.656  40.074  1.00  0.00    -0.387 OA
ATOM     37  H   UNL     1      26.257  57.281  39.232  1.00  0.00     0.211 HD
ENDBRANCH   6  36
BRANCH   3  38
ATOM     38  O   UNL     1      28.246  59.172  43.751  1.00  0.00    -0.432 OA
BRANCH  38  39
ATOM     39  C   UNL     1      29.398  59.861  43.879  1.00  0.00     0.315 C 
ATOM     40  O   UNL     1      29.488  61.012  43.473  1.00  0.00    -0.252 OA
BRANCH  39  41
ATOM     41  C   UNL     1      30.545  59.128  44.562  1.00  0.00     0.075 C 
ATOM     42  C   UNL     1      31.396  58.493  43.390  1.00  0.00     0.020 C 
ATOM     43  C   UNL     1      30.007  58.009  45.572  1.00  0.00     0.033 C 
ATOM     44  C   UNL     1      31.412  60.230  45.253  1.00  0.00     0.020 C 
ATOM     45  C   UNL     1      32.309  57.376  43.920  1.00  0.00     0.007 C 
ATOM     46  C   UNL     1      30.052  56.621  44.886  1.00  0.00     0.015 C 
ATOM     47  C   UNL     1      30.502  58.063  47.035  1.00  0.00    -0.063 C 
ATOM     48  C   UNL     1      30.975  60.520  46.684  1.00  0.00     0.013 C 
ATOM     49  C   UNL     1      31.480  56.169  44.469  1.00  0.00    -0.035 C 
ATOM     50  C   UNL     1      30.055  57.089  47.874  1.00  0.00    -0.027 C 
ATOM     51  C   UNL     1      31.221  59.295  47.619  1.00  0.00    -0.006 C 
ATOM     52  C   UNL     1      30.197  57.088  49.375  1.00  0.00     0.032 C 
ATOM     53  C   UNL     1      30.648  59.585  49.116  1.00  0.00    -0.020 C 
ATOM     54  C   UNL     1      30.942  58.311  49.969  1.00  0.00     0.006 C 
ATOM     55  C   UNL     1      31.371  60.781  49.797  1.00  0.00     0.008 C 
ATOM     56  C   UNL     1      30.979  58.377  51.578  1.00  0.00    -0.025 C 
ATOM     57  C   UNL     1      30.842  61.025  51.213  1.00  0.00     0.005 C 
ATOM     58  C   UNL     1      32.229  57.512  51.986  1.00  0.00     0.010 C 
ATOM     59  C   UNL     1      31.137  59.860  52.198  1.00  0.00     0.006 C 
ATOM     60  C   UNL     1      32.614  57.495  53.459  1.00  0.00     0.033 C 
ATOM     61  C   UNL     1      32.357  60.121  53.204  1.00  0.00     0.020 C 
ATOM     62  C   UNL     1      32.537  58.872  54.155  1.00  0.00     0.123 C 
ATOM     63  C   UNL     1      32.227  55.526  45.657  1.00  0.00     0.011 C 
ATOM     64  C   UNL     1      31.317  55.092  43.372  1.00  0.00     0.011 C 
ATOM     65  C   UNL     1      32.775  58.991  47.611  1.00  0.00     0.017 C 
ATOM     66  C   UNL     1      29.108  59.886  49.055  1.00  0.00     0.012 C 
ATOM     67  C   UNL     1      29.717  57.699  52.184  1.00  0.00     0.012 C 
ATOM     68  C   UNL     1      32.038  61.338  54.138  1.00  0.00     0.017 C 
BRANCH  61  69
ATOM     69  C   UNL     1      33.709  60.468  52.494  1.00  0.00     0.165 C 
BRANCH  69  70
ATOM     70  O   UNL     1      34.001  61.838  52.602  1.00  0.00    -0.396 OA
ATOM     71  H   UNL     1      34.521  62.098  51.798  1.00  0.00     0.210 HD
ENDBRANCH  69  70
ENDBRANCH  61  69
BRANCH  62  72
ATOM     72  O   UNL     1      31.558  58.812  55.169  1.00  0.00    -0.392 OA
ATOM     73  H   UNL     1      31.126  57.928  55.155  1.00  0.00     0.210 HD
ENDBRANCH  62  72
ENDBRANCH  39  41
ENDBRANCH  38  39
ENDBRANCH   3  38
BRANCH   5  74
ATOM     74  O   UNL     1      24.179  58.598  42.565  1.00  0.00    -0.387 OA
ATOM     75  H   UNL     1      24.327  59.571  42.449  1.00  0.00     0.211 HD
ENDBRANCH   5  74
BRANCH   4  76
ATOM     76  O   UNL     1      27.096  56.527  42.934  1.00  0.00    -0.384 OA
ATOM     77  H   UNL     1      27.483  56.355  43.829  1.00  0.00     0.211 HD
ENDBRANCH   4  76
TORSDOF 21
ENDMDL
