MODEL 1
REMARK VINA RESULT:   -12.516      0.000      0.000
REMARK INTER + INTRA:         -25.764
REMARK INTER:                 -23.492
REMARK INTRA:                  -2.272
REMARK UNBOUND:                -2.272
REMARK SMILES C=C1CC[C@]2(C(=O)O[C@@H]3O[C@H](CO[C@@H]4O[C@H](CO)[C@@H](O[C@@H]5O[C@@H](C)[C@H](O)[C@@H](O)[C@H]5O)[C@H](O)[C@H]4O)[C@@H](O)[C@H](O)[C@H]3O)CC[C@]3(C)C(=CC[C@@H]4[C@@]5(C)CC[C@H](O)[C@@](C)(C=O)[C@@H]5CC[C@]43C)[C@@H]2C1
REMARK SMILES IDX 12 1 11 2 9 3 10 4 39 5 37 6 35 7 8 8 6 9 7 10 5 11 1 12
REMARK SMILES IDX 2 13 3 14 65 15 4 16 64 17 45 18 41 19 43 20 46 21 42 22
REMARK SMILES IDX 62 23 47 24 61 25 48 26 60 27 49 28 59 29 51 30 55 31 52 32
REMARK SMILES IDX 53 33 44 34 63 35 50 36 56 37 57 38 58 39 54 40 40 42 38 44
REMARK SMILES IDX 36 46 13 48 14 49 15 50 33 51 16 52 31 53 19 54 34 55 17 57
REMARK SMILES IDX 18 58 32 60 20 62 21 63 22 64 29 65 23 66 27 67 25 68 24 69
REMARK SMILES IDX 30 70 28 72 26 74
REMARK H PARENT 54 41 40 43 38 45 36 47 34 56 18 59 32 61 30 71 28 73 26 75
ROOT
ATOM      1  C   UNL     1      26.185  59.278  40.670  1.00  0.00     0.198 C 
ENDROOT
BRANCH   1   2
ATOM      2  C   UNL     1      27.157  59.932  41.650  1.00  0.00     0.180 C 
ATOM      3  C   UNL     1      27.667  60.152  43.942  1.00  0.00     0.342 C 
ATOM      4  O   UNL     1      26.983  59.388  42.939  1.00  0.00    -0.332 OA
ATOM      5  C   UNL     1      28.952  60.898  43.436  1.00  0.00     0.214 C 
ATOM      6  C   UNL     1      29.633  60.021  42.372  1.00  0.00     0.180 C 
ATOM      7  C   UNL     1      28.642  59.773  41.189  1.00  0.00     0.177 C 
BRANCH   3   8
ATOM      8  O   UNL     1      28.058  59.269  44.929  1.00  0.00    -0.432 OA
BRANCH   8   9
ATOM      9  C   UNL     1      27.299  58.859  45.981  1.00  0.00     0.315 C 
ATOM     10  O   UNL     1      26.148  59.258  46.107  1.00  0.00    -0.252 OA
BRANCH   9  11
ATOM     11  C   UNL     1      27.932  57.910  47.010  1.00  0.00     0.075 C 
ATOM     12  C   UNL     1      30.700  60.905  47.355  1.00  0.00     0.008 C 
ATOM     13  C   UNL     1      29.966  59.831  47.678  1.00  0.00    -0.077 C 
ATOM     14  C   UNL     1      28.601  59.996  48.310  1.00  0.00     0.031 C 
ATOM     15  C   UNL     1      30.471  58.434  47.436  1.00  0.00     0.039 C 
ATOM     16  C   UNL     1      27.867  58.633  48.397  1.00  0.00     0.024 C 
ATOM     17  C   UNL     1      29.443  57.556  46.663  1.00  0.00     0.037 C 
ATOM     18  C   UNL     1      29.843  56.079  46.844  1.00  0.00    -0.063 C 
ATOM     19  C   UNL     1      27.058  56.634  46.946  1.00  0.00     0.020 C 
ATOM     20  C   UNL     1      28.999  55.045  47.618  1.00  0.00    -0.006 C 
ATOM     21  C   UNL     1      30.956  55.678  46.181  1.00  0.00    -0.027 C 
ATOM     22  C   UNL     1      27.549  55.573  47.919  1.00  0.00     0.013 C 
ATOM     23  C   UNL     1      29.018  53.633  46.815  1.00  0.00    -0.020 C 
ATOM     24  C   UNL     1      31.404  54.247  46.000  1.00  0.00     0.032 C 
ATOM     25  C   UNL     1      28.226  52.525  47.586  1.00  0.00     0.008 C 
ATOM     26  C   UNL     1      30.535  53.170  46.706  1.00  0.00     0.006 C 
ATOM     27  C   UNL     1      28.454  51.097  47.065  1.00  0.00     0.006 C 
ATOM     28  C   UNL     1      30.832  51.665  46.250  1.00  0.00    -0.025 C 
ATOM     29  C   UNL     1      29.954  50.735  47.182  1.00  0.00     0.011 C 
ATOM     30  C   UNL     1      32.329  51.322  46.543  1.00  0.00     0.010 C 
ATOM     31  C   UNL     1      30.245  49.183  47.146  1.00  0.00     0.052 C 
ATOM     32  C   UNL     1      32.653  49.817  46.407  1.00  0.00     0.033 C 
ATOM     33  C   UNL     1      31.779  48.984  47.371  1.00  0.00     0.127 C 
ATOM     34  C   UNL     1      29.681  54.961  49.029  1.00  0.00     0.017 C 
ATOM     35  C   UNL     1      28.333  53.829  45.430  1.00  0.00     0.012 C 
ATOM     36  C   UNL     1      30.600  51.454  44.716  1.00  0.00     0.012 C 
ATOM     37  C   UNL     1      29.744  48.470  45.856  1.00  0.00     0.022 C 
BRANCH  31  38
ATOM     38  C   UNL     1      29.536  48.548  48.345  1.00  0.00     0.233 C 
ATOM     39  O   UNL     1      29.303  47.350  48.409  1.00  0.00    -0.303 OA
ENDBRANCH  31  38
BRANCH  33  40
ATOM     40  O   UNL     1      32.137  47.623  47.352  1.00  0.00    -0.392 OA
ATOM     41  H   UNL     1      31.596  47.153  48.038  1.00  0.00     0.210 HD
ENDBRANCH  33  40
ENDBRANCH   9  11
ENDBRANCH   8   9
ENDBRANCH   3   8
BRANCH   5  42
ATOM     42  O   UNL     1      28.625  62.141  42.868  1.00  0.00    -0.384 OA
ATOM     43  H   UNL     1      27.933  61.967  42.176  1.00  0.00     0.211 HD
ENDBRANCH   5  42
BRANCH   6  44
ATOM     44  O   UNL     1      30.062  58.812  42.959  1.00  0.00    -0.387 OA
ATOM     45  H   UNL     1      30.870  58.979  43.510  1.00  0.00     0.211 HD
ENDBRANCH   6  44
BRANCH   7  46
ATOM     46  O   UNL     1      28.905  60.632  40.105  1.00  0.00    -0.387 OA
ATOM     47  H   UNL     1      28.043  60.837  39.659  1.00  0.00     0.211 HD
ENDBRANCH   7  46
ENDBRANCH   1   2
BRANCH   1  48
ATOM     48  O   UNL     1      25.761  60.250  39.744  1.00  0.00    -0.347 OA
BRANCH  48  49
ATOM     49  C   UNL     1      24.425  60.655  39.975  1.00  0.00     0.282 C 
ATOM     50  O   UNL     1      23.630  59.969  38.998  1.00  0.00    -0.341 OA
ATOM     51  C   UNL     1      24.388  62.216  39.869  1.00  0.00     0.202 C 
ATOM     52  C   UNL     1      22.542  60.742  38.541  1.00  0.00     0.178 C 
ATOM     53  C   UNL     1      24.330  62.582  38.376  1.00  0.00     0.180 C 
ATOM     54  C   UNL     1      23.022  62.002  37.746  1.00  0.00     0.184 C 
BRANCH  51  55
ATOM     55  O   UNL     1      23.259  62.727  40.536  1.00  0.00    -0.385 OA
ATOM     56  H   UNL     1      22.672  61.954  40.742  1.00  0.00     0.211 HD
ENDBRANCH  51  55
BRANCH  52  57
ATOM     57  C   UNL     1      21.598  59.866  37.707  1.00  0.00     0.191 C 
BRANCH  57  58
ATOM     58  O   UNL     1      20.258  60.227  37.904  1.00  0.00    -0.394 OA
ATOM     59  H   UNL     1      20.188  60.560  38.837  1.00  0.00     0.210 HD
ENDBRANCH  57  58
ENDBRANCH  52  57
BRANCH  53  60
ATOM     60  O   UNL     1      25.487  62.108  37.723  1.00  0.00    -0.387 OA
ATOM     61  H   UNL     1      25.572  61.129  37.863  1.00  0.00     0.211 HD
ENDBRANCH  53  60
BRANCH  54  62
ATOM     62  O   UNL     1      21.964  62.937  37.850  1.00  0.00    -0.341 OA
BRANCH  62  63
ATOM     63  C   UNL     1      21.302  63.202  36.627  1.00  0.00     0.282 C 
ATOM     64  O   UNL     1      19.974  62.720  36.685  1.00  0.00    -0.344 OA
ATOM     65  C   UNL     1      22.119  62.479  35.518  1.00  0.00     0.202 C 
ATOM     66  C   UNL     1      19.225  62.979  35.489  1.00  0.00     0.150 C 
ATOM     67  C   UNL     1      21.222  62.015  34.349  1.00  0.00     0.179 C 
ATOM     68  C   UNL     1      20.073  63.012  34.176  1.00  0.00     0.174 C 
ATOM     69  C   UNL     1      18.381  64.249  35.626  1.00  0.00     0.041 C 
BRANCH  65  70
ATOM     70  O   UNL     1      23.172  63.313  35.094  1.00  0.00    -0.385 OA
ATOM     71  H   UNL     1      23.463  63.859  35.871  1.00  0.00     0.211 HD
ENDBRANCH  65  70
BRANCH  67  72
ATOM     72  O   UNL     1      21.964  61.794  33.174  1.00  0.00    -0.387 OA
ATOM     73  H   UNL     1      21.604  62.396  32.471  1.00  0.00     0.211 HD
ENDBRANCH  67  72
BRANCH  68  74
ATOM     74  O   UNL     1      19.274  62.717  33.056  1.00  0.00    -0.388 OA
ATOM     75  H   UNL     1      18.904  63.575  32.716  1.00  0.00     0.211 HD
ENDBRANCH  68  74
ENDBRANCH  62  63
ENDBRANCH  54  62
ENDBRANCH  48  49
ENDBRANCH   1  48
TORSDOF 20
ENDMDL
MODEL 2
REMARK VINA RESULT:   -12.314      1.495      2.203
REMARK INTER + INTRA:         -25.384
REMARK INTER:                 -23.005
REMARK INTRA:                  -2.380
REMARK UNBOUND:                -2.272
REMARK SMILES C=C1CC[C@]2(C(=O)O[C@@H]3O[C@H](CO[C@@H]4O[C@H](CO)[C@@H](O[C@@H]5O[C@@H](C)[C@H](O)[C@@H](O)[C@H]5O)[C@H](O)[C@H]4O)[C@@H](O)[C@H](O)[C@H]3O)CC[C@]3(C)C(=CC[C@@H]4[C@@]5(C)CC[C@H](O)[C@@](C)(C=O)[C@@H]5CC[C@]43C)[C@@H]2C1
REMARK SMILES IDX 12 1 11 2 9 3 10 4 39 5 37 6 35 7 8 8 6 9 7 10 5 11 1 12
REMARK SMILES IDX 2 13 3 14 65 15 4 16 64 17 45 18 41 19 43 20 46 21 42 22
REMARK SMILES IDX 62 23 47 24 61 25 48 26 60 27 49 28 59 29 51 30 55 31 52 32
REMARK SMILES IDX 53 33 44 34 63 35 50 36 56 37 57 38 58 39 54 40 40 42 38 44
REMARK SMILES IDX 36 46 13 48 14 49 15 50 33 51 16 52 31 53 19 54 34 55 17 57
REMARK SMILES IDX 18 58 32 60 20 62 21 63 22 64 29 65 23 66 27 67 25 68 24 69
REMARK SMILES IDX 30 70 28 72 26 74
REMARK H PARENT 54 41 40 43 38 45 36 47 34 56 18 59 32 61 30 71 28 73 26 75
ROOT
ATOM      1  C   UNL     1      25.671  60.721  40.108  1.00  0.00     0.198 C 
ENDROOT
BRANCH   1   2
ATOM      2  C   UNL     1      26.651  60.462  41.251  1.00  0.00     0.180 C 
ATOM      3  C   UNL     1      26.821  59.576  43.430  1.00  0.00     0.342 C 
ATOM      4  O   UNL     1      26.056  59.625  42.217  1.00  0.00    -0.332 OA
ATOM      5  C   UNL     1      28.364  59.794  43.241  1.00  0.00     0.214 C 
ATOM      6  C   UNL     1      28.782  59.163  41.903  1.00  0.00     0.180 C 
ATOM      7  C   UNL     1      27.988  59.836  40.738  1.00  0.00     0.177 C 
BRANCH   3   8
ATOM      8  O   UNL     1      26.640  58.320  43.973  1.00  0.00    -0.432 OA
BRANCH   8   9
ATOM      9  C   UNL     1      26.131  58.048  45.205  1.00  0.00     0.315 C 
ATOM     10  O   UNL     1      24.990  58.388  45.493  1.00  0.00    -0.252 OA
BRANCH   9  11
ATOM     11  C   UNL     1      27.030  57.330  46.223  1.00  0.00     0.075 C 
ATOM     12  C   UNL     1      28.663  61.054  46.684  1.00  0.00     0.008 C 
ATOM     13  C   UNL     1      28.318  59.791  46.970  1.00  0.00    -0.077 C 
ATOM     14  C   UNL     1      26.968  59.484  47.582  1.00  0.00     0.031 C 
ATOM     15  C   UNL     1      29.254  58.642  46.705  1.00  0.00     0.039 C 
ATOM     16  C   UNL     1      26.719  57.954  47.625  1.00  0.00     0.024 C 
ATOM     17  C   UNL     1      28.576  57.499  45.894  1.00  0.00     0.037 C 
ATOM     18  C   UNL     1      29.436  56.229  46.049  1.00  0.00    -0.063 C 
ATOM     19  C   UNL     1      26.622  55.841  46.115  1.00  0.00     0.020 C 
ATOM     20  C   UNL     1      28.969  54.956  46.784  1.00  0.00    -0.006 C 
ATOM     21  C   UNL     1      30.625  56.232  45.396  1.00  0.00    -0.027 C 
ATOM     22  C   UNL     1      27.424  54.972  47.071  1.00  0.00     0.013 C 
ATOM     23  C   UNL     1      29.457  53.650  45.949  1.00  0.00    -0.020 C 
ATOM     24  C   UNL     1      31.518  55.031  45.190  1.00  0.00     0.032 C 
ATOM     25  C   UNL     1      29.063  52.323  46.681  1.00  0.00     0.008 C 
ATOM     26  C   UNL     1      31.042  53.711  45.856  1.00  0.00     0.006 C 
ATOM     27  C   UNL     1      29.750  51.063  46.132  1.00  0.00     0.006 C 
ATOM     28  C   UNL     1      31.819  52.398  45.371  1.00  0.00    -0.025 C 
ATOM     29  C   UNL     1      31.285  51.207  46.266  1.00  0.00     0.011 C 
ATOM     30  C   UNL     1      33.343  52.555  45.683  1.00  0.00     0.010 C 
ATOM     31  C   UNL     1      32.068  49.837  46.199  1.00  0.00     0.052 C 
ATOM     32  C   UNL     1      34.143  51.242  45.518  1.00  0.00     0.033 C 
ATOM     33  C   UNL     1      33.580  50.144  46.447  1.00  0.00     0.127 C 
ATOM     34  C   UNL     1      29.629  55.060  48.204  1.00  0.00     0.017 C 
ATOM     35  C   UNL     1      28.757  53.649  44.558  1.00  0.00     0.012 C 
ATOM     36  C   UNL     1      31.683  52.165  43.829  1.00  0.00     0.012 C 
ATOM     37  C   UNL     1      31.840  49.035  44.885  1.00  0.00     0.022 C 
BRANCH  31  38
ATOM     38  C   UNL     1      31.595  48.973  47.371  1.00  0.00     0.233 C 
ATOM     39  O   UNL     1      32.371  48.481  48.177  1.00  0.00    -0.303 OA
ENDBRANCH  31  38
BRANCH  33  40
ATOM     40  O   UNL     1      34.365  48.976  46.403  1.00  0.00    -0.392 OA
ATOM     41  H   UNL     1      33.861  48.251  46.856  1.00  0.00     0.210 HD
ENDBRANCH  33  40
ENDBRANCH   9  11
ENDBRANCH   8   9
ENDBRANCH   3   8
BRANCH   5  42
ATOM     42  O   UNL     1      28.683  61.164  43.224  1.00  0.00    -0.384 OA
ATOM     43  H   UNL     1      28.152  61.590  43.946  1.00  0.00     0.211 HD
ENDBRANCH   5  42
BRANCH   6  44
ATOM     44  O   UNL     1      28.565  57.769  41.950  1.00  0.00    -0.387 OA
ATOM     45  H   UNL     1      28.903  57.410  42.811  1.00  0.00     0.211 HD
ENDBRANCH   6  44
BRANCH   7  46
ATOM     46  O   UNL     1      28.760  60.815  40.084  1.00  0.00    -0.387 OA
ATOM     47  H   UNL     1      28.498  60.824  39.127  1.00  0.00     0.211 HD
ENDBRANCH   7  46
ENDBRANCH   1   2
BRANCH   1  48
ATOM     48  O   UNL     1      24.363  60.714  40.631  1.00  0.00    -0.347 OA
BRANCH  48  49
ATOM     49  C   UNL     1      23.487  59.913  39.861  1.00  0.00     0.282 C 
ATOM     50  O   UNL     1      23.991  59.955  38.519  1.00  0.00    -0.341 OA
ATOM     51  C   UNL     1      22.047  60.497  40.038  1.00  0.00     0.202 C 
ATOM     52  C   UNL     1      22.964  59.934  37.551  1.00  0.00     0.178 C 
ATOM     53  C   UNL     1      21.911  61.702  39.092  1.00  0.00     0.180 C 
ATOM     54  C   UNL     1      22.085  61.227  37.613  1.00  0.00     0.184 C 
BRANCH  51  55
ATOM     55  O   UNL     1      21.080  59.524  39.722  1.00  0.00    -0.385 OA
ATOM     56  H   UNL     1      20.486  59.922  39.034  1.00  0.00     0.211 HD
ENDBRANCH  51  55
BRANCH  52  57
ATOM     57  C   UNL     1      23.570  59.721  36.158  1.00  0.00     0.191 C 
BRANCH  57  58
ATOM     58  O   UNL     1      24.967  59.632  36.216  1.00  0.00    -0.394 OA
ATOM     59  H   UNL     1      25.284  60.443  36.691  1.00  0.00     0.210 HD
ENDBRANCH  57  58
ENDBRANCH  52  57
BRANCH  53  60
ATOM     60  O   UNL     1      22.852  62.693  39.444  1.00  0.00    -0.387 OA
ATOM     61  H   UNL     1      23.026  62.657  40.420  1.00  0.00     0.211 HD
ENDBRANCH  53  60
BRANCH  54  62
ATOM     62  O   UNL     1      20.836  60.858  37.059  1.00  0.00    -0.341 OA
BRANCH  62  63
ATOM     63  C   UNL     1      20.458  61.615  35.924  1.00  0.00     0.282 C 
ATOM     64  O   UNL     1      21.594  62.252  35.372  1.00  0.00    -0.344 OA
ATOM     65  C   UNL     1      19.409  62.652  36.414  1.00  0.00     0.202 C 
ATOM     66  C   UNL     1      21.298  63.017  34.195  1.00  0.00     0.150 C 
ATOM     67  C   UNL     1      19.463  63.962  35.595  1.00  0.00     0.179 C 
ATOM     68  C   UNL     1      19.861  63.631  34.154  1.00  0.00     0.174 C 
ATOM     69  C   UNL     1      21.586  62.215  32.924  1.00  0.00     0.041 C 
BRANCH  65  70
ATOM     70  O   UNL     1      18.130  62.063  36.409  1.00  0.00    -0.385 OA
ATOM     71  H   UNL     1      17.463  62.778  36.236  1.00  0.00     0.211 HD
ENDBRANCH  65  70
BRANCH  67  72
ATOM     72  O   UNL     1      18.268  64.696  35.700  1.00  0.00    -0.387 OA
ATOM     73  H   UNL     1      17.584  64.241  35.143  1.00  0.00     0.211 HD
ENDBRANCH  67  72
BRANCH  68  74
ATOM     74  O   UNL     1      19.822  64.761  33.317  1.00  0.00    -0.388 OA
ATOM     75  H   UNL     1      19.840  65.568  33.897  1.00  0.00     0.211 HD
ENDBRANCH  68  74
ENDBRANCH  62  63
ENDBRANCH  54  62
ENDBRANCH  48  49
ENDBRANCH   1  48
TORSDOF 20
ENDMDL
MODEL 3
REMARK VINA RESULT:   -12.215      2.614      3.831
REMARK INTER + INTRA:         -25.199
REMARK INTER:                 -22.544
REMARK INTRA:                  -2.655
REMARK UNBOUND:                -2.272
REMARK SMILES C=C1CC[C@]2(C(=O)O[C@@H]3O[C@H](CO[C@@H]4O[C@H](CO)[C@@H](O[C@@H]5O[C@@H](C)[C@H](O)[C@@H](O)[C@H]5O)[C@H](O)[C@H]4O)[C@@H](O)[C@H](O)[C@H]3O)CC[C@]3(C)C(=CC[C@@H]4[C@@]5(C)CC[C@H](O)[C@@](C)(C=O)[C@@H]5CC[C@]43C)[C@@H]2C1
REMARK SMILES IDX 12 1 11 2 9 3 10 4 39 5 37 6 35 7 8 8 6 9 7 10 5 11 1 12
REMARK SMILES IDX 2 13 3 14 65 15 4 16 64 17 45 18 41 19 43 20 46 21 42 22
REMARK SMILES IDX 62 23 47 24 61 25 48 26 60 27 49 28 59 29 51 30 55 31 52 32
REMARK SMILES IDX 53 33 44 34 63 35 50 36 56 37 57 38 58 39 54 40 40 42 38 44
REMARK SMILES IDX 36 46 13 48 14 49 15 50 33 51 16 52 31 53 19 54 34 55 17 57
REMARK SMILES IDX 18 58 32 60 20 62 21 63 22 64 29 65 23 66 27 67 25 68 24 69
REMARK SMILES IDX 30 70 28 72 26 74
REMARK H PARENT 54 41 40 43 38 45 36 47 34 56 18 59 32 61 30 71 28 73 26 75
ROOT
ATOM      1  C   UNL     1      26.733  59.865  40.087  1.00  0.00     0.198 C 
ENDROOT
BRANCH   1   2
ATOM      2  C   UNL     1      26.416  59.934  41.580  1.00  0.00     0.180 C 
ATOM      3  C   UNL     1      26.197  58.622  43.527  1.00  0.00     0.342 C 
ATOM      4  O   UNL     1      26.727  58.705  42.196  1.00  0.00    -0.332 OA
ATOM      5  C   UNL     1      26.059  60.001  44.265  1.00  0.00     0.214 C 
ATOM      6  C   UNL     1      27.226  60.902  43.830  1.00  0.00     0.180 C 
ATOM      7  C   UNL     1      27.181  61.103  42.281  1.00  0.00     0.177 C 
BRANCH   3   8
ATOM      8  O   UNL     1      27.066  57.841  44.262  1.00  0.00    -0.432 OA
BRANCH   8   9
ATOM      9  C   UNL     1      26.976  56.495  44.438  1.00  0.00     0.315 C 
ATOM     10  O   UNL     1      26.115  55.850  43.853  1.00  0.00    -0.252 OA
BRANCH   9  11
ATOM     11  C   UNL     1      27.963  55.818  45.401  1.00  0.00     0.075 C 
ATOM     12  C   UNL     1      26.811  58.823  47.929  1.00  0.00     0.008 C 
ATOM     13  C   UNL     1      27.296  57.642  47.523  1.00  0.00    -0.077 C 
ATOM     14  C   UNL     1      26.366  56.475  47.273  1.00  0.00     0.031 C 
ATOM     15  C   UNL     1      28.771  57.429  47.311  1.00  0.00     0.039 C 
ATOM     16  C   UNL     1      27.127  55.294  46.617  1.00  0.00     0.024 C 
ATOM     17  C   UNL     1      29.089  56.814  45.917  1.00  0.00     0.037 C 
ATOM     18  C   UNL     1      30.520  56.242  45.961  1.00  0.00    -0.063 C 
ATOM     19  C   UNL     1      28.600  54.681  44.565  1.00  0.00     0.020 C 
ATOM     20  C   UNL     1      30.852  54.740  45.857  1.00  0.00    -0.006 C 
ATOM     21  C   UNL     1      31.525  57.153  45.989  1.00  0.00    -0.027 C 
ATOM     22  C   UNL     1      29.617  53.894  45.377  1.00  0.00     0.013 C 
ATOM     23  C   UNL     1      32.167  54.549  44.921  1.00  0.00    -0.020 C 
ATOM     24  C   UNL     1      32.991  56.852  45.786  1.00  0.00     0.032 C 
ATOM     25  C   UNL     1      32.588  53.044  44.826  1.00  0.00     0.008 C 
ATOM     26  C   UNL     1      33.355  55.353  45.603  1.00  0.00     0.006 C 
ATOM     27  C   UNL     1      33.985  52.809  44.230  1.00  0.00     0.006 C 
ATOM     28  C   UNL     1      34.845  55.085  45.080  1.00  0.00    -0.025 C 
ATOM     29  C   UNL     1      35.049  53.516  45.103  1.00  0.00     0.011 C 
ATOM     30  C   UNL     1      35.866  55.693  46.096  1.00  0.00     0.010 C 
ATOM     31  C   UNL     1      36.517  52.969  44.897  1.00  0.00     0.052 C 
ATOM     32  C   UNL     1      37.325  55.250  45.841  1.00  0.00     0.033 C 
ATOM     33  C   UNL     1      37.445  53.712  45.912  1.00  0.00     0.127 C 
ATOM     34  C   UNL     1      31.081  54.285  47.341  1.00  0.00     0.017 C 
ATOM     35  C   UNL     1      31.838  55.040  43.480  1.00  0.00     0.012 C 
ATOM     36  C   UNL     1      35.114  55.756  43.693  1.00  0.00     0.012 C 
ATOM     37  C   UNL     1      37.039  53.079  43.435  1.00  0.00     0.022 C 
BRANCH  31  38
ATOM     38  C   UNL     1      36.523  51.491  45.294  1.00  0.00     0.233 C 
ATOM     39  O   UNL     1      36.894  51.109  46.394  1.00  0.00    -0.303 OA
ENDBRANCH  31  38
BRANCH  33  40
ATOM     40  O   UNL     1      38.783  53.291  45.801  1.00  0.00    -0.392 OA
ATOM     41  H   UNL     1      39.152  53.659  44.956  1.00  0.00     0.210 HD
ENDBRANCH  33  40
ENDBRANCH   9  11
ENDBRANCH   8   9
ENDBRANCH   3   8
BRANCH   5  42
ATOM     42  O   UNL     1      24.844  60.630  43.938  1.00  0.00    -0.384 OA
ATOM     43  H   UNL     1      24.397  60.055  43.263  1.00  0.00     0.211 HD
ENDBRANCH   5  42
BRANCH   6  44
ATOM     44  O   UNL     1      28.446  60.330  44.250  1.00  0.00    -0.387 OA
ATOM     45  H   UNL     1      28.965  60.999  44.767  1.00  0.00     0.211 HD
ENDBRANCH   6  44
BRANCH   7  46
ATOM     46  O   UNL     1      26.597  62.337  41.937  1.00  0.00    -0.387 OA
ATOM     47  H   UNL     1      25.645  62.315  42.215  1.00  0.00     0.211 HD
ENDBRANCH   7  46
ENDBRANCH   1   2
BRANCH   1  48
ATOM     48  O   UNL     1      25.538  59.602  39.388  1.00  0.00    -0.347 OA
BRANCH  48  49
ATOM     49  C   UNL     1      24.485  60.453  39.798  1.00  0.00     0.282 C 
ATOM     50  O   UNL     1      23.277  59.845  39.321  1.00  0.00    -0.341 OA
ATOM     51  C   UNL     1      24.780  61.872  39.209  1.00  0.00     0.202 C 
ATOM     52  C   UNL     1      22.311  60.793  38.922  1.00  0.00     0.178 C 
ATOM     53  C   UNL     1      24.323  61.874  37.741  1.00  0.00     0.180 C 
ATOM     54  C   UNL     1      22.783  61.609  37.673  1.00  0.00     0.184 C 
BRANCH  51  55
ATOM     55  O   UNL     1      24.085  62.858  39.933  1.00  0.00    -0.385 OA
ATOM     56  H   UNL     1      24.548  62.955  40.805  1.00  0.00     0.211 HD
ENDBRANCH  51  55
BRANCH  52  57
ATOM     57  C   UNL     1      20.969  60.092  38.672  1.00  0.00     0.191 C 
BRANCH  57  58
ATOM     58  O   UNL     1      19.890  60.945  38.941  1.00  0.00    -0.394 OA
ATOM     59  H   UNL     1      19.453  60.600  39.763  1.00  0.00     0.210 HD
ENDBRANCH  57  58
ENDBRANCH  52  57
BRANCH  53  60
ATOM     60  O   UNL     1      25.058  60.915  37.011  1.00  0.00    -0.387 OA
ATOM     61  H   UNL     1      25.664  60.423  37.622  1.00  0.00     0.211 HD
ENDBRANCH  53  60
BRANCH  54  62
ATOM     62  O   UNL     1      22.066  62.828  37.728  1.00  0.00    -0.341 OA
BRANCH  62  63
ATOM     63  C   UNL     1      21.337  63.126  36.552  1.00  0.00     0.282 C 
ATOM     64  O   UNL     1      20.014  62.640  36.672  1.00  0.00    -0.344 OA
ATOM     65  C   UNL     1      22.089  62.436  35.380  1.00  0.00     0.202 C 
ATOM     66  C   UNL     1      19.198  62.931  35.528  1.00  0.00     0.150 C 
ATOM     67  C   UNL     1      21.127  62.002  34.250  1.00  0.00     0.179 C 
ATOM     68  C   UNL     1      19.971  63.001  34.171  1.00  0.00     0.174 C 
ATOM     69  C   UNL     1      18.363  64.194  35.748  1.00  0.00     0.041 C 
BRANCH  65  70
ATOM     70  O   UNL     1      23.116  63.283  34.920  1.00  0.00    -0.385 OA
ATOM     71  H   UNL     1      23.629  63.600  35.709  1.00  0.00     0.211 HD
ENDBRANCH  65  70
BRANCH  67  72
ATOM     72  O   UNL     1      21.802  61.815  33.030  1.00  0.00    -0.387 OA
ATOM     73  H   UNL     1      21.497  60.952  32.645  1.00  0.00     0.211 HD
ENDBRANCH  67  72
BRANCH  68  74
ATOM     74  O   UNL     1      19.109  62.736  33.090  1.00  0.00    -0.388 OA
ATOM     75  H   UNL     1      18.729  61.827  33.223  1.00  0.00     0.211 HD
ENDBRANCH  68  74
ENDBRANCH  62  63
ENDBRANCH  54  62
ENDBRANCH  48  49
ENDBRANCH   1  48
TORSDOF 20
ENDMDL
MODEL 4
REMARK VINA RESULT:   -12.144      9.700     23.706
REMARK INTER + INTRA:         -25.066
REMARK INTER:                 -22.615
REMARK INTRA:                  -2.451
REMARK UNBOUND:                -2.272
REMARK SMILES C=C1CC[C@]2(C(=O)O[C@@H]3O[C@H](CO[C@@H]4O[C@H](CO)[C@@H](O[C@@H]5O[C@@H](C)[C@H](O)[C@@H](O)[C@H]5O)[C@H](O)[C@H]4O)[C@@H](O)[C@H](O)[C@H]3O)CC[C@]3(C)C(=CC[C@@H]4[C@@]5(C)CC[C@H](O)[C@@](C)(C=O)[C@@H]5CC[C@]43C)[C@@H]2C1
REMARK SMILES IDX 12 1 11 2 9 3 10 4 39 5 37 6 35 7 8 8 6 9 7 10 5 11 1 12
REMARK SMILES IDX 2 13 3 14 65 15 4 16 64 17 45 18 41 19 43 20 46 21 42 22
REMARK SMILES IDX 62 23 47 24 61 25 48 26 60 27 49 28 59 29 51 30 55 31 52 32
REMARK SMILES IDX 53 33 44 34 63 35 50 36 56 37 57 38 58 39 54 40 40 42 38 44
REMARK SMILES IDX 36 46 13 48 14 49 15 50 33 51 16 52 31 53 19 54 34 55 17 57
REMARK SMILES IDX 18 58 32 60 20 62 21 63 22 64 29 65 23 66 27 67 25 68 24 69
REMARK SMILES IDX 30 70 28 72 26 74
REMARK H PARENT 54 41 40 43 38 45 36 47 34 56 18 59 32 61 30 71 28 73 26 75
ROOT
ATOM      1  C   UNL     1      18.818  64.257  31.189  1.00  0.00     0.198 C 
ENDROOT
BRANCH   1   2
ATOM      2  C   UNL     1      17.658  63.905  30.259  1.00  0.00     0.180 C 
ATOM      3  C   UNL     1      15.307  63.923  30.081  1.00  0.00     0.342 C 
ATOM      4  O   UNL     1      16.457  64.450  30.757  1.00  0.00    -0.332 OA
ATOM      5  C   UNL     1      15.561  63.491  28.593  1.00  0.00     0.214 C 
ATOM      6  C   UNL     1      16.587  64.456  27.977  1.00  0.00     0.180 C 
ATOM      7  C   UNL     1      17.916  64.400  28.799  1.00  0.00     0.177 C 
BRANCH   3   8
ATOM      8  O   UNL     1      14.352  64.921  30.068  1.00  0.00    -0.432 OA
BRANCH   8   9
ATOM      9  C   UNL     1      13.367  65.096  30.990  1.00  0.00     0.315 C 
ATOM     10  O   UNL     1      13.559  64.804  32.164  1.00  0.00    -0.252 OA
BRANCH   9  11
ATOM     11  C   UNL     1      12.012  65.642  30.515  1.00  0.00     0.075 C 
ATOM     12  C   UNL     1      12.099  62.371  28.056  1.00  0.00     0.008 C 
ATOM     13  C   UNL     1      11.604  63.390  28.772  1.00  0.00    -0.077 C 
ATOM     14  C   UNL     1      11.290  63.215  30.242  1.00  0.00     0.031 C 
ATOM     15  C   UNL     1      11.334  64.732  28.146  1.00  0.00     0.039 C 
ATOM     16  C   UNL     1      10.932  64.574  30.895  1.00  0.00     0.024 C 
ATOM     17  C   UNL     1      11.978  65.902  28.947  1.00  0.00     0.037 C 
ATOM     18  C   UNL     1      11.304  67.215  28.501  1.00  0.00    -0.063 C 
ATOM     19  C   UNL     1      11.845  66.977  31.280  1.00  0.00     0.020 C 
ATOM     20  C   UNL     1      10.415  68.082  29.415  1.00  0.00    -0.006 C 
ATOM     21  C   UNL     1      11.621  67.653  27.257  1.00  0.00    -0.027 C 
ATOM     22  C   UNL     1      10.534  67.663  30.925  1.00  0.00     0.013 C 
ATOM     23  C   UNL     1      10.752  69.650  29.153  1.00  0.00    -0.020 C 
ATOM     24  C   UNL     1      11.293  69.017  26.695  1.00  0.00     0.032 C 
ATOM     25  C   UNL     1       9.835  70.584  30.012  1.00  0.00     0.008 C 
ATOM     26  C   UNL     1      10.460  69.947  27.619  1.00  0.00     0.006 C 
ATOM     27  C   UNL     1       9.865  72.064  29.599  1.00  0.00     0.006 C 
ATOM     28  C   UNL     1      10.395  71.476  27.147  1.00  0.00    -0.025 C 
ATOM     29  C   UNL     1       9.394  72.205  28.132  1.00  0.00     0.011 C 
ATOM     30  C   UNL     1       9.763  71.548  25.718  1.00  0.00     0.010 C 
ATOM     31  C   UNL     1       8.921  73.661  27.746  1.00  0.00     0.052 C 
ATOM     32  C   UNL     1       9.393  72.985  25.283  1.00  0.00     0.033 C 
ATOM     33  C   UNL     1       8.390  73.612  26.277  1.00  0.00     0.127 C 
ATOM     34  C   UNL     1       8.948  67.692  29.019  1.00  0.00     0.017 C 
ATOM     35  C   UNL     1      12.228  69.927  29.564  1.00  0.00     0.012 C 
ATOM     36  C   UNL     1      11.814  72.129  27.060  1.00  0.00     0.012 C 
ATOM     37  C   UNL     1      10.009  74.758  27.939  1.00  0.00     0.022 C 
BRANCH  31  38
ATOM     38  C   UNL     1       7.727  74.015  28.635  1.00  0.00     0.233 C 
ATOM     39  O   UNL     1       7.394  75.170  28.856  1.00  0.00    -0.303 OA
ENDBRANCH  31  38
BRANCH  33  40
ATOM     40  O   UNL     1       7.947  74.873  25.839  1.00  0.00    -0.392 OA
ATOM     41  H   UNL     1       8.674  75.529  26.002  1.00  0.00     0.210 HD
ENDBRANCH  33  40
ENDBRANCH   9  11
ENDBRANCH   8   9
ENDBRANCH   3   8
BRANCH   5  42
ATOM     42  O   UNL     1      16.065  62.180  28.527  1.00  0.00    -0.384 OA
ATOM     43  H   UNL     1      16.076  61.926  27.567  1.00  0.00     0.211 HD
ENDBRANCH   5  42
BRANCH   6  44
ATOM     44  O   UNL     1      16.047  65.760  27.941  1.00  0.00    -0.387 OA
ATOM     45  H   UNL     1      16.053  66.146  28.855  1.00  0.00     0.211 HD
ENDBRANCH   6  44
BRANCH   7  46
ATOM     46  O   UNL     1      18.875  63.581  28.174  1.00  0.00    -0.387 OA
ATOM     47  H   UNL     1      18.476  63.219  27.341  1.00  0.00     0.211 HD
ENDBRANCH   7  46
ENDBRANCH   1   2
BRANCH   1  48
ATOM     48  O   UNL     1      19.408  63.060  31.641  1.00  0.00    -0.347 OA
BRANCH  48  49
ATOM     49  C   UNL     1      18.931  62.682  32.918  1.00  0.00     0.282 C 
ATOM     50  O   UNL     1      19.122  63.824  33.765  1.00  0.00    -0.341 OA
ATOM     51  C   UNL     1      19.726  61.407  33.352  1.00  0.00     0.202 C 
ATOM     52  C   UNL     1      19.463  63.470  35.087  1.00  0.00     0.178 C 
ATOM     53  C   UNL     1      21.086  61.866  33.902  1.00  0.00     0.180 C 
ATOM     54  C   UNL     1      20.862  62.772  35.157  1.00  0.00     0.184 C 
BRANCH  51  55
ATOM     55  O   UNL     1      19.018  60.699  34.341  1.00  0.00    -0.385 OA
ATOM     56  H   UNL     1      18.054  60.882  34.191  1.00  0.00     0.211 HD
ENDBRANCH  51  55
BRANCH  52  57
ATOM     57  C   UNL     1      19.398  64.710  35.989  1.00  0.00     0.191 C 
BRANCH  57  58
ATOM     58  O   UNL     1      20.290  65.701  35.558  1.00  0.00    -0.394 OA
ATOM     59  H   UNL     1      19.751  66.520  35.400  1.00  0.00     0.210 HD
ENDBRANCH  57  58
ENDBRANCH  52  57
BRANCH  53  60
ATOM     60  O   UNL     1      21.810  62.534  32.891  1.00  0.00    -0.387 OA
ATOM     61  H   UNL     1      21.295  62.514  32.044  1.00  0.00     0.211 HD
ENDBRANCH  53  60
BRANCH  54  62
ATOM     62  O   UNL     1      20.833  61.989  36.336  1.00  0.00    -0.341 OA
BRANCH  62  63
ATOM     63  C   UNL     1      21.880  62.272  37.246  1.00  0.00     0.282 C 
ATOM     64  O   UNL     1      22.895  61.295  37.127  1.00  0.00    -0.344 OA
ATOM     65  C   UNL     1      21.246  62.260  38.665  1.00  0.00     0.202 C 
ATOM     66  C   UNL     1      24.010  61.529  37.999  1.00  0.00     0.150 C 
ATOM     67  C   UNL     1      22.249  61.794  39.744  1.00  0.00     0.179 C 
ATOM     68  C   UNL     1      23.655  62.245  39.343  1.00  0.00     0.174 C 
ATOM     69  C   UNL     1      25.140  62.262  37.271  1.00  0.00     0.041 C 
BRANCH  65  70
ATOM     70  O   UNL     1      20.701  63.529  38.945  1.00  0.00    -0.385 OA
ATOM     71  H   UNL     1      21.407  64.208  38.782  1.00  0.00     0.211 HD
ENDBRANCH  65  70
BRANCH  67  72
ATOM     72  O   UNL     1      21.865  62.208  41.032  1.00  0.00    -0.387 OA
ATOM     73  H   UNL     1      22.053  61.461  41.658  1.00  0.00     0.211 HD
ENDBRANCH  67  72
BRANCH  68  74
ATOM     74  O   UNL     1      24.612  61.954  40.333  1.00  0.00    -0.388 OA
ATOM     75  H   UNL     1      24.742  62.775  40.878  1.00  0.00     0.211 HD
ENDBRANCH  68  74
ENDBRANCH  62  63
ENDBRANCH  54  62
ENDBRANCH  48  49
ENDBRANCH   1  48
TORSDOF 20
ENDMDL
MODEL 5
REMARK VINA RESULT:   -12.087      3.294      6.930
REMARK INTER + INTRA:         -24.959
REMARK INTER:                 -22.611
REMARK INTRA:                  -2.349
REMARK UNBOUND:                -2.272
REMARK SMILES C=C1CC[C@]2(C(=O)O[C@@H]3O[C@H](CO[C@@H]4O[C@H](CO)[C@@H](O[C@@H]5O[C@@H](C)[C@H](O)[C@@H](O)[C@H]5O)[C@H](O)[C@H]4O)[C@@H](O)[C@H](O)[C@H]3O)CC[C@]3(C)C(=CC[C@@H]4[C@@]5(C)CC[C@H](O)[C@@](C)(C=O)[C@@H]5CC[C@]43C)[C@@H]2C1
REMARK SMILES IDX 12 1 11 2 9 3 10 4 39 5 37 6 35 7 8 8 6 9 7 10 5 11 1 12
REMARK SMILES IDX 2 13 3 14 65 15 4 16 64 17 45 18 41 19 43 20 46 21 42 22
REMARK SMILES IDX 62 23 47 24 61 25 48 26 60 27 49 28 59 29 51 30 55 31 52 32
REMARK SMILES IDX 53 33 44 34 63 35 50 36 56 37 57 38 58 39 54 40 40 42 38 44
REMARK SMILES IDX 36 46 13 48 14 49 15 50 33 51 16 52 31 53 19 54 34 55 17 57
REMARK SMILES IDX 18 58 32 60 20 62 21 63 22 64 29 65 23 66 27 67 25 68 24 69
REMARK SMILES IDX 30 70 28 72 26 74
REMARK H PARENT 54 41 40 43 38 45 36 47 34 56 18 59 32 61 30 71 28 73 26 75
ROOT
ATOM      1  C   UNL     1      25.811  59.744  40.937  1.00  0.00     0.198 C 
ENDROOT
BRANCH   1   2
ATOM      2  C   UNL     1      26.137  58.577  41.868  1.00  0.00     0.180 C 
ATOM      3  C   UNL     1      27.911  57.264  42.699  1.00  0.00     0.342 C 
ATOM      4  O   UNL     1      27.531  58.495  42.067  1.00  0.00    -0.332 OA
ATOM      5  C   UNL     1      26.819  56.647  43.643  1.00  0.00     0.214 C 
ATOM      6  C   UNL     1      26.063  57.798  44.326  1.00  0.00     0.180 C 
ATOM      7  C   UNL     1      25.398  58.704  43.239  1.00  0.00     0.177 C 
BRANCH   3   8
ATOM      8  O   UNL     1      29.026  57.532  43.470  1.00  0.00    -0.432 OA
BRANCH   8   9
ATOM      9  C   UNL     1      30.320  57.444  43.059  1.00  0.00     0.315 C 
ATOM     10  O   UNL     1      30.601  57.538  41.871  1.00  0.00    -0.252 OA
BRANCH   9  11
ATOM     11  C   UNL     1      31.405  57.200  44.119  1.00  0.00     0.075 C 
ATOM     12  C   UNL     1      29.435  53.648  44.625  1.00  0.00     0.008 C 
ATOM     13  C   UNL     1      30.429  54.547  44.650  1.00  0.00    -0.077 C 
ATOM     14  C   UNL     1      31.315  54.746  43.440  1.00  0.00     0.031 C 
ATOM     15  C   UNL     1      30.706  55.376  45.876  1.00  0.00     0.039 C 
ATOM     16  C   UNL     1      32.246  55.971  43.636  1.00  0.00     0.024 C 
ATOM     17  C   UNL     1      30.795  56.897  45.556  1.00  0.00     0.037 C 
ATOM     18  C   UNL     1      31.494  57.595  46.739  1.00  0.00    -0.063 C 
ATOM     19  C   UNL     1      32.216  58.518  44.151  1.00  0.00     0.020 C 
ATOM     20  C   UNL     1      32.879  58.268  46.649  1.00  0.00    -0.006 C 
ATOM     21  C   UNL     1      30.770  57.694  47.883  1.00  0.00    -0.027 C 
ATOM     22  C   UNL     1      33.351  58.450  45.161  1.00  0.00     0.013 C 
ATOM     23  C   UNL     1      32.852  59.657  47.493  1.00  0.00    -0.020 C 
ATOM     24  C   UNL     1      31.131  58.540  49.082  1.00  0.00     0.032 C 
ATOM     25  C   UNL     1      34.252  60.356  47.487  1.00  0.00     0.008 C 
ATOM     26  C   UNL     1      32.488  59.292  48.996  1.00  0.00     0.006 C 
ATOM     27  C   UNL     1      34.401  61.496  48.508  1.00  0.00     0.006 C 
ATOM     28  C   UNL     1      32.703  60.414  50.117  1.00  0.00    -0.025 C 
ATOM     29  C   UNL     1      34.183  60.946  49.937  1.00  0.00     0.011 C 
ATOM     30  C   UNL     1      32.624  59.753  51.532  1.00  0.00     0.010 C 
ATOM     31  C   UNL     1      34.769  61.868  51.078  1.00  0.00     0.052 C 
ATOM     32  C   UNL     1      33.096  60.684  52.672  1.00  0.00     0.033 C 
ATOM     33  C   UNL     1      34.556  61.130  52.439  1.00  0.00     0.127 C 
ATOM     34  C   UNL     1      33.869  57.205  47.243  1.00  0.00     0.017 C 
ATOM     35  C   UNL     1      31.833  60.631  46.831  1.00  0.00     0.012 C 
ATOM     36  C   UNL     1      31.601  61.525  50.062  1.00  0.00     0.012 C 
ATOM     37  C   UNL     1      34.186  63.311  51.094  1.00  0.00     0.022 C 
BRANCH  31  38
ATOM     38  C   UNL     1      36.281  61.969  50.862  1.00  0.00     0.233 C 
ATOM     39  O   UNL     1      36.829  63.015  50.543  1.00  0.00    -0.303 OA
ENDBRANCH  31  38
BRANCH  33  40
ATOM     40  O   UNL     1      35.048  61.882  53.523  1.00  0.00    -0.392 OA
ATOM     41  H   UNL     1      34.926  61.345  54.349  1.00  0.00     0.210 HD
ENDBRANCH  33  40
ENDBRANCH   9  11
ENDBRANCH   8   9
ENDBRANCH   3   8
BRANCH   5  42
ATOM     42  O   UNL     1      25.906  55.864  42.916  1.00  0.00    -0.384 OA
ATOM     43  H   UNL     1      25.748  55.040  43.448  1.00  0.00     0.211 HD
ENDBRANCH   5  42
BRANCH   6  44
ATOM     44  O   UNL     1      26.952  58.528  45.145  1.00  0.00    -0.387 OA
ATOM     45  H   UNL     1      26.605  59.449  45.272  1.00  0.00     0.211 HD
ENDBRANCH   6  44
BRANCH   7  46
ATOM     46  O   UNL     1      24.032  58.404  43.081  1.00  0.00    -0.387 OA
ATOM     47  H   UNL     1      23.506  59.156  43.456  1.00  0.00     0.211 HD
ENDBRANCH   7  46
ENDBRANCH   1   2
BRANCH   1  48
ATOM     48  O   UNL     1      24.623  59.443  40.242  1.00  0.00    -0.347 OA
BRANCH  48  49
ATOM     49  C   UNL     1      23.635  60.439  40.423  1.00  0.00     0.282 C 
ATOM     50  O   UNL     1      22.457  59.951  39.767  1.00  0.00    -0.341 OA
ATOM     51  C   UNL     1      24.206  61.772  39.836  1.00  0.00     0.202 C 
ATOM     52  C   UNL     1      21.703  60.980  39.165  1.00  0.00     0.178 C 
ATOM     53  C   UNL     1      24.008  61.734  38.311  1.00  0.00     0.180 C 
ATOM     54  C   UNL     1      22.481  61.652  37.984  1.00  0.00     0.184 C 
BRANCH  51  55
ATOM     55  O   UNL     1      23.531  62.879  40.383  1.00  0.00    -0.385 OA
ATOM     56  H   UNL     1      23.927  63.689  39.970  1.00  0.00     0.211 HD
ENDBRANCH  51  55
BRANCH  52  57
ATOM     57  C   UNL     1      20.344  60.430  38.713  1.00  0.00     0.191 C 
BRANCH  57  58
ATOM     58  O   UNL     1      20.418  59.882  37.425  1.00  0.00    -0.394 OA
ATOM     59  H   UNL     1      20.554  60.641  36.800  1.00  0.00     0.210 HD
ENDBRANCH  57  58
ENDBRANCH  52  57
BRANCH  53  60
ATOM     60  O   UNL     1      24.726  60.650  37.763  1.00  0.00    -0.387 OA
ATOM     61  H   UNL     1      24.100  60.033  37.303  1.00  0.00     0.211 HD
ENDBRANCH  53  60
BRANCH  54  62
ATOM     62  O   UNL     1      21.928  62.948  37.861  1.00  0.00    -0.341 OA
BRANCH  62  63
ATOM     63  C   UNL     1      21.324  63.204  36.607  1.00  0.00     0.282 C 
ATOM     64  O   UNL     1      19.975  62.780  36.628  1.00  0.00    -0.344 OA
ATOM     65  C   UNL     1      22.149  62.416  35.551  1.00  0.00     0.202 C 
ATOM     66  C   UNL     1      19.283  63.034  35.397  1.00  0.00     0.150 C 
ATOM     67  C   UNL     1      21.277  61.955  34.361  1.00  0.00     0.179 C 
ATOM     68  C   UNL     1      20.179  62.992  34.118  1.00  0.00     0.174 C 
ATOM     69  C   UNL     1      18.489  64.341  35.466  1.00  0.00     0.041 C 
BRANCH  65  70
ATOM     70  O   UNL     1      23.252  63.193  35.144  1.00  0.00    -0.385 OA
ATOM     71  H   UNL     1      23.059  63.549  34.238  1.00  0.00     0.211 HD
ENDBRANCH  65  70
BRANCH  67  72
ATOM     72  O   UNL     1      22.052  61.668  33.222  1.00  0.00    -0.387 OA
ATOM     73  H   UNL     1      21.525  61.057  32.644  1.00  0.00     0.211 HD
ENDBRANCH  67  72
BRANCH  68  74
ATOM     74  O   UNL     1      19.410  62.698  32.977  1.00  0.00    -0.388 OA
ATOM     75  H   UNL     1      19.445  61.715  32.834  1.00  0.00     0.211 HD
ENDBRANCH  68  74
ENDBRANCH  62  63
ENDBRANCH  54  62
ENDBRANCH  48  49
ENDBRANCH   1  48
TORSDOF 20
ENDMDL
MODEL 6
REMARK VINA RESULT:   -11.952      1.439      2.283
REMARK INTER + INTRA:         -24.705
REMARK INTER:                 -22.230
REMARK INTRA:                  -2.475
REMARK UNBOUND:                -2.272
REMARK SMILES C=C1CC[C@]2(C(=O)O[C@@H]3O[C@H](CO[C@@H]4O[C@H](CO)[C@@H](O[C@@H]5O[C@@H](C)[C@H](O)[C@@H](O)[C@H]5O)[C@H](O)[C@H]4O)[C@@H](O)[C@H](O)[C@H]3O)CC[C@]3(C)C(=CC[C@@H]4[C@@]5(C)CC[C@H](O)[C@@](C)(C=O)[C@@H]5CC[C@]43C)[C@@H]2C1
REMARK SMILES IDX 12 1 11 2 9 3 10 4 39 5 37 6 35 7 8 8 6 9 7 10 5 11 1 12
REMARK SMILES IDX 2 13 3 14 65 15 4 16 64 17 45 18 41 19 43 20 46 21 42 22
REMARK SMILES IDX 62 23 47 24 61 25 48 26 60 27 49 28 59 29 51 30 55 31 52 32
REMARK SMILES IDX 53 33 44 34 63 35 50 36 56 37 57 38 58 39 54 40 40 42 38 44
REMARK SMILES IDX 36 46 13 48 14 49 15 50 33 51 16 52 31 53 19 54 34 55 17 57
REMARK SMILES IDX 18 58 32 60 20 62 21 63 22 64 29 65 23 66 27 67 25 68 24 69
REMARK SMILES IDX 30 70 28 72 26 74
REMARK H PARENT 54 41 40 43 38 45 36 47 34 56 18 59 32 61 30 71 28 73 26 75
ROOT
ATOM      1  C   UNL     1      25.213  58.961  41.384  1.00  0.00     0.198 C 
ENDROOT
BRANCH   1   2
ATOM      2  C   UNL     1      26.594  59.359  41.901  1.00  0.00     0.180 C 
ATOM      3  C   UNL     1      28.196  58.889  43.567  1.00  0.00     0.342 C 
ATOM      4  O   UNL     1      27.042  58.421  42.854  1.00  0.00    -0.332 OA
ATOM      5  C   UNL     1      29.113  59.872  42.757  1.00  0.00     0.214 C 
ATOM      6  C   UNL     1      29.097  59.445  41.281  1.00  0.00     0.180 C 
ATOM      7  C   UNL     1      27.631  59.493  40.740  1.00  0.00     0.177 C 
BRANCH   3   8
ATOM      8  O   UNL     1      28.953  57.779  43.886  1.00  0.00    -0.432 OA
BRANCH   8   9
ATOM      9  C   UNL     1      29.304  57.385  45.140  1.00  0.00     0.315 C 
ATOM     10  O   UNL     1      30.094  58.049  45.800  1.00  0.00    -0.252 OA
BRANCH   9  11
ATOM     11  C   UNL     1      28.703  56.082  45.689  1.00  0.00     0.075 C 
ATOM     12  C   UNL     1      27.342  58.533  48.672  1.00  0.00     0.008 C 
ATOM     13  C   UNL     1      27.419  57.473  47.856  1.00  0.00    -0.077 C 
ATOM     14  C   UNL     1      26.745  57.495  46.501  1.00  0.00     0.031 C 
ATOM     15  C   UNL     1      28.163  56.226  48.256  1.00  0.00     0.039 C 
ATOM     16  C   UNL     1      27.147  56.253  45.666  1.00  0.00     0.024 C 
ATOM     17  C   UNL     1      29.183  55.770  47.173  1.00  0.00     0.037 C 
ATOM     18  C   UNL     1      29.560  54.302  47.458  1.00  0.00    -0.063 C 
ATOM     19  C   UNL     1      29.211  54.986  44.723  1.00  0.00     0.020 C 
ATOM     20  C   UNL     1      29.200  53.123  46.532  1.00  0.00    -0.006 C 
ATOM     21  C   UNL     1      30.344  54.090  48.545  1.00  0.00    -0.027 C 
ATOM     22  C   UNL     1      28.701  53.610  45.123  1.00  0.00     0.013 C 
ATOM     23  C   UNL     1      30.463  52.104  46.452  1.00  0.00    -0.020 C 
ATOM     24  C   UNL     1      31.043  52.795  48.886  1.00  0.00     0.032 C 
ATOM     25  C   UNL     1      30.134  50.853  45.571  1.00  0.00     0.008 C 
ATOM     26  C   UNL     1      30.761  51.602  47.931  1.00  0.00     0.006 C 
ATOM     27  C   UNL     1      31.143  49.700  45.697  1.00  0.00     0.006 C 
ATOM     28  C   UNL     1      31.740  50.349  48.118  1.00  0.00    -0.025 C 
ATOM     29  C   UNL     1      31.194  49.211  47.164  1.00  0.00     0.011 C 
ATOM     30  C   UNL     1      31.619  49.814  49.582  1.00  0.00     0.010 C 
ATOM     31  C   UNL     1      31.799  47.762  47.338  1.00  0.00     0.052 C 
ATOM     32  C   UNL     1      32.300  48.442  49.793  1.00  0.00     0.033 C 
ATOM     33  C   UNL     1      31.690  47.382  48.850  1.00  0.00     0.127 C 
ATOM     34  C   UNL     1      27.930  52.480  47.192  1.00  0.00     0.017 C 
ATOM     35  C   UNL     1      31.668  52.841  45.797  1.00  0.00     0.012 C 
ATOM     36  C   UNL     1      33.240  50.730  47.886  1.00  0.00     0.012 C 
ATOM     37  C   UNL     1      33.250  47.607  46.797  1.00  0.00     0.022 C 
BRANCH  31  38
ATOM     38  C   UNL     1      30.900  46.788  46.572  1.00  0.00     0.233 C 
ATOM     39  O   UNL     1      30.170  45.987  47.138  1.00  0.00    -0.303 OA
ENDBRANCH  31  38
BRANCH  33  40
ATOM     40  O   UNL     1      32.210  46.100  49.105  1.00  0.00    -0.392 OA
ATOM     41  H   UNL     1      32.778  45.840  48.334  1.00  0.00     0.210 HD
ENDBRANCH  33  40
ENDBRANCH   9  11
ENDBRANCH   8   9
ENDBRANCH   3   8
BRANCH   5  42
ATOM     42  O   UNL     1      28.649  61.196  42.859  1.00  0.00    -0.384 OA
ATOM     43  H   UNL     1      27.761  61.223  42.416  1.00  0.00     0.211 HD
ENDBRANCH   5  42
BRANCH   6  44
ATOM     44  O   UNL     1      29.661  58.157  41.155  1.00  0.00    -0.387 OA
ATOM     45  H   UNL     1      30.445  58.078  41.759  1.00  0.00     0.211 HD
ENDBRANCH   6  44
BRANCH   7  46
ATOM     46  O   UNL     1      27.389  60.671  40.009  1.00  0.00    -0.387 OA
ATOM     47  H   UNL     1      26.525  60.565  39.533  1.00  0.00     0.211 HD
ENDBRANCH   7  46
ENDBRANCH   1   2
BRANCH   1  48
ATOM     48  O   UNL     1      24.949  59.686  40.206  1.00  0.00    -0.347 OA
BRANCH  48  49
ATOM     49  C   UNL     1      23.778  60.470  40.316  1.00  0.00     0.282 C 
ATOM     50  O   UNL     1      22.808  59.856  39.457  1.00  0.00    -0.341 OA
ATOM     51  C   UNL     1      24.162  61.936  39.926  1.00  0.00     0.202 C 
ATOM     52  C   UNL     1      21.961  60.796  38.832  1.00  0.00     0.178 C 
ATOM     53  C   UNL     1      24.177  62.023  38.391  1.00  0.00     0.180 C 
ATOM     54  C   UNL     1      22.749  61.712  37.836  1.00  0.00     0.184 C 
BRANCH  51  55
ATOM     55  O   UNL     1      23.227  62.846  40.453  1.00  0.00    -0.385 OA
ATOM     56  H   UNL     1      23.142  62.643  41.421  1.00  0.00     0.211 HD
ENDBRANCH  51  55
BRANCH  52  57
ATOM     57  C   UNL     1      20.800  60.069  38.142  1.00  0.00     0.191 C 
BRANCH  57  58
ATOM     58  O   UNL     1      19.716  60.930  37.923  1.00  0.00    -0.394 OA
ATOM     59  H   UNL     1      19.159  60.512  37.216  1.00  0.00     0.210 HD
ENDBRANCH  57  58
ENDBRANCH  52  57
BRANCH  53  60
ATOM     60  O   UNL     1      25.150  61.143  37.872  1.00  0.00    -0.387 OA
ATOM     61  H   UNL     1      25.033  61.056  36.891  1.00  0.00     0.211 HD
ENDBRANCH  53  60
BRANCH  54  62
ATOM     62  O   UNL     1      21.985  62.899  37.735  1.00  0.00    -0.341 OA
BRANCH  62  63
ATOM     63  C   UNL     1      21.666  63.271  36.407  1.00  0.00     0.282 C 
ATOM     64  O   UNL     1      20.263  63.270  36.231  1.00  0.00    -0.344 OA
ATOM     65  C   UNL     1      22.354  62.230  35.479  1.00  0.00     0.202 C 
ATOM     66  C   UNL     1      19.856  63.668  34.914  1.00  0.00     0.150 C 
ATOM     67  C   UNL     1      21.557  62.000  34.175  1.00  0.00     0.179 C 
ATOM     68  C   UNL     1      20.867  63.307  33.778  1.00  0.00     0.174 C 
ATOM     69  C   UNL     1      19.491  65.153  34.871  1.00  0.00     0.041 C 
BRANCH  65  70
ATOM     70  O   UNL     1      23.684  62.624  35.238  1.00  0.00    -0.385 OA
ATOM     71  H   UNL     1      23.665  63.431  34.660  1.00  0.00     0.211 HD
ENDBRANCH  65  70
BRANCH  67  72
ATOM     72  O   UNL     1      22.360  61.449  33.160  1.00  0.00    -0.387 OA
ATOM     73  H   UNL     1      23.181  62.003  33.090  1.00  0.00     0.211 HD
ENDBRANCH  67  72
BRANCH  68  74
ATOM     74  O   UNL     1      20.211  63.209  32.537  1.00  0.00    -0.388 OA
ATOM     75  H   UNL     1      20.382  64.051  32.037  1.00  0.00     0.211 HD
ENDBRANCH  68  74
ENDBRANCH  62  63
ENDBRANCH  54  62
ENDBRANCH  48  49
ENDBRANCH   1  48
TORSDOF 20
ENDMDL
MODEL 7
REMARK VINA RESULT:   -11.949      3.073      4.562
REMARK INTER + INTRA:         -24.699
REMARK INTER:                 -22.339
REMARK INTRA:                  -2.360
REMARK UNBOUND:                -2.272
REMARK SMILES C=C1CC[C@]2(C(=O)O[C@@H]3O[C@H](CO[C@@H]4O[C@H](CO)[C@@H](O[C@@H]5O[C@@H](C)[C@H](O)[C@@H](O)[C@H]5O)[C@H](O)[C@H]4O)[C@@H](O)[C@H](O)[C@H]3O)CC[C@]3(C)C(=CC[C@@H]4[C@@]5(C)CC[C@H](O)[C@@](C)(C=O)[C@@H]5CC[C@]43C)[C@@H]2C1
REMARK SMILES IDX 12 1 11 2 9 3 10 4 39 5 37 6 35 7 8 8 6 9 7 10 5 11 1 12
REMARK SMILES IDX 2 13 3 14 65 15 4 16 64 17 45 18 41 19 43 20 46 21 42 22
REMARK SMILES IDX 62 23 47 24 61 25 48 26 60 27 49 28 59 29 51 30 55 31 52 32
REMARK SMILES IDX 53 33 44 34 63 35 50 36 56 37 57 38 58 39 54 40 40 42 38 44
REMARK SMILES IDX 36 46 13 48 14 49 15 50 33 51 16 52 31 53 19 54 34 55 17 57
REMARK SMILES IDX 18 58 32 60 20 62 21 63 22 64 29 65 23 66 27 67 25 68 24 69
REMARK SMILES IDX 30 70 28 72 26 74
REMARK H PARENT 54 41 40 43 38 45 36 47 34 56 18 59 32 61 30 71 28 73 26 75
ROOT
ATOM      1  C   UNL     1      26.681  60.705  40.928  1.00  0.00     0.198 C 
ENDROOT
BRANCH   1   2
ATOM      2  C   UNL     1      27.223  59.369  41.432  1.00  0.00     0.180 C 
ATOM      3  C   UNL     1      27.583  58.091  43.382  1.00  0.00     0.342 C 
ATOM      4  O   UNL     1      26.872  59.186  42.786  1.00  0.00    -0.332 OA
ATOM      5  C   UNL     1      27.985  56.949  42.383  1.00  0.00     0.214 C 
ATOM      6  C   UNL     1      26.875  56.815  41.328  1.00  0.00     0.180 C 
ATOM      7  C   UNL     1      26.710  58.172  40.570  1.00  0.00     0.177 C 
BRANCH   3   8
ATOM      8  O   UNL     1      26.751  57.538  44.335  1.00  0.00    -0.432 OA
BRANCH   8   9
ATOM      9  C   UNL     1      26.990  56.399  45.039  1.00  0.00     0.315 C 
ATOM     10  O   UNL     1      26.315  55.396  44.842  1.00  0.00    -0.252 OA
BRANCH   9  11
ATOM     11  C   UNL     1      28.106  56.415  46.095  1.00  0.00     0.075 C 
ATOM     12  C   UNL     1      26.296  59.898  47.256  1.00  0.00     0.008 C 
ATOM     13  C   UNL     1      27.038  58.784  47.329  1.00  0.00    -0.077 C 
ATOM     14  C   UNL     1      26.400  57.456  47.675  1.00  0.00     0.031 C 
ATOM     15  C   UNL     1      28.523  58.813  47.083  1.00  0.00     0.039 C 
ATOM     16  C   UNL     1      27.411  56.296  47.494  1.00  0.00     0.024 C 
ATOM     17  C   UNL     1      28.974  57.746  46.043  1.00  0.00     0.037 C 
ATOM     18  C   UNL     1      30.497  57.557  46.180  1.00  0.00    -0.063 C 
ATOM     19  C   UNL     1      28.986  55.191  45.745  1.00  0.00     0.020 C 
ATOM     20  C   UNL     1      31.164  56.257  46.673  1.00  0.00    -0.006 C 
ATOM     21  C   UNL     1      31.267  58.581  45.732  1.00  0.00    -0.027 C 
ATOM     22  C   UNL     1      30.156  55.052  46.708  1.00  0.00     0.013 C 
ATOM     23  C   UNL     1      32.488  55.965  45.777  1.00  0.00    -0.020 C 
ATOM     24  C   UNL     1      32.763  58.534  45.531  1.00  0.00     0.032 C 
ATOM     25  C   UNL     1      33.243  54.686  46.272  1.00  0.00     0.008 C 
ATOM     26  C   UNL     1      33.461  57.210  45.949  1.00  0.00     0.006 C 
ATOM     27  C   UNL     1      34.657  54.516  45.694  1.00  0.00     0.006 C 
ATOM     28  C   UNL     1      34.972  57.061  45.442  1.00  0.00    -0.025 C 
ATOM     29  C   UNL     1      35.531  55.730  46.090  1.00  0.00     0.011 C 
ATOM     30  C   UNL     1      35.827  58.240  46.012  1.00  0.00     0.010 C 
ATOM     31  C   UNL     1      37.084  55.465  45.987  1.00  0.00     0.052 C 
ATOM     32  C   UNL     1      37.348  58.043  45.822  1.00  0.00     0.033 C 
ATOM     33  C   UNL     1      37.817  56.742  46.510  1.00  0.00     0.127 C 
ATOM     34  C   UNL     1      31.491  56.533  48.183  1.00  0.00     0.017 C 
ATOM     35  C   UNL     1      32.056  55.719  44.301  1.00  0.00     0.012 C 
ATOM     36  C   UNL     1      35.081  57.121  43.881  1.00  0.00     0.012 C 
ATOM     37  C   UNL     1      37.568  55.051  44.567  1.00  0.00     0.022 C 
BRANCH  31  38
ATOM     38  C   UNL     1      37.429  54.331  46.955  1.00  0.00     0.233 C 
ATOM     39  O   UNL     1      37.580  54.516  48.154  1.00  0.00    -0.303 OA
ENDBRANCH  31  38
BRANCH  33  40
ATOM     40  O   UNL     1      39.217  56.602  46.453  1.00  0.00    -0.392 OA
ATOM     41  H   UNL     1      39.500  56.038  47.219  1.00  0.00     0.210 HD
ENDBRANCH  33  40
ENDBRANCH   9  11
ENDBRANCH   8   9
ENDBRANCH   3   8
BRANCH   5  42
ATOM     42  O   UNL     1      29.200  57.244  41.739  1.00  0.00    -0.384 OA
ATOM     43  H   UNL     1      29.592  58.024  42.212  1.00  0.00     0.211 HD
ENDBRANCH   5  42
BRANCH   6  44
ATOM     44  O   UNL     1      25.675  56.413  41.953  1.00  0.00    -0.387 OA
ATOM     45  H   UNL     1      25.565  56.906  42.807  1.00  0.00     0.211 HD
ENDBRANCH   6  44
BRANCH   7  46
ATOM     46  O   UNL     1      27.371  58.153  39.327  1.00  0.00    -0.387 OA
ATOM     47  H   UNL     1      26.684  58.176  38.612  1.00  0.00     0.211 HD
ENDBRANCH   7  46
ENDBRANCH   1   2
BRANCH   1  48
ATOM     48  O   UNL     1      25.873  60.463  39.800  1.00  0.00    -0.347 OA
BRANCH  48  49
ATOM     49  C   UNL     1      24.523  60.818  40.028  1.00  0.00     0.282 C 
ATOM     50  O   UNL     1      23.748  60.043  39.103  1.00  0.00    -0.341 OA
ATOM     51  C   UNL     1      24.411  62.367  39.838  1.00  0.00     0.202 C 
ATOM     52  C   UNL     1      22.620  60.739  38.621  1.00  0.00     0.178 C 
ATOM     53  C   UNL     1      24.318  62.648  38.329  1.00  0.00     0.180 C 
ATOM     54  C   UNL     1      23.030  61.974  37.752  1.00  0.00     0.184 C 
BRANCH  51  55
ATOM     55  O   UNL     1      23.269  62.862  40.493  1.00  0.00    -0.385 OA
ATOM     56  H   UNL     1      22.672  62.086  40.656  1.00  0.00     0.211 HD
ENDBRANCH  51  55
BRANCH  52  57
ATOM     57  C   UNL     1      21.708  59.776  37.850  1.00  0.00     0.191 C 
BRANCH  57  58
ATOM     58  O   UNL     1      20.355  60.029  38.118  1.00  0.00    -0.394 OA
ATOM     59  H   UNL     1      20.033  60.638  37.404  1.00  0.00     0.210 HD
ENDBRANCH  57  58
ENDBRANCH  52  57
BRANCH  53  60
ATOM     60  O   UNL     1      25.488  62.191  37.685  1.00  0.00    -0.387 OA
ATOM     61  H   UNL     1      25.343  62.172  36.704  1.00  0.00     0.211 HD
ENDBRANCH  53  60
BRANCH  54  62
ATOM     62  O   UNL     1      21.931  62.863  37.820  1.00  0.00    -0.341 OA
BRANCH  62  63
ATOM     63  C   UNL     1      21.266  63.060  36.586  1.00  0.00     0.282 C 
ATOM     64  O   UNL     1      19.976  62.483  36.637  1.00  0.00    -0.344 OA
ATOM     65  C   UNL     1      22.147  62.383  35.498  1.00  0.00     0.202 C 
ATOM     66  C   UNL     1      19.225  62.668  35.429  1.00  0.00     0.150 C 
ATOM     67  C   UNL     1      21.301  61.836  34.326  1.00  0.00     0.179 C 
ATOM     68  C   UNL     1      20.085  62.743  34.126  1.00  0.00     0.174 C 
ATOM     69  C   UNL     1      18.289  63.874  35.537  1.00  0.00     0.041 C 
BRANCH  65  70
ATOM     70  O   UNL     1      23.141  63.285  35.073  1.00  0.00    -0.385 OA
ATOM     71  H   UNL     1      23.856  63.301  35.761  1.00  0.00     0.211 HD
ENDBRANCH  65  70
BRANCH  67  72
ATOM     72  O   UNL     1      22.071  61.653  33.164  1.00  0.00    -0.387 OA
ATOM     73  H   UNL     1      22.771  60.978  33.368  1.00  0.00     0.211 HD
ENDBRANCH  67  72
BRANCH  68  74
ATOM     74  O   UNL     1      19.323  62.374  33.002  1.00  0.00    -0.388 OA
ATOM     75  H   UNL     1      19.240  63.174  32.417  1.00  0.00     0.211 HD
ENDBRANCH  68  74
ENDBRANCH  62  63
ENDBRANCH  54  62
ENDBRANCH  48  49
ENDBRANCH   1  48
TORSDOF 20
ENDMDL
MODEL 8
REMARK VINA RESULT:   -11.895      1.494      2.092
REMARK INTER + INTRA:         -24.598
REMARK INTER:                 -22.525
REMARK INTRA:                  -2.073
REMARK UNBOUND:                -2.272
REMARK SMILES C=C1CC[C@]2(C(=O)O[C@@H]3O[C@H](CO[C@@H]4O[C@H](CO)[C@@H](O[C@@H]5O[C@@H](C)[C@H](O)[C@@H](O)[C@H]5O)[C@H](O)[C@H]4O)[C@@H](O)[C@H](O)[C@H]3O)CC[C@]3(C)C(=CC[C@@H]4[C@@]5(C)CC[C@H](O)[C@@](C)(C=O)[C@@H]5CC[C@]43C)[C@@H]2C1
REMARK SMILES IDX 12 1 11 2 9 3 10 4 39 5 37 6 35 7 8 8 6 9 7 10 5 11 1 12
REMARK SMILES IDX 2 13 3 14 65 15 4 16 64 17 45 18 41 19 43 20 46 21 42 22
REMARK SMILES IDX 62 23 47 24 61 25 48 26 60 27 49 28 59 29 51 30 55 31 52 32
REMARK SMILES IDX 53 33 44 34 63 35 50 36 56 37 57 38 58 39 54 40 40 42 38 44
REMARK SMILES IDX 36 46 13 48 14 49 15 50 33 51 16 52 31 53 19 54 34 55 17 57
REMARK SMILES IDX 18 58 32 60 20 62 21 63 22 64 29 65 23 66 27 67 25 68 24 69
REMARK SMILES IDX 30 70 28 72 26 74
REMARK H PARENT 54 41 40 43 38 45 36 47 34 56 18 59 32 61 30 71 28 73 26 75
ROOT
ATOM      1  C   UNL     1      26.648  59.819  40.196  1.00  0.00     0.198 C 
ENDROOT
BRANCH   1   2
ATOM      2  C   UNL     1      26.496  58.786  41.311  1.00  0.00     0.180 C 
ATOM      3  C   UNL     1      27.017  58.355  43.570  1.00  0.00     0.342 C 
ATOM      4  O   UNL     1      26.876  59.350  42.546  1.00  0.00    -0.332 OA
ATOM      5  C   UNL     1      26.100  57.094  43.390  1.00  0.00     0.214 C 
ATOM      6  C   UNL     1      24.767  57.548  42.772  1.00  0.00     0.180 C 
ATOM      7  C   UNL     1      25.037  58.231  41.392  1.00  0.00     0.177 C 
BRANCH   3   8
ATOM      8  O   UNL     1      26.673  58.953  44.767  1.00  0.00    -0.432 OA
BRANCH   8   9
ATOM      9  C   UNL     1      26.251  58.310  45.889  1.00  0.00     0.315 C 
ATOM     10  O   UNL     1      25.063  58.297  46.186  1.00  0.00    -0.252 OA
BRANCH   9  11
ATOM     11  C   UNL     1      27.303  57.626  46.776  1.00  0.00     0.075 C 
ATOM     12  C   UNL     1      29.410  61.070  46.100  1.00  0.00     0.008 C 
ATOM     13  C   UNL     1      29.013  59.938  46.698  1.00  0.00    -0.077 C 
ATOM     14  C   UNL     1      27.851  59.948  47.668  1.00  0.00     0.031 C 
ATOM     15  C   UNL     1      29.708  58.628  46.440  1.00  0.00     0.039 C 
ATOM     16  C   UNL     1      27.452  58.504  48.064  1.00  0.00     0.024 C 
ATOM     17  C   UNL     1      28.714  57.494  46.054  1.00  0.00     0.037 C 
ATOM     18  C   UNL     1      29.434  56.143  46.237  1.00  0.00    -0.063 C 
ATOM     19  C   UNL     1      26.715  56.222  47.059  1.00  0.00     0.020 C 
ATOM     20  C   UNL     1      29.041  55.092  47.294  1.00  0.00    -0.006 C 
ATOM     21  C   UNL     1      30.397  55.855  45.325  1.00  0.00    -0.027 C 
ATOM     22  C   UNL     1      27.641  55.398  47.940  1.00  0.00     0.013 C 
ATOM     23  C   UNL     1      29.136  53.610  46.633  1.00  0.00    -0.020 C 
ATOM     24  C   UNL     1      31.061  54.510  45.143  1.00  0.00     0.032 C 
ATOM     25  C   UNL     1      28.806  52.494  47.679  1.00  0.00     0.008 C 
ATOM     26  C   UNL     1      30.635  53.403  46.146  1.00  0.00     0.006 C 
ATOM     27  C   UNL     1      29.174  51.070  47.233  1.00  0.00     0.006 C 
ATOM     28  C   UNL     1      31.101  51.924  45.749  1.00  0.00    -0.025 C 
ATOM     29  C   UNL     1      30.695  50.988  46.959  1.00  0.00     0.011 C 
ATOM     30  C   UNL     1      32.660  51.885  45.644  1.00  0.00     0.010 C 
ATOM     31  C   UNL     1      31.272  49.518  46.969  1.00  0.00     0.052 C 
ATOM     32  C   UNL     1      33.233  50.452  45.545  1.00  0.00     0.033 C 
ATOM     33  C   UNL     1      32.820  49.616  46.777  1.00  0.00     0.127 C 
ATOM     34  C   UNL     1      30.064  55.311  48.463  1.00  0.00     0.017 C 
ATOM     35  C   UNL     1      28.094  53.503  45.480  1.00  0.00     0.012 C 
ATOM     36  C   UNL     1      30.531  51.477  44.361  1.00  0.00     0.012 C 
ATOM     37  C   UNL     1      30.611  48.566  45.929  1.00  0.00     0.022 C 
BRANCH  31  38
ATOM     38  C   UNL     1      31.036  48.935  48.364  1.00  0.00     0.233 C 
ATOM     39  O   UNL     1      31.888  48.966  49.240  1.00  0.00    -0.303 OA
ENDBRANCH  31  38
BRANCH  33  40
ATOM     40  O   UNL     1      33.427  48.346  46.769  1.00  0.00    -0.392 OA
ATOM     41  H   UNL     1      33.676  48.131  45.832  1.00  0.00     0.210 HD
ENDBRANCH  33  40
ENDBRANCH   9  11
ENDBRANCH   8   9
ENDBRANCH   3   8
BRANCH   5  42
ATOM     42  O   UNL     1      26.702  56.148  42.541  1.00  0.00    -0.384 OA
ATOM     43  H   UNL     1      26.798  55.311  43.067  1.00  0.00     0.211 HD
ENDBRANCH   5  42
BRANCH   6  44
ATOM     44  O   UNL     1      24.104  58.416  43.666  1.00  0.00    -0.387 OA
ATOM     45  H   UNL     1      23.255  57.998  43.965  1.00  0.00     0.211 HD
ENDBRANCH   6  44
BRANCH   7  46
ATOM     46  O   UNL     1      24.797  57.347  40.323  1.00  0.00    -0.387 OA
ATOM     47  H   UNL     1      25.194  56.468  40.555  1.00  0.00     0.211 HD
ENDBRANCH   7  46
ENDBRANCH   1   2
BRANCH   1  48
ATOM     48  O   UNL     1      25.463  59.833  39.435  1.00  0.00    -0.347 OA
BRANCH  48  49
ATOM     49  C   UNL     1      24.835  61.101  39.454  1.00  0.00     0.282 C 
ATOM     50  O   UNL     1      23.425  60.844  39.410  1.00  0.00    -0.341 OA
ATOM     51  C   UNL     1      25.390  61.912  38.237  1.00  0.00     0.202 C 
ATOM     52  C   UNL     1      22.718  61.815  38.671  1.00  0.00     0.178 C 
ATOM     53  C   UNL     1      24.624  61.458  36.983  1.00  0.00     0.180 C 
ATOM     54  C   UNL     1      23.104  61.782  37.154  1.00  0.00     0.184 C 
BRANCH  51  55
ATOM     55  O   UNL     1      25.207  63.293  38.442  1.00  0.00    -0.385 OA
ATOM     56  H   UNL     1      25.269  63.449  39.420  1.00  0.00     0.211 HD
ENDBRANCH  51  55
BRANCH  52  57
ATOM     57  C   UNL     1      21.209  61.628  38.880  1.00  0.00     0.191 C 
BRANCH  57  58
ATOM     58  O   UNL     1      20.524  62.846  38.772  1.00  0.00    -0.394 OA
ATOM     59  H   UNL     1      19.945  62.919  39.575  1.00  0.00     0.210 HD
ENDBRANCH  57  58
ENDBRANCH  52  57
BRANCH  53  60
ATOM     60  O   UNL     1      24.850  60.084  36.757  1.00  0.00    -0.387 OA
ATOM     61  H   UNL     1      24.526  59.837  35.852  1.00  0.00     0.211 HD
ENDBRANCH  53  60
BRANCH  54  62
ATOM     62  O   UNL     1      22.813  63.078  36.665  1.00  0.00    -0.341 OA
BRANCH  62  63
ATOM     63  C   UNL     1      21.826  63.106  35.650  1.00  0.00     0.282 C 
ATOM     64  O   UNL     1      20.653  63.726  36.140  1.00  0.00    -0.344 OA
ATOM     65  C   UNL     1      21.560  61.627  35.251  1.00  0.00     0.202 C 
ATOM     66  C   UNL     1      19.611  63.821  35.157  1.00  0.00     0.150 C 
ATOM     67  C   UNL     1      20.102  61.405  34.790  1.00  0.00     0.179 C 
ATOM     68  C   UNL     1      19.601  62.673  34.097  1.00  0.00     0.174 C 
ATOM     69  C   UNL     1      19.612  65.193  34.478  1.00  0.00     0.041 C 
BRANCH  65  70
ATOM     70  O   UNL     1      22.501  61.228  34.282  1.00  0.00    -0.385 OA
ATOM     71  H   UNL     1      22.870  60.348  34.557  1.00  0.00     0.211 HD
ENDBRANCH  65  70
BRANCH  67  72
ATOM     72  O   UNL     1      19.970  60.241  34.011  1.00  0.00    -0.387 OA
ATOM     73  H   UNL     1      20.484  60.378  33.173  1.00  0.00     0.211 HD
ENDBRANCH  67  72
BRANCH  68  74
ATOM     74  O   UNL     1      18.316  62.510  33.548  1.00  0.00    -0.388 OA
ATOM     75  H   UNL     1      18.297  61.634  33.077  1.00  0.00     0.211 HD
ENDBRANCH  68  74
ENDBRANCH  62  63
ENDBRANCH  54  62
ENDBRANCH  48  49
ENDBRANCH   1  48
TORSDOF 20
ENDMDL
MODEL 9
REMARK VINA RESULT:   -11.773      1.956      2.958
REMARK INTER + INTRA:         -24.369
REMARK INTER:                 -22.385
REMARK INTRA:                  -1.983
REMARK UNBOUND:                -2.272
REMARK SMILES C=C1CC[C@]2(C(=O)O[C@@H]3O[C@H](CO[C@@H]4O[C@H](CO)[C@@H](O[C@@H]5O[C@@H](C)[C@H](O)[C@@H](O)[C@H]5O)[C@H](O)[C@H]4O)[C@@H](O)[C@H](O)[C@H]3O)CC[C@]3(C)C(=CC[C@@H]4[C@@]5(C)CC[C@H](O)[C@@](C)(C=O)[C@@H]5CC[C@]43C)[C@@H]2C1
REMARK SMILES IDX 12 1 11 2 9 3 10 4 39 5 37 6 35 7 8 8 6 9 7 10 5 11 1 12
REMARK SMILES IDX 2 13 3 14 65 15 4 16 64 17 45 18 41 19 43 20 46 21 42 22
REMARK SMILES IDX 62 23 47 24 61 25 48 26 60 27 49 28 59 29 51 30 55 31 52 32
REMARK SMILES IDX 53 33 44 34 63 35 50 36 56 37 57 38 58 39 54 40 40 42 38 44
REMARK SMILES IDX 36 46 13 48 14 49 15 50 33 51 16 52 31 53 19 54 34 55 17 57
REMARK SMILES IDX 18 58 32 60 20 62 21 63 22 64 29 65 23 66 27 67 25 68 24 69
REMARK SMILES IDX 30 70 28 72 26 74
REMARK H PARENT 54 41 40 43 38 45 36 47 34 56 18 59 32 61 30 71 28 73 26 75
ROOT
ATOM      1  C   UNL     1      26.156  59.502  40.072  1.00  0.00     0.198 C 
ENDROOT
BRANCH   1   2
ATOM      2  C   UNL     1      26.238  58.500  41.222  1.00  0.00     0.180 C 
ATOM      3  C   UNL     1      27.730  57.133  42.432  1.00  0.00     0.342 C 
ATOM      4  O   UNL     1      27.586  58.261  41.558  1.00  0.00    -0.332 OA
ATOM      5  C   UNL     1      26.498  56.867  43.369  1.00  0.00     0.214 C 
ATOM      6  C   UNL     1      25.888  58.222  43.763  1.00  0.00     0.180 C 
ATOM      7  C   UNL     1      25.443  58.988  42.475  1.00  0.00     0.177 C 
BRANCH   3   8
ATOM      8  O   UNL     1      28.822  57.382  43.241  1.00  0.00    -0.432 OA
BRANCH   8   9
ATOM      9  C   UNL     1      29.940  56.613  43.331  1.00  0.00     0.315 C 
ATOM     10  O   UNL     1      30.656  56.442  42.352  1.00  0.00    -0.252 OA
BRANCH   9  11
ATOM     11  C   UNL     1      30.262  55.951  44.680  1.00  0.00     0.075 C 
ATOM     12  C   UNL     1      33.432  58.539  44.647  1.00  0.00     0.008 C 
ATOM     13  C   UNL     1      32.490  57.715  45.125  1.00  0.00    -0.077 C 
ATOM     14  C   UNL     1      31.102  58.233  45.437  1.00  0.00     0.031 C 
ATOM     15  C   UNL     1      32.775  56.259  45.378  1.00  0.00     0.039 C 
ATOM     16  C   UNL     1      30.141  57.064  45.774  1.00  0.00     0.024 C 
ATOM     17  C   UNL     1      31.722  55.323  44.716  1.00  0.00     0.037 C 
ATOM     18  C   UNL     1      31.837  53.933  45.372  1.00  0.00    -0.063 C 
ATOM     19  C   UNL     1      29.199  54.836  44.825  1.00  0.00     0.020 C 
ATOM     20  C   UNL     1      30.736  53.298  46.246  1.00  0.00    -0.006 C 
ATOM     21  C   UNL     1      32.942  53.214  45.054  1.00  0.00    -0.027 C 
ATOM     22  C   UNL     1      29.370  54.068  46.127  1.00  0.00     0.013 C 
ATOM     23  C   UNL     1      30.618  51.717  45.888  1.00  0.00    -0.020 C 
ATOM     24  C   UNL     1      33.159  51.751  45.363  1.00  0.00     0.032 C 
ATOM     25  C   UNL     1      29.554  51.005  46.788  1.00  0.00     0.008 C 
ATOM     26  C   UNL     1      32.034  51.058  46.180  1.00  0.00     0.006 C 
ATOM     27  C   UNL     1      29.601  49.469  46.739  1.00  0.00     0.006 C 
ATOM     28  C   UNL     1      32.126  49.460  46.225  1.00  0.00    -0.025 C 
ATOM     29  C   UNL     1      30.989  48.976  47.212  1.00  0.00     0.011 C 
ATOM     30  C   UNL     1      33.492  49.040  46.860  1.00  0.00     0.010 C 
ATOM     31  C   UNL     1      31.013  47.463  47.666  1.00  0.00     0.052 C 
ATOM     32  C   UNL     1      33.569  47.537  47.212  1.00  0.00     0.033 C 
ATOM     33  C   UNL     1      32.448  47.153  48.202  1.00  0.00     0.127 C 
ATOM     34  C   UNL     1      31.204  53.563  47.720  1.00  0.00     0.017 C 
ATOM     35  C   UNL     1      30.162  51.567  44.406  1.00  0.00     0.012 C 
ATOM     36  C   UNL     1      32.064  48.824  44.797  1.00  0.00     0.012 C 
ATOM     37  C   UNL     1      30.570  46.459  46.562  1.00  0.00     0.022 C 
BRANCH  31  38
ATOM     38  C   UNL     1      30.057  47.317  48.852  1.00  0.00     0.233 C 
ATOM     39  O   UNL     1      29.068  46.598  48.812  1.00  0.00    -0.303 OA
ENDBRANCH  31  38
BRANCH  33  40
ATOM     40  O   UNL     1      32.568  45.817  48.630  1.00  0.00    -0.392 OA
ATOM     41  H   UNL     1      32.670  45.245  47.825  1.00  0.00     0.210 HD
ENDBRANCH  33  40
ENDBRANCH   9  11
ENDBRANCH   8   9
ENDBRANCH   3   8
BRANCH   5  42
ATOM     42  O   UNL     1      25.521  56.096  42.713  1.00  0.00    -0.384 OA
ATOM     43  H   UNL     1      24.926  56.733  42.237  1.00  0.00     0.211 HD
ENDBRANCH   5  42
BRANCH   6  44
ATOM     44  O   UNL     1      26.826  58.961  44.515  1.00  0.00    -0.387 OA
ATOM     45  H   UNL     1      27.141  59.737  43.982  1.00  0.00     0.211 HD
ENDBRANCH   6  44
BRANCH   7  46
ATOM     46  O   UNL     1      24.059  58.859  42.250  1.00  0.00    -0.387 OA
ATOM     47  H   UNL     1      23.583  59.344  42.972  1.00  0.00     0.211 HD
ENDBRANCH   7  46
ENDBRANCH   1   2
BRANCH   1  48
ATOM     48  O   UNL     1      24.806  59.638  39.692  1.00  0.00    -0.347 OA
BRANCH  48  49
ATOM     49  C   UNL     1      24.432  60.993  39.535  1.00  0.00     0.282 C 
ATOM     50  O   UNL     1      22.999  61.008  39.517  1.00  0.00    -0.341 OA
ATOM     51  C   UNL     1      25.108  61.512  38.223  1.00  0.00     0.202 C 
ATOM     52  C   UNL     1      22.476  61.989  38.647  1.00  0.00     0.178 C 
ATOM     53  C   UNL     1      24.246  61.049  37.037  1.00  0.00     0.180 C 
ATOM     54  C   UNL     1      22.819  61.678  37.152  1.00  0.00     0.184 C 
BRANCH  51  55
ATOM     55  O   UNL     1      25.196  62.916  38.237  1.00  0.00    -0.385 OA
ATOM     56  H   UNL     1      25.299  63.207  37.294  1.00  0.00     0.211 HD
ENDBRANCH  51  55
BRANCH  52  57
ATOM     57  C   UNL     1      20.963  62.124  38.870  1.00  0.00     0.191 C 
BRANCH  57  58
ATOM     58  O   UNL     1      20.482  61.125  39.727  1.00  0.00    -0.394 OA
ATOM     59  H   UNL     1      20.266  60.341  39.157  1.00  0.00     0.210 HD
ENDBRANCH  57  58
ENDBRANCH  52  57
BRANCH  53  60
ATOM     60  O   UNL     1      24.201  59.639  37.000  1.00  0.00    -0.387 OA
ATOM     61  H   UNL     1      24.947  59.267  37.537  1.00  0.00     0.211 HD
ENDBRANCH  53  60
BRANCH  54  62
ATOM     62  O   UNL     1      22.771  62.928  36.489  1.00  0.00    -0.341 OA
BRANCH  62  63
ATOM     63  C   UNL     1      21.760  63.023  35.503  1.00  0.00     0.282 C 
ATOM     64  O   UNL     1      20.618  63.657  36.046  1.00  0.00    -0.344 OA
ATOM     65  C   UNL     1      21.442  61.568  35.056  1.00  0.00     0.202 C 
ATOM     66  C   UNL     1      19.556  63.818  35.095  1.00  0.00     0.150 C 
ATOM     67  C   UNL     1      19.967  61.405  34.625  1.00  0.00     0.179 C 
ATOM     68  C   UNL     1      19.486  62.712  33.993  1.00  0.00     0.174 C 
ATOM     69  C   UNL     1      19.579  65.215  34.469  1.00  0.00     0.041 C 
BRANCH  65  70
ATOM     70  O   UNL     1      22.346  61.180  34.048  1.00  0.00    -0.385 OA
ATOM     71  H   UNL     1      22.034  60.316  33.672  1.00  0.00     0.211 HD
ENDBRANCH  65  70
BRANCH  67  72
ATOM     72  O   UNL     1      19.781  60.276  33.807  1.00  0.00    -0.387 OA
ATOM     73  H   UNL     1      18.943  59.828  34.094  1.00  0.00     0.211 HD
ENDBRANCH  67  72
BRANCH  68  74
ATOM     74  O   UNL     1      18.183  62.606  33.472  1.00  0.00    -0.388 OA
ATOM     75  H   UNL     1      17.548  62.644  34.237  1.00  0.00     0.211 HD
ENDBRANCH  68  74
ENDBRANCH  62  63
ENDBRANCH  54  62
ENDBRANCH  48  49
ENDBRANCH   1  48
TORSDOF 20
ENDMDL
