MODEL 1
REMARK VINA RESULT:   -12.393      0.000      0.000
REMARK INTER + INTRA:         -25.256
REMARK INTER:                 -23.623
REMARK INTRA:                  -1.633
REMARK UNBOUND:                -1.633
REMARK SMILES C[C@H]1[C@H]2[C@H](C[C@H]3[C@@H]4CC=C5C[C@@H](O[C@@H]6O[C@H](CO)[C@H](O[C@@H]7O[C@H](CO)[C@@H](O)[C@H](O)[C@H]7O)[C@H](O)[C@H]6O)CC[C@]5(C)[C@H]4CC(=O)[C@]23C)O[C@]12CC[C@@H](CO[C@@H]1O[C@H](CO)[C@@H](O)[C@H](O)[C@H]1O)CO2
REMARK SMILES IDX 1 1 2 2 3 3 4 4 5 5 6 6 7 7 8 8 9 9 10 10 11 11 12 12 36 13
REMARK SMILES IDX 37 14 38 15 39 16 40 17 41 18 42 19 43 20 44 21 45 22 46 23
REMARK SMILES IDX 47 24 48 25 49 26 50 27 64 28 65 29 51 30 52 31 53 32 54 33
REMARK SMILES IDX 62 34 55 35 60 36 58 37 63 38 56 40 57 41 61 43 59 45 13 47
REMARK SMILES IDX 14 48 15 49 34 50 16 51 32 52 19 53 35 54 17 56 18 57 33 59
REMARK SMILES IDX 20 61 21 62 22 63 30 64 23 65 28 66 26 67 31 68 24 70 25 71
REMARK SMILES IDX 29 73 27 75
REMARK H PARENT 63 39 57 42 61 44 59 46 35 55 18 58 33 60 31 69 25 72 29 74
REMARK H PARENT 27 76
ROOT
ATOM      1  C   UNL     1      22.684  60.568  41.031  1.00  0.00     0.014 C 
ATOM      2  C   UNL     1      23.272  60.052  39.715  1.00  0.00     0.052 C 
ATOM      3  C   UNL     1      23.190  61.085  38.601  1.00  0.00     0.040 C 
ATOM      4  C   UNL     1      24.278  60.597  37.635  1.00  0.00     0.126 C 
ATOM      5  C   UNL     1      23.567  60.300  36.303  1.00  0.00     0.037 C 
ATOM      6  C   UNL     1      22.511  61.416  36.339  1.00  0.00     0.009 C 
ATOM      7  C   UNL     1      21.443  61.564  35.222  1.00  0.00     0.001 C 
ATOM      8  C   UNL     1      22.138  61.806  33.866  1.00  0.00     0.031 C 
ATOM      9  C   UNL     1      21.194  62.268  32.786  1.00  0.00    -0.027 C 
ATOM     10  C   UNL     1      19.951  62.741  33.027  1.00  0.00    -0.065 C 
ATOM     11  C   UNL     1      19.050  63.112  31.858  1.00  0.00     0.063 C 
ATOM     12  C   UNL     1      18.519  64.548  32.015  1.00  0.00     0.125 C 
ATOM     13  C   UNL     1      17.844  64.720  33.388  1.00  0.00     0.033 C 
ATOM     14  C   UNL     1      18.824  64.387  34.527  1.00  0.00     0.014 C 
ATOM     15  C   UNL     1      19.392  62.934  34.445  1.00  0.00    -0.008 C 
ATOM     16  C   UNL     1      18.253  61.893  34.652  1.00  0.00     0.016 C 
ATOM     17  C   UNL     1      20.526  62.789  35.539  1.00  0.00     0.010 C 
ATOM     18  C   UNL     1      19.975  62.782  37.008  1.00  0.00     0.081 C 
ATOM     19  C   UNL     1      21.079  62.486  37.991  1.00  0.00     0.139 C 
ATOM     20  O   UNL     1      21.337  63.259  38.902  1.00  0.00    -0.299 OA
ATOM     21  C   UNL     1      21.896  61.240  37.741  1.00  0.00     0.035 C 
ATOM     22  C   UNL     1      20.961  59.988  37.851  1.00  0.00     0.020 C 
ATOM     23  O   UNL     1      24.988  59.530  38.236  1.00  0.00    -0.346 OA
ATOM     24  C   UNL     1      24.772  59.699  39.634  1.00  0.00     0.171 C 
ATOM     25  C   UNL     1      25.133  58.361  40.341  1.00  0.00     0.066 C 
ATOM     26  C   UNL     1      25.245  58.478  41.873  1.00  0.00     0.014 C 
ATOM     27  C   UNL     1      25.829  59.849  42.289  1.00  0.00     0.041 C 
ATOM     28  C   UNL     1      26.519  60.528  41.093  1.00  0.00     0.169 C 
ATOM     29  O   UNL     1      25.574  60.813  40.071  1.00  0.00    -0.349 OA
ENDROOT
BRANCH  27  30
ATOM     30  C   UNL     1      26.665  59.786  43.594  1.00  0.00     0.169 C 
BRANCH  30  31
ATOM     31  O   UNL     1      26.640  58.527  44.242  1.00  0.00    -0.349 OA
BRANCH  31  32
ATOM     32  C   UNL     1      27.924  57.947  44.398  1.00  0.00     0.281 C 
ATOM     33  O   UNL     1      28.494  57.881  43.085  1.00  0.00    -0.341 OA
ATOM     34  C   UNL     1      27.783  56.581  45.135  1.00  0.00     0.202 C 
ATOM     35  C   UNL     1      29.130  56.656  42.781  1.00  0.00     0.178 C 
ATOM     36  C   UNL     1      27.237  55.529  44.153  1.00  0.00     0.179 C 
ATOM     37  C   UNL     1      28.136  55.457  42.876  1.00  0.00     0.177 C 
BRANCH  34  38
ATOM     38  O   UNL     1      29.039  56.175  45.620  1.00  0.00    -0.385 OA
ATOM     39  H   UNL     1      29.104  55.195  45.477  1.00  0.00     0.211 HD
ENDBRANCH  34  38
BRANCH  35  40
ATOM     40  C   UNL     1      29.729  56.742  41.370  1.00  0.00     0.191 C 
BRANCH  40  41
ATOM     41  O   UNL     1      30.835  57.605  41.358  1.00  0.00    -0.394 OA
ATOM     42  H   UNL     1      30.950  57.938  42.287  1.00  0.00     0.210 HD
ENDBRANCH  40  41
ENDBRANCH  35  40
BRANCH  36  43
ATOM     43  O   UNL     1      25.893  55.811  43.834  1.00  0.00    -0.387 OA
ATOM     44  H   UNL     1      25.432  54.968  43.589  1.00  0.00     0.211 HD
ENDBRANCH  36  43
BRANCH  37  45
ATOM     45  O   UNL     1      28.838  54.241  42.817  1.00  0.00    -0.387 OA
ATOM     46  H   UNL     1      28.565  53.779  41.982  1.00  0.00     0.211 HD
ENDBRANCH  37  45
ENDBRANCH  31  32
ENDBRANCH  30  31
ENDBRANCH  27  30
BRANCH  12  47
ATOM     47  O   UNL     1      17.537  64.798  31.014  1.00  0.00    -0.346 OA
BRANCH  47  48
ATOM     48  C   UNL     1      17.735  64.074  29.808  1.00  0.00     0.282 C 
ATOM     49  O   UNL     1      18.100  65.051  28.818  1.00  0.00    -0.341 OA
ATOM     50  C   UNL     1      16.393  63.311  29.480  1.00  0.00     0.202 C 
ATOM     51  C   UNL     1      17.803  64.630  27.504  1.00  0.00     0.178 C 
ATOM     52  C   UNL     1      15.518  64.219  28.616  1.00  0.00     0.180 C 
ATOM     53  C   UNL     1      16.262  64.481  27.274  1.00  0.00     0.184 C 
BRANCH  50  54
ATOM     54  O   UNL     1      16.573  62.088  28.796  1.00  0.00    -0.385 OA
ATOM     55  H   UNL     1      17.128  61.465  29.329  1.00  0.00     0.211 HD
ENDBRANCH  50  54
BRANCH  51  56
ATOM     56  C   UNL     1      18.463  65.570  26.485  1.00  0.00     0.191 C 
BRANCH  56  57
ATOM     57  O   UNL     1      18.208  65.133  25.177  1.00  0.00    -0.394 OA
ATOM     58  H   UNL     1      17.482  64.457  25.237  1.00  0.00     0.210 HD
ENDBRANCH  56  57
ENDBRANCH  51  56
BRANCH  52  59
ATOM     59  O   UNL     1      15.215  65.408  29.321  1.00  0.00    -0.387 OA
ATOM     60  H   UNL     1      14.741  65.189  30.164  1.00  0.00     0.211 HD
ENDBRANCH  52  59
BRANCH  53  61
ATOM     61  O   UNL     1      15.672  65.610  26.634  1.00  0.00    -0.341 OA
BRANCH  61  62
ATOM     62  C   UNL     1      14.489  65.259  25.926  1.00  0.00     0.282 C 
ATOM     63  O   UNL     1      13.960  64.069  26.495  1.00  0.00    -0.341 OA
ATOM     64  C   UNL     1      14.835  65.031  24.441  1.00  0.00     0.202 C 
ATOM     65  C   UNL     1      12.718  63.725  25.897  1.00  0.00     0.178 C 
ATOM     66  C   UNL     1      13.551  64.625  23.687  1.00  0.00     0.179 C 
ATOM     67  C   UNL     1      12.909  63.411  24.387  1.00  0.00     0.177 C 
BRANCH  64  68
ATOM     68  O   UNL     1      15.411  66.179  23.870  1.00  0.00    -0.385 OA
ATOM     69  H   UNL     1      15.706  65.946  22.951  1.00  0.00     0.211 HD
ENDBRANCH  64  68
BRANCH  65  70
ATOM     70  C   UNL     1      12.130  62.521  26.650  1.00  0.00     0.191 C 
BRANCH  70  71
ATOM     71  O   UNL     1      12.479  61.315  26.023  1.00  0.00    -0.394 OA
ATOM     72  H   UNL     1      13.228  60.922  26.544  1.00  0.00     0.210 HD
ENDBRANCH  70  71
ENDBRANCH  65  70
BRANCH  66  73
ATOM     73  O   UNL     1      13.811  64.358  22.333  1.00  0.00    -0.387 OA
ATOM     74  H   UNL     1      13.747  63.376  22.203  1.00  0.00     0.211 HD
ENDBRANCH  66  73
BRANCH  67  75
ATOM     75  O   UNL     1      11.694  63.064  23.773  1.00  0.00    -0.387 OA
ATOM     76  H   UNL     1      10.993  63.053  24.477  1.00  0.00     0.211 HD
ENDBRANCH  67  75
ENDBRANCH  61  62
ENDBRANCH  53  61
ENDBRANCH  47  48
ENDBRANCH  12  47
TORSDOF 21
ENDMDL
MODEL 2
REMARK VINA RESULT:   -12.192      4.062      7.647
REMARK INTER + INTRA:         -24.872
REMARK INTER:                 -23.314
REMARK INTRA:                  -1.558
REMARK UNBOUND:                -1.633
REMARK SMILES C[C@H]1[C@H]2[C@H](C[C@H]3[C@@H]4CC=C5C[C@@H](O[C@@H]6O[C@H](CO)[C@H](O[C@@H]7O[C@H](CO)[C@@H](O)[C@H](O)[C@H]7O)[C@H](O)[C@H]6O)CC[C@]5(C)[C@H]4CC(=O)[C@]23C)O[C@]12CC[C@@H](CO[C@@H]1O[C@H](CO)[C@@H](O)[C@H](O)[C@H]1O)CO2
REMARK SMILES IDX 1 1 2 2 3 3 4 4 5 5 6 6 7 7 8 8 9 9 10 10 11 11 12 12 36 13
REMARK SMILES IDX 37 14 38 15 39 16 40 17 41 18 42 19 43 20 44 21 45 22 46 23
REMARK SMILES IDX 47 24 48 25 49 26 50 27 64 28 65 29 51 30 52 31 53 32 54 33
REMARK SMILES IDX 62 34 55 35 60 36 58 37 63 38 56 40 57 41 61 43 59 45 13 47
REMARK SMILES IDX 14 48 15 49 34 50 16 51 32 52 19 53 35 54 17 56 18 57 33 59
REMARK SMILES IDX 20 61 21 62 22 63 30 64 23 65 28 66 26 67 31 68 24 70 25 71
REMARK SMILES IDX 29 73 27 75
REMARK H PARENT 63 39 57 42 61 44 59 46 35 55 18 58 33 60 31 69 25 72 29 74
REMARK H PARENT 27 76
ROOT
ATOM      1  C   UNL     1      27.488  57.267  44.530  1.00  0.00     0.014 C 
ATOM      2  C   UNL     1      27.824  58.717  44.175  1.00  0.00     0.052 C 
ATOM      3  C   UNL     1      26.627  59.468  43.610  1.00  0.00     0.040 C 
ATOM      4  C   UNL     1      27.019  60.929  43.864  1.00  0.00     0.126 C 
ATOM      5  C   UNL     1      27.064  61.607  42.483  1.00  0.00     0.037 C 
ATOM      6  C   UNL     1      25.908  60.852  41.807  1.00  0.00     0.009 C 
ATOM      7  C   UNL     1      25.527  61.105  40.323  1.00  0.00     0.001 C 
ATOM      8  C   UNL     1      25.116  62.581  40.136  1.00  0.00     0.031 C 
ATOM      9  C   UNL     1      24.438  62.848  38.817  1.00  0.00    -0.027 C 
ATOM     10  C   UNL     1      23.938  61.879  38.019  1.00  0.00    -0.065 C 
ATOM     11  C   UNL     1      23.338  62.252  36.672  1.00  0.00     0.063 C 
ATOM     12  C   UNL     1      21.917  61.679  36.532  1.00  0.00     0.125 C 
ATOM     13  C   UNL     1      21.922  60.163  36.802  1.00  0.00     0.033 C 
ATOM     14  C   UNL     1      22.485  59.858  38.202  1.00  0.00     0.014 C 
ATOM     15  C   UNL     1      23.937  60.393  38.412  1.00  0.00    -0.008 C 
ATOM     16  C   UNL     1      24.931  59.653  37.469  1.00  0.00     0.016 C 
ATOM     17  C   UNL     1      24.316  60.197  39.936  1.00  0.00     0.010 C 
ATOM     18  C   UNL     1      24.521  58.694  40.336  1.00  0.00     0.081 C 
ATOM     19  C   UNL     1      25.030  58.583  41.752  1.00  0.00     0.139 C 
ATOM     20  O   UNL     1      24.424  57.932  42.590  1.00  0.00    -0.299 OA
ATOM     21  C   UNL     1      26.266  59.381  42.094  1.00  0.00     0.035 C 
ATOM     22  C   UNL     1      27.464  58.858  41.231  1.00  0.00     0.020 C 
ATOM     23  O   UNL     1      28.206  60.964  44.635  1.00  0.00    -0.346 OA
ATOM     24  C   UNL     1      28.245  59.699  45.289  1.00  0.00     0.171 C 
ATOM     25  C   UNL     1      29.696  59.469  45.803  1.00  0.00     0.066 C 
ATOM     26  C   UNL     1      29.826  58.294  46.791  1.00  0.00     0.014 C 
ATOM     27  C   UNL     1      28.573  58.178  47.690  1.00  0.00     0.041 C 
ATOM     28  C   UNL     1      27.755  59.481  47.651  1.00  0.00     0.169 C 
ATOM     29  O   UNL     1      27.261  59.717  46.340  1.00  0.00    -0.349 OA
ENDROOT
BRANCH  27  30
ATOM     30  C   UNL     1      28.886  57.628  49.106  1.00  0.00     0.169 C 
BRANCH  30  31
ATOM     31  O   UNL     1      28.687  58.563  50.152  1.00  0.00    -0.349 OA
BRANCH  31  32
ATOM     32  C   UNL     1      29.535  58.351  51.268  1.00  0.00     0.281 C 
ATOM     33  O   UNL     1      28.792  58.768  52.418  1.00  0.00    -0.341 OA
ATOM     34  C   UNL     1      30.884  59.098  51.034  1.00  0.00     0.202 C 
ATOM     35  C   UNL     1      29.524  59.554  53.338  1.00  0.00     0.178 C 
ATOM     36  C   UNL     1      30.674  60.604  51.262  1.00  0.00     0.179 C 
ATOM     37  C   UNL     1      30.056  60.862  52.675  1.00  0.00     0.177 C 
BRANCH  34  38
ATOM     38  O   UNL     1      31.853  58.609  51.929  1.00  0.00    -0.385 OA
ATOM     39  H   UNL     1      32.338  57.880  51.463  1.00  0.00     0.211 HD
ENDBRANCH  34  38
BRANCH  35  40
ATOM     40  C   UNL     1      28.624  59.890  54.534  1.00  0.00     0.191 C 
BRANCH  40  41
ATOM     41  O   UNL     1      27.272  59.846  54.161  1.00  0.00    -0.394 OA
ATOM     42  H   UNL     1      27.047  58.889  54.011  1.00  0.00     0.210 HD
ENDBRANCH  40  41
ENDBRANCH  35  40
BRANCH  36  43
ATOM     43  O   UNL     1      29.877  61.147  50.234  1.00  0.00    -0.387 OA
ATOM     44  H   UNL     1      29.217  60.468  49.938  1.00  0.00     0.211 HD
ENDBRANCH  36  43
BRANCH  37  45
ATOM     45  O   UNL     1      30.979  61.495  53.525  1.00  0.00    -0.387 OA
ATOM     46  H   UNL     1      31.889  61.240  53.220  1.00  0.00     0.211 HD
ENDBRANCH  37  45
ENDBRANCH  31  32
ENDBRANCH  30  31
ENDBRANCH  27  30
BRANCH  12  47
ATOM     47  O   UNL     1      21.457  61.881  35.199  1.00  0.00    -0.346 OA
BRANCH  47  48
ATOM     48  C   UNL     1      21.182  63.236  34.875  1.00  0.00     0.282 C 
ATOM     49  O   UNL     1      19.828  63.475  35.297  1.00  0.00    -0.341 OA
ATOM     50  C   UNL     1      21.402  63.414  33.323  1.00  0.00     0.202 C 
ATOM     51  C   UNL     1      19.217  64.533  34.590  1.00  0.00     0.178 C 
ATOM     52  C   UNL     1      20.080  63.131  32.610  1.00  0.00     0.180 C 
ATOM     53  C   UNL     1      19.040  64.194  33.072  1.00  0.00     0.184 C 
BRANCH  50  54
ATOM     54  O   UNL     1      21.845  64.702  32.943  1.00  0.00    -0.385 OA
ATOM     55  H   UNL     1      22.814  64.695  32.742  1.00  0.00     0.211 HD
ENDBRANCH  50  54
BRANCH  51  56
ATOM     56  C   UNL     1      17.894  64.925  35.264  1.00  0.00     0.191 C 
BRANCH  56  57
ATOM     57  O   UNL     1      17.976  64.738  36.652  1.00  0.00    -0.394 OA
ATOM     58  H   UNL     1      17.043  64.648  36.984  1.00  0.00     0.210 HD
ENDBRANCH  56  57
ENDBRANCH  51  56
BRANCH  52  59
ATOM     59  O   UNL     1      19.667  61.804  32.871  1.00  0.00    -0.387 OA
ATOM     60  H   UNL     1      19.797  61.245  32.062  1.00  0.00     0.211 HD
ENDBRANCH  52  59
BRANCH  53  61
ATOM     61  O   UNL     1      17.732  63.730  32.743  1.00  0.00    -0.341 OA
BRANCH  61  62
ATOM     62  C   UNL     1      17.008  64.687  31.979  1.00  0.00     0.282 C 
ATOM     63  O   UNL     1      15.836  65.044  32.698  1.00  0.00    -0.341 OA
ATOM     64  C   UNL     1      16.630  64.068  30.618  1.00  0.00     0.202 C 
ATOM     65  C   UNL     1      15.122  66.076  32.032  1.00  0.00     0.178 C 
ATOM     66  C   UNL     1      15.821  65.103  29.807  1.00  0.00     0.179 C 
ATOM     67  C   UNL     1      14.621  65.585  30.646  1.00  0.00     0.177 C 
BRANCH  64  68
ATOM     68  O   UNL     1      17.773  63.656  29.911  1.00  0.00    -0.385 OA
ATOM     69  H   UNL     1      17.665  63.945  28.967  1.00  0.00     0.211 HD
ENDBRANCH  64  68
BRANCH  65  70
ATOM     70  C   UNL     1      13.952  66.517  32.926  1.00  0.00     0.191 C 
BRANCH  70  71
ATOM     71  O   UNL     1      12.809  65.742  32.680  1.00  0.00    -0.394 OA
ATOM     72  H   UNL     1      12.969  65.245  31.836  1.00  0.00     0.210 HD
ENDBRANCH  70  71
ENDBRANCH  65  70
BRANCH  66  73
ATOM     73  O   UNL     1      15.407  64.579  28.571  1.00  0.00    -0.387 OA
ATOM     74  H   UNL     1      15.965  65.000  27.866  1.00  0.00     0.211 HD
ENDBRANCH  66  73
BRANCH  67  75
ATOM     75  O   UNL     1      13.908  66.588  29.967  1.00  0.00    -0.387 OA
ATOM     76  H   UNL     1      14.561  67.109  29.428  1.00  0.00     0.211 HD
ENDBRANCH  67  75
ENDBRANCH  61  62
ENDBRANCH  53  61
ENDBRANCH  47  48
ENDBRANCH  12  47
TORSDOF 21
ENDMDL
MODEL 3
REMARK VINA RESULT:   -12.009      4.644     19.089
REMARK INTER + INTRA:         -24.523
REMARK INTER:                 -22.106
REMARK INTRA:                  -2.417
REMARK UNBOUND:                -1.633
REMARK SMILES C[C@H]1[C@H]2[C@H](C[C@H]3[C@@H]4CC=C5C[C@@H](O[C@@H]6O[C@H](CO)[C@H](O[C@@H]7O[C@H](CO)[C@@H](O)[C@H](O)[C@H]7O)[C@H](O)[C@H]6O)CC[C@]5(C)[C@H]4CC(=O)[C@]23C)O[C@]12CC[C@@H](CO[C@@H]1O[C@H](CO)[C@@H](O)[C@H](O)[C@H]1O)CO2
REMARK SMILES IDX 1 1 2 2 3 3 4 4 5 5 6 6 7 7 8 8 9 9 10 10 11 11 12 12 36 13
REMARK SMILES IDX 37 14 38 15 39 16 40 17 41 18 42 19 43 20 44 21 45 22 46 23
REMARK SMILES IDX 47 24 48 25 49 26 50 27 64 28 65 29 51 30 52 31 53 32 54 33
REMARK SMILES IDX 62 34 55 35 60 36 58 37 63 38 56 40 57 41 61 43 59 45 13 47
REMARK SMILES IDX 14 48 15 49 34 50 16 51 32 52 19 53 35 54 17 56 18 57 33 59
REMARK SMILES IDX 20 61 21 62 22 63 30 64 23 65 28 66 26 67 31 68 24 70 25 71
REMARK SMILES IDX 29 73 27 75
REMARK H PARENT 63 39 57 42 61 44 59 46 35 55 18 58 33 60 31 69 25 72 29 74
REMARK H PARENT 27 76
ROOT
ATOM      1  C   UNL     1       8.663  63.735  25.454  1.00  0.00     0.014 C 
ATOM      2  C   UNL     1       9.953  63.114  24.914  1.00  0.00     0.052 C 
ATOM      3  C   UNL     1      10.853  62.591  26.025  1.00  0.00     0.040 C 
ATOM      4  C   UNL     1      11.726  61.575  25.276  1.00  0.00     0.126 C 
ATOM      5  C   UNL     1      13.178  62.056  25.437  1.00  0.00     0.037 C 
ATOM      6  C   UNL     1      13.086  62.627  26.861  1.00  0.00     0.009 C 
ATOM      7  C   UNL     1      14.298  63.319  27.542  1.00  0.00     0.001 C 
ATOM      8  C   UNL     1      15.469  62.321  27.659  1.00  0.00     0.031 C 
ATOM      9  C   UNL     1      16.567  62.795  28.574  1.00  0.00    -0.027 C 
ATOM     10  C   UNL     1      16.425  63.809  29.457  1.00  0.00    -0.065 C 
ATOM     11  C   UNL     1      17.620  64.257  30.284  1.00  0.00     0.063 C 
ATOM     12  C   UNL     1      17.274  64.262  31.783  1.00  0.00     0.125 C 
ATOM     13  C   UNL     1      16.005  65.097  32.036  1.00  0.00     0.033 C 
ATOM     14  C   UNL     1      14.820  64.557  31.217  1.00  0.00     0.014 C 
ATOM     15  C   UNL     1      15.091  64.541  29.679  1.00  0.00    -0.008 C 
ATOM     16  C   UNL     1      15.252  65.992  29.140  1.00  0.00     0.016 C 
ATOM     17  C   UNL     1      13.891  63.783  28.978  1.00  0.00     0.010 C 
ATOM     18  C   UNL     1      12.546  64.589  29.007  1.00  0.00     0.081 C 
ATOM     19  C   UNL     1      11.487  63.890  28.193  1.00  0.00     0.139 C 
ATOM     20  O   UNL     1      10.419  63.566  28.692  1.00  0.00    -0.299 OA
ATOM     21  C   UNL     1      11.847  63.539  26.768  1.00  0.00     0.035 C 
ATOM     22  C   UNL     1      12.111  64.860  25.969  1.00  0.00     0.020 C 
ATOM     23  O   UNL     1      11.239  61.432  23.954  1.00  0.00    -0.346 OA
ATOM     24  C   UNL     1       9.882  61.855  24.024  1.00  0.00     0.171 C 
ATOM     25  C   UNL     1       9.394  62.149  22.575  1.00  0.00     0.066 C 
ATOM     26  C   UNL     1       7.868  62.319  22.455  1.00  0.00     0.014 C 
ATOM     27  C   UNL     1       7.121  61.383  23.434  1.00  0.00     0.041 C 
ATOM     28  C   UNL     1       8.055  60.267  23.934  1.00  0.00     0.169 C 
ATOM     29  O   UNL     1       9.131  60.817  24.681  1.00  0.00    -0.349 OA
ENDROOT
BRANCH  27  30
ATOM     30  C   UNL     1       5.745  60.912  22.898  1.00  0.00     0.169 C 
BRANCH  30  31
ATOM     31  O   UNL     1       4.771  60.692  23.904  1.00  0.00    -0.349 OA
BRANCH  31  32
ATOM     32  C   UNL     1       3.940  61.815  24.141  1.00  0.00     0.281 C 
ATOM     33  O   UNL     1       4.603  62.597  25.141  1.00  0.00    -0.341 OA
ATOM     34  C   UNL     1       2.509  61.323  24.516  1.00  0.00     0.202 C 
ATOM     35  C   UNL     1       3.759  63.073  26.171  1.00  0.00     0.178 C 
ATOM     36  C   UNL     1       2.515  60.805  25.965  1.00  0.00     0.179 C 
ATOM     37  C   UNL     1       3.071  61.899  26.933  1.00  0.00     0.177 C 
BRANCH  34  38
ATOM     38  O   UNL     1       1.598  62.387  24.394  1.00  0.00    -0.385 OA
ATOM     39  H   UNL     1       1.971  63.014  23.721  1.00  0.00     0.211 HD
ENDBRANCH  34  38
BRANCH  35  40
ATOM     40  C   UNL     1       4.588  63.926  27.140  1.00  0.00     0.191 C 
BRANCH  40  41
ATOM     41  O   UNL     1       5.003  63.160  28.240  1.00  0.00    -0.394 OA
ATOM     42  H   UNL     1       5.197  62.247  27.896  1.00  0.00     0.210 HD
ENDBRANCH  40  41
ENDBRANCH  35  40
BRANCH  36  43
ATOM     43  O   UNL     1       3.251  59.605  26.051  1.00  0.00    -0.387 OA
ATOM     44  H   UNL     1       3.869  59.655  26.824  1.00  0.00     0.211 HD
ENDBRANCH  36  43
BRANCH  37  45
ATOM     45  O   UNL     1       2.059  62.394  27.774  1.00  0.00    -0.387 OA
ATOM     46  H   UNL     1       2.465  62.561  28.663  1.00  0.00     0.211 HD
ENDBRANCH  37  45
ENDBRANCH  31  32
ENDBRANCH  30  31
ENDBRANCH  27  30
BRANCH  12  47
ATOM     47  O   UNL     1      18.341  64.862  32.511  1.00  0.00    -0.346 OA
BRANCH  47  48
ATOM     48  C   UNL     1      19.514  64.064  32.592  1.00  0.00     0.282 C 
ATOM     49  O   UNL     1      19.092  62.797  33.126  1.00  0.00    -0.341 OA
ATOM     50  C   UNL     1      20.550  64.823  33.507  1.00  0.00     0.202 C 
ATOM     51  C   UNL     1      20.138  62.105  33.773  1.00  0.00     0.178 C 
ATOM     52  C   UNL     1      20.333  64.384  34.954  1.00  0.00     0.180 C 
ATOM     53  C   UNL     1      20.633  62.860  35.052  1.00  0.00     0.184 C 
BRANCH  50  54
ATOM     54  O   UNL     1      21.903  64.588  33.171  1.00  0.00    -0.385 OA
ATOM     55  H   UNL     1      22.130  65.016  32.308  1.00  0.00     0.211 HD
ENDBRANCH  50  54
BRANCH  51  56
ATOM     56  C   UNL     1      19.713  60.660  34.070  1.00  0.00     0.191 C 
BRANCH  56  57
ATOM     57  O   UNL     1      20.702  59.999  34.812  1.00  0.00    -0.394 OA
ATOM     58  H   UNL     1      21.229  59.456  34.168  1.00  0.00     0.210 HD
ENDBRANCH  56  57
ENDBRANCH  51  56
BRANCH  52  59
ATOM     59  O   UNL     1      19.020  64.716  35.366  1.00  0.00    -0.387 OA
ATOM     60  H   UNL     1      18.526  65.133  34.613  1.00  0.00     0.211 HD
ENDBRANCH  52  59
BRANCH  53  61
ATOM     61  O   UNL     1      20.070  62.357  36.261  1.00  0.00    -0.341 OA
BRANCH  61  62
ATOM     62  C   UNL     1      21.051  62.204  37.279  1.00  0.00     0.282 C 
ATOM     63  O   UNL     1      22.323  62.063  36.662  1.00  0.00    -0.341 OA
ATOM     64  C   UNL     1      20.724  60.950  38.115  1.00  0.00     0.202 C 
ATOM     65  C   UNL     1      23.360  62.011  37.632  1.00  0.00     0.178 C 
ATOM     66  C   UNL     1      21.809  60.777  39.199  1.00  0.00     0.179 C 
ATOM     67  C   UNL     1      23.199  60.756  38.534  1.00  0.00     0.177 C 
BRANCH  64  68
ATOM     68  O   UNL     1      19.446  61.042  38.693  1.00  0.00    -0.385 OA
ATOM     69  H   UNL     1      19.394  61.908  39.177  1.00  0.00     0.211 HD
ENDBRANCH  64  68
BRANCH  65  70
ATOM     70  C   UNL     1      24.712  62.006  36.902  1.00  0.00     0.191 C 
BRANCH  70  71
ATOM     71  O   UNL     1      25.765  62.279  37.788  1.00  0.00    -0.394 OA
ATOM     72  H   UNL     1      25.937  61.447  38.302  1.00  0.00     0.210 HD
ENDBRANCH  70  71
ENDBRANCH  65  70
BRANCH  66  73
ATOM     73  O   UNL     1      21.590  59.621  39.967  1.00  0.00    -0.387 OA
ATOM     74  H   UNL     1      21.582  58.846  39.347  1.00  0.00     0.211 HD
ENDBRANCH  66  73
BRANCH  67  75
ATOM     75  O   UNL     1      24.215  60.680  39.501  1.00  0.00    -0.387 OA
ATOM     76  H   UNL     1      25.060  60.450  39.032  1.00  0.00     0.211 HD
ENDBRANCH  67  75
ENDBRANCH  61  62
ENDBRANCH  53  61
ENDBRANCH  47  48
ENDBRANCH  12  47
TORSDOF 21
ENDMDL
MODEL 4
REMARK VINA RESULT:   -11.737      3.768      7.184
REMARK INTER + INTRA:         -24.005
REMARK INTER:                 -21.815
REMARK INTRA:                  -2.190
REMARK UNBOUND:                -1.633
REMARK SMILES C[C@H]1[C@H]2[C@H](C[C@H]3[C@@H]4CC=C5C[C@@H](O[C@@H]6O[C@H](CO)[C@H](O[C@@H]7O[C@H](CO)[C@@H](O)[C@H](O)[C@H]7O)[C@H](O)[C@H]6O)CC[C@]5(C)[C@H]4CC(=O)[C@]23C)O[C@]12CC[C@@H](CO[C@@H]1O[C@H](CO)[C@@H](O)[C@H](O)[C@H]1O)CO2
REMARK SMILES IDX 1 1 2 2 3 3 4 4 5 5 6 6 7 7 8 8 9 9 10 10 11 11 12 12 36 13
REMARK SMILES IDX 37 14 38 15 39 16 40 17 41 18 42 19 43 20 44 21 45 22 46 23
REMARK SMILES IDX 47 24 48 25 49 26 50 27 64 28 65 29 51 30 52 31 53 32 54 33
REMARK SMILES IDX 62 34 55 35 60 36 58 37 63 38 56 40 57 41 61 43 59 45 13 47
REMARK SMILES IDX 14 48 15 49 34 50 16 51 32 52 19 53 35 54 17 56 18 57 33 59
REMARK SMILES IDX 20 61 21 62 22 63 30 64 23 65 28 66 26 67 31 68 24 70 25 71
REMARK SMILES IDX 29 73 27 75
REMARK H PARENT 63 39 57 42 61 44 59 46 35 55 18 58 33 60 31 69 25 72 29 74
REMARK H PARENT 27 76
ROOT
ATOM      1  C   UNL     1      28.700  57.300  43.282  1.00  0.00     0.014 C 
ATOM      2  C   UNL     1      28.879  58.761  42.864  1.00  0.00     0.052 C 
ATOM      3  C   UNL     1      27.553  59.503  42.773  1.00  0.00     0.040 C 
ATOM      4  C   UNL     1      27.998  60.965  42.905  1.00  0.00     0.126 C 
ATOM      5  C   UNL     1      27.549  61.669  41.613  1.00  0.00     0.037 C 
ATOM      6  C   UNL     1      26.235  60.909  41.369  1.00  0.00     0.009 C 
ATOM      7  C   UNL     1      25.355  61.184  40.120  1.00  0.00     0.001 C 
ATOM      8  C   UNL     1      24.893  62.656  40.122  1.00  0.00     0.031 C 
ATOM      9  C   UNL     1      23.792  62.937  39.133  1.00  0.00    -0.027 C 
ATOM     10  C   UNL     1      23.051  61.975  38.540  1.00  0.00    -0.065 C 
ATOM     11  C   UNL     1      22.012  62.363  37.498  1.00  0.00     0.063 C 
ATOM     12  C   UNL     1      20.637  61.772  37.853  1.00  0.00     0.125 C 
ATOM     13  C   UNL     1      20.750  60.251  38.071  1.00  0.00     0.033 C 
ATOM     14  C   UNL     1      21.771  59.929  39.176  1.00  0.00     0.014 C 
ATOM     15  C   UNL     1      23.200  60.482  38.874  1.00  0.00    -0.008 C 
ATOM     16  C   UNL     1      23.804  59.775  37.625  1.00  0.00     0.016 C 
ATOM     17  C   UNL     1      24.092  60.264  40.163  1.00  0.00     0.010 C 
ATOM     18  C   UNL     1      24.436  58.757  40.432  1.00  0.00     0.081 C 
ATOM     19  C   UNL     1      25.411  58.628  41.575  1.00  0.00     0.139 C 
ATOM     20  O   UNL     1      25.145  57.953  42.558  1.00  0.00    -0.299 OA
ATOM     21  C   UNL     1      26.682  59.439  41.479  1.00  0.00     0.035 C 
ATOM     22  C   UNL     1      27.505  58.950  40.238  1.00  0.00     0.020 C 
ATOM     23  O   UNL     1      29.380  61.004  43.211  1.00  0.00    -0.346 OA
ATOM     24  C   UNL     1      29.656  59.729  43.780  1.00  0.00     0.171 C 
ATOM     25  C   UNL     1      31.197  59.511  43.746  1.00  0.00     0.066 C 
ATOM     26  C   UNL     1      31.676  58.321  44.599  1.00  0.00     0.014 C 
ATOM     27  C   UNL     1      30.820  58.168  45.878  1.00  0.00     0.041 C 
ATOM     28  C   UNL     1      30.031  59.459  46.159  1.00  0.00     0.169 C 
ATOM     29  O   UNL     1      29.105  59.712  45.111  1.00  0.00    -0.349 OA
ENDROOT
BRANCH  27  30
ATOM     30  C   UNL     1      31.616  57.598  47.081  1.00  0.00     0.169 C 
BRANCH  30  31
ATOM     31  O   UNL     1      33.023  57.659  46.931  1.00  0.00    -0.349 OA
BRANCH  31  32
ATOM     32  C   UNL     1      33.681  58.277  48.024  1.00  0.00     0.281 C 
ATOM     33  O   UNL     1      32.847  59.369  48.426  1.00  0.00    -0.341 OA
ATOM     34  C   UNL     1      35.130  58.663  47.596  1.00  0.00     0.202 C 
ATOM     35  C   UNL     1      33.539  60.575  48.681  1.00  0.00     0.178 C 
ATOM     36  C   UNL     1      35.077  59.912  46.699  1.00  0.00     0.179 C 
ATOM     37  C   UNL     1      34.311  61.069  47.419  1.00  0.00     0.177 C 
BRANCH  34  38
ATOM     38  O   UNL     1      35.903  58.930  48.740  1.00  0.00    -0.385 OA
ATOM     39  H   UNL     1      36.856  58.858  48.471  1.00  0.00     0.211 HD
ENDBRANCH  34  38
BRANCH  35  40
ATOM     40  C   UNL     1      32.533  61.639  49.143  1.00  0.00     0.191 C 
BRANCH  40  41
ATOM     41  O   UNL     1      33.199  62.726  49.727  1.00  0.00    -0.394 OA
ATOM     42  H   UNL     1      34.121  62.418  49.936  1.00  0.00     0.210 HD
ENDBRANCH  40  41
ENDBRANCH  35  40
BRANCH  36  43
ATOM     43  O   UNL     1      34.497  59.594  45.454  1.00  0.00    -0.387 OA
ATOM     44  H   UNL     1      33.558  59.310  45.593  1.00  0.00     0.211 HD
ENDBRANCH  36  43
BRANCH  37  45
ATOM     45  O   UNL     1      35.181  62.117  47.763  1.00  0.00    -0.387 OA
ATOM     46  H   UNL     1      36.019  61.991  47.247  1.00  0.00     0.211 HD
ENDBRANCH  37  45
ENDBRANCH  31  32
ENDBRANCH  30  31
ENDBRANCH  27  30
BRANCH  12  47
ATOM     47  O   UNL     1      19.736  61.991  36.772  1.00  0.00    -0.346 OA
BRANCH  47  48
ATOM     48  C   UNL     1      20.267  61.665  35.496  1.00  0.00     0.282 C 
ATOM     49  O   UNL     1      20.742  62.903  34.939  1.00  0.00    -0.341 OA
ATOM     50  C   UNL     1      19.114  60.993  34.653  1.00  0.00     0.202 C 
ATOM     51  C   UNL     1      20.786  62.883  33.529  1.00  0.00     0.178 C 
ATOM     52  C   UNL     1      18.365  62.089  33.897  1.00  0.00     0.180 C 
ATOM     53  C   UNL     1      19.356  62.761  32.902  1.00  0.00     0.184 C 
BRANCH  50  54
ATOM     54  O   UNL     1      19.562  60.035  33.716  1.00  0.00    -0.385 OA
ATOM     55  H   UNL     1      20.099  60.464  33.004  1.00  0.00     0.211 HD
ENDBRANCH  50  54
BRANCH  51  56
ATOM     56  C   UNL     1      21.556  64.104  33.006  1.00  0.00     0.191 C 
BRANCH  56  57
ATOM     57  O   UNL     1      21.011  65.288  33.525  1.00  0.00    -0.394 OA
ATOM     58  H   UNL     1      20.133  65.419  33.078  1.00  0.00     0.210 HD
ENDBRANCH  56  57
ENDBRANCH  51  56
BRANCH  52  59
ATOM     59  O   UNL     1      17.796  63.005  34.813  1.00  0.00    -0.387 OA
ATOM     60  H   UNL     1      18.492  63.633  35.139  1.00  0.00     0.211 HD
ENDBRANCH  52  59
BRANCH  53  61
ATOM     61  O   UNL     1      18.812  64.011  32.484  1.00  0.00    -0.341 OA
BRANCH  61  62
ATOM     62  C   UNL     1      17.775  63.843  31.526  1.00  0.00     0.282 C 
ATOM     63  O   UNL     1      18.340  63.946  30.226  1.00  0.00    -0.341 OA
ATOM     64  C   UNL     1      16.711  64.940  31.731  1.00  0.00     0.202 C 
ATOM     65  C   UNL     1      17.369  63.682  29.223  1.00  0.00     0.178 C 
ATOM     66  C   UNL     1      15.604  64.766  30.670  1.00  0.00     0.179 C 
ATOM     67  C   UNL     1      16.240  64.747  29.266  1.00  0.00     0.177 C 
BRANCH  64  68
ATOM     68  O   UNL     1      16.175  64.892  33.030  1.00  0.00    -0.385 OA
ATOM     69  H   UNL     1      16.797  65.377  33.633  1.00  0.00     0.211 HD
ENDBRANCH  64  68
BRANCH  65  70
ATOM     70  C   UNL     1      18.072  63.665  27.856  1.00  0.00     0.191 C 
BRANCH  70  71
ATOM     71  O   UNL     1      17.424  62.796  26.966  1.00  0.00    -0.394 OA
ATOM     72  H   UNL     1      18.116  62.441  26.349  1.00  0.00     0.210 HD
ENDBRANCH  70  71
ENDBRANCH  65  70
BRANCH  66  73
ATOM     73  O   UNL     1      14.625  65.768  30.777  1.00  0.00    -0.387 OA
ATOM     74  H   UNL     1      15.059  66.635  30.566  1.00  0.00     0.211 HD
ENDBRANCH  66  73
BRANCH  67  75
ATOM     75  O   UNL     1      15.267  64.510  28.280  1.00  0.00    -0.387 OA
ATOM     76  H   UNL     1      15.589  63.760  27.714  1.00  0.00     0.211 HD
ENDBRANCH  67  75
ENDBRANCH  61  62
ENDBRANCH  53  61
ENDBRANCH  47  48
ENDBRANCH  12  47
TORSDOF 21
ENDMDL
MODEL 5
REMARK VINA RESULT:   -11.512      9.172     16.875
REMARK INTER + INTRA:         -23.576
REMARK INTER:                 -21.213
REMARK INTRA:                  -2.364
REMARK UNBOUND:                -1.633
REMARK SMILES C[C@H]1[C@H]2[C@H](C[C@H]3[C@@H]4CC=C5C[C@@H](O[C@@H]6O[C@H](CO)[C@H](O[C@@H]7O[C@H](CO)[C@@H](O)[C@H](O)[C@H]7O)[C@H](O)[C@H]6O)CC[C@]5(C)[C@H]4CC(=O)[C@]23C)O[C@]12CC[C@@H](CO[C@@H]1O[C@H](CO)[C@@H](O)[C@H](O)[C@H]1O)CO2
REMARK SMILES IDX 1 1 2 2 3 3 4 4 5 5 6 6 7 7 8 8 9 9 10 10 11 11 12 12 36 13
REMARK SMILES IDX 37 14 38 15 39 16 40 17 41 18 42 19 43 20 44 21 45 22 46 23
REMARK SMILES IDX 47 24 48 25 49 26 50 27 64 28 65 29 51 30 52 31 53 32 54 33
REMARK SMILES IDX 62 34 55 35 60 36 58 37 63 38 56 40 57 41 61 43 59 45 13 47
REMARK SMILES IDX 14 48 15 49 34 50 16 51 32 52 19 53 35 54 17 56 18 57 33 59
REMARK SMILES IDX 20 61 21 62 22 63 30 64 23 65 28 66 26 67 31 68 24 70 25 71
REMARK SMILES IDX 29 73 27 75
REMARK H PARENT 63 39 57 42 61 44 59 46 35 55 18 58 33 60 31 69 25 72 29 74
REMARK H PARENT 27 76
ROOT
ATOM      1  C   UNL     1      34.484  61.846  52.716  1.00  0.00     0.014 C 
ATOM      2  C   UNL     1      35.091  61.397  51.385  1.00  0.00     0.052 C 
ATOM      3  C   UNL     1      34.169  61.672  50.206  1.00  0.00     0.040 C 
ATOM      4  C   UNL     1      35.152  61.680  49.028  1.00  0.00     0.126 C 
ATOM      5  C   UNL     1      34.693  60.560  48.078  1.00  0.00     0.037 C 
ATOM      6  C   UNL     1      33.174  60.683  48.277  1.00  0.00     0.009 C 
ATOM      7  C   UNL     1      32.179  59.722  47.572  1.00  0.00     0.001 C 
ATOM      8  C   UNL     1      32.326  59.852  46.042  1.00  0.00     0.031 C 
ATOM      9  C   UNL     1      31.203  59.201  45.277  1.00  0.00    -0.027 C 
ATOM     10  C   UNL     1      30.029  58.832  45.836  1.00  0.00    -0.065 C 
ATOM     11  C   UNL     1      28.988  58.114  44.989  1.00  0.00     0.063 C 
ATOM     12  C   UNL     1      27.629  58.830  45.073  1.00  0.00     0.125 C 
ATOM     13  C   UNL     1      27.208  59.006  46.544  1.00  0.00     0.033 C 
ATOM     14  C   UNL     1      28.274  59.790  47.330  1.00  0.00     0.014 C 
ATOM     15  C   UNL     1      29.680  59.111  47.307  1.00  0.00    -0.008 C 
ATOM     16  C   UNL     1      29.636  57.744  48.051  1.00  0.00     0.016 C 
ATOM     17  C   UNL     1      30.717  60.107  47.968  1.00  0.00     0.010 C 
ATOM     18  C   UNL     1      30.521  60.270  49.516  1.00  0.00     0.081 C 
ATOM     19  C   UNL     1      31.628  61.103  50.110  1.00  0.00     0.139 C 
ATOM     20  O   UNL     1      31.383  62.121  50.741  1.00  0.00    -0.299 OA
ATOM     21  C   UNL     1      33.043  60.665  49.813  1.00  0.00     0.035 C 
ATOM     22  C   UNL     1      33.277  59.246  50.435  1.00  0.00     0.020 C 
ATOM     23  O   UNL     1      36.475  61.597  49.527  1.00  0.00    -0.346 OA
ATOM     24  C   UNL     1      36.381  62.068  50.868  1.00  0.00     0.171 C 
ATOM     25  C   UNL     1      37.662  61.614  51.627  1.00  0.00     0.066 C 
ATOM     26  C   UNL     1      37.853  62.302  52.992  1.00  0.00     0.014 C 
ATOM     27  C   UNL     1      37.355  63.766  52.955  1.00  0.00     0.041 C 
ATOM     28  C   UNL     1      37.212  64.253  51.502  1.00  0.00     0.169 C 
ATOM     29  O   UNL     1      36.220  63.498  50.822  1.00  0.00    -0.349 OA
ENDROOT
BRANCH  27  30
ATOM     30  C   UNL     1      38.151  64.705  53.898  1.00  0.00     0.169 C 
BRANCH  30  31
ATOM     31  O   UNL     1      38.955  65.661  53.229  1.00  0.00    -0.349 OA
BRANCH  31  32
ATOM     32  C   UNL     1      38.554  67.000  53.463  1.00  0.00     0.281 C 
ATOM     33  O   UNL     1      37.157  67.058  53.151  1.00  0.00    -0.341 OA
ATOM     34  C   UNL     1      39.464  67.958  52.637  1.00  0.00     0.202 C 
ATOM     35  C   UNL     1      36.772  68.182  52.385  1.00  0.00     0.178 C 
ATOM     36  C   UNL     1      39.042  67.909  51.158  1.00  0.00     0.179 C 
ATOM     37  C   UNL     1      37.517  68.222  51.015  1.00  0.00     0.177 C 
BRANCH  34  38
ATOM     38  O   UNL     1      39.334  69.271  53.127  1.00  0.00    -0.385 OA
ATOM     39  H   UNL     1      39.504  69.884  52.366  1.00  0.00     0.211 HD
ENDBRANCH  34  38
BRANCH  35  40
ATOM     40  C   UNL     1      35.253  68.138  52.166  1.00  0.00     0.191 C 
BRANCH  40  41
ATOM     41  O   UNL     1      34.829  69.260  51.439  1.00  0.00    -0.394 OA
ATOM     42  H   UNL     1      34.445  68.921  50.586  1.00  0.00     0.210 HD
ENDBRANCH  40  41
ENDBRANCH  35  40
BRANCH  36  43
ATOM     43  O   UNL     1      39.376  66.659  50.597  1.00  0.00    -0.387 OA
ATOM     44  H   UNL     1      40.145  66.274  51.091  1.00  0.00     0.211 HD
ENDBRANCH  36  43
BRANCH  37  45
ATOM     45  O   UNL     1      37.310  69.462  50.387  1.00  0.00    -0.387 OA
ATOM     46  H   UNL     1      36.340  69.541  50.196  1.00  0.00     0.211 HD
ENDBRANCH  37  45
ENDBRANCH  31  32
ENDBRANCH  30  31
ENDBRANCH  27  30
BRANCH  12  47
ATOM     47  O   UNL     1      26.638  58.036  44.430  1.00  0.00    -0.346 OA
BRANCH  47  48
ATOM     48  C   UNL     1      26.763  57.979  43.016  1.00  0.00     0.282 C 
ATOM     49  O   UNL     1      26.916  59.341  42.580  1.00  0.00    -0.341 OA
ATOM     50  C   UNL     1      25.471  57.274  42.447  1.00  0.00     0.202 C 
ATOM     51  C   UNL     1      26.511  59.531  41.241  1.00  0.00     0.178 C 
ATOM     52  C   UNL     1      24.419  58.346  42.162  1.00  0.00     0.180 C 
ATOM     53  C   UNL     1      24.974  59.292  41.058  1.00  0.00     0.184 C 
BRANCH  50  54
ATOM     54  O   UNL     1      25.687  56.537  41.261  1.00  0.00    -0.385 OA
ATOM     55  H   UNL     1      26.648  56.331  41.145  1.00  0.00     0.211 HD
ENDBRANCH  50  54
BRANCH  51  56
ATOM     56  C   UNL     1      26.955  60.915  40.745  1.00  0.00     0.191 C 
BRANCH  56  57
ATOM     57  O   UNL     1      26.519  61.128  39.429  1.00  0.00    -0.394 OA
ATOM     58  H   UNL     1      25.936  60.359  39.193  1.00  0.00     0.210 HD
ENDBRANCH  56  57
ENDBRANCH  51  56
BRANCH  52  59
ATOM     59  O   UNL     1      24.088  59.026  43.357  1.00  0.00    -0.387 OA
ATOM     60  H   UNL     1      23.125  58.899  43.562  1.00  0.00     0.211 HD
ENDBRANCH  52  59
BRANCH  53  61
ATOM     61  O   UNL     1      24.210  60.495  41.056  1.00  0.00    -0.341 OA
BRANCH  61  62
ATOM     62  C   UNL     1      23.287  60.535  39.975  1.00  0.00     0.282 C 
ATOM     63  O   UNL     1      24.001  60.328  38.764  1.00  0.00    -0.341 OA
ATOM     64  C   UNL     1      22.589  61.911  39.953  1.00  0.00     0.202 C 
ATOM     65  C   UNL     1      23.117  60.253  37.654  1.00  0.00     0.178 C 
ATOM     66  C   UNL     1      21.610  61.953  38.760  1.00  0.00     0.179 C 
ATOM     67  C   UNL     1      22.366  61.599  37.465  1.00  0.00     0.177 C 
BRANCH  64  68
ATOM     68  O   UNL     1      21.920  62.161  41.163  1.00  0.00    -0.385 OA
ATOM     69  H   UNL     1      22.524  62.701  41.737  1.00  0.00     0.211 HD
ENDBRANCH  64  68
BRANCH  65  70
ATOM     70  C   UNL     1      23.932  59.884  36.405  1.00  0.00     0.191 C 
BRANCH  70  71
ATOM     71  O   UNL     1      25.306  59.869  36.685  1.00  0.00    -0.394 OA
ATOM     72  H   UNL     1      25.672  60.746  36.398  1.00  0.00     0.210 HD
ENDBRANCH  70  71
ENDBRANCH  65  70
BRANCH  66  73
ATOM     73  O   UNL     1      20.976  63.203  38.660  1.00  0.00    -0.387 OA
ATOM     74  H   UNL     1      20.820  63.383  37.696  1.00  0.00     0.211 HD
ENDBRANCH  66  73
BRANCH  67  75
ATOM     75  O   UNL     1      21.486  61.551  36.370  1.00  0.00    -0.387 OA
ATOM     76  H   UNL     1      21.521  62.435  35.918  1.00  0.00     0.211 HD
ENDBRANCH  67  75
ENDBRANCH  61  62
ENDBRANCH  53  61
ENDBRANCH  47  48
ENDBRANCH  12  47
TORSDOF 21
ENDMDL
MODEL 6
REMARK VINA RESULT:   -11.499      6.004     12.536
REMARK INTER + INTRA:         -23.552
REMARK INTER:                 -21.407
REMARK INTRA:                  -2.145
REMARK UNBOUND:                -1.633
REMARK SMILES C[C@H]1[C@H]2[C@H](C[C@H]3[C@@H]4CC=C5C[C@@H](O[C@@H]6O[C@H](CO)[C@H](O[C@@H]7O[C@H](CO)[C@@H](O)[C@H](O)[C@H]7O)[C@H](O)[C@H]6O)CC[C@]5(C)[C@H]4CC(=O)[C@]23C)O[C@]12CC[C@@H](CO[C@@H]1O[C@H](CO)[C@@H](O)[C@H](O)[C@H]1O)CO2
REMARK SMILES IDX 1 1 2 2 3 3 4 4 5 5 6 6 7 7 8 8 9 9 10 10 11 11 12 12 36 13
REMARK SMILES IDX 37 14 38 15 39 16 40 17 41 18 42 19 43 20 44 21 45 22 46 23
REMARK SMILES IDX 47 24 48 25 49 26 50 27 64 28 65 29 51 30 52 31 53 32 54 33
REMARK SMILES IDX 62 34 55 35 60 36 58 37 63 38 56 40 57 41 61 43 59 45 13 47
REMARK SMILES IDX 14 48 15 49 34 50 16 51 32 52 19 53 35 54 17 56 18 57 33 59
REMARK SMILES IDX 20 61 21 62 22 63 30 64 23 65 28 66 26 67 31 68 24 70 25 71
REMARK SMILES IDX 29 73 27 75
REMARK H PARENT 63 39 57 42 61 44 59 46 35 55 18 58 33 60 31 69 25 72 29 74
REMARK H PARENT 27 76
ROOT
ATOM      1  C   UNL     1      30.473  60.588  50.421  1.00  0.00     0.014 C 
ATOM      2  C   UNL     1      29.860  59.219  50.120  1.00  0.00     0.052 C 
ATOM      3  C   UNL     1      29.958  58.852  48.646  1.00  0.00     0.040 C 
ATOM      4  C   UNL     1      29.824  57.324  48.689  1.00  0.00     0.126 C 
ATOM      5  C   UNL     1      28.579  56.979  47.854  1.00  0.00     0.037 C 
ATOM      6  C   UNL     1      28.701  58.069  46.777  1.00  0.00     0.009 C 
ATOM      7  C   UNL     1      27.637  58.232  45.658  1.00  0.00     0.001 C 
ATOM      8  C   UNL     1      27.563  56.939  44.818  1.00  0.00     0.031 C 
ATOM      9  C   UNL     1      26.795  57.107  43.533  1.00  0.00    -0.027 C 
ATOM     10  C   UNL     1      26.484  58.307  42.995  1.00  0.00    -0.065 C 
ATOM     11  C   UNL     1      25.640  58.366  41.729  1.00  0.00     0.063 C 
ATOM     12  C   UNL     1      26.338  59.211  40.649  1.00  0.00     0.125 C 
ATOM     13  C   UNL     1      26.703  60.598  41.208  1.00  0.00     0.033 C 
ATOM     14  C   UNL     1      27.604  60.470  42.449  1.00  0.00     0.014 C 
ATOM     15  C   UNL     1      26.952  59.641  43.600  1.00  0.00    -0.008 C 
ATOM     16  C   UNL     1      25.697  60.374  44.157  1.00  0.00     0.016 C 
ATOM     17  C   UNL     1      28.046  59.414  44.721  1.00  0.00     0.010 C 
ATOM     18  C   UNL     1      28.412  60.723  45.505  1.00  0.00     0.081 C 
ATOM     19  C   UNL     1      29.337  60.415  46.656  1.00  0.00     0.139 C 
ATOM     20  O   UNL     1      30.426  60.962  46.753  1.00  0.00    -0.299 OA
ATOM     21  C   UNL     1      28.887  59.344  47.621  1.00  0.00     0.035 C 
ATOM     22  C   UNL     1      27.569  59.815  48.326  1.00  0.00     0.020 C 
ATOM     23  O   UNL     1      29.832  56.896  50.038  1.00  0.00    -0.346 OA
ATOM     24  C   UNL     1      30.477  57.951  50.745  1.00  0.00     0.171 C 
ATOM     25  C   UNL     1      30.152  57.785  52.258  1.00  0.00     0.066 C 
ATOM     26  C   UNL     1      31.021  58.661  53.180  1.00  0.00     0.014 C 
ATOM     27  C   UNL     1      32.458  58.804  52.626  1.00  0.00     0.041 C 
ATOM     28  C   UNL     1      32.742  57.719  51.573  1.00  0.00     0.169 C 
ATOM     29  O   UNL     1      31.885  57.880  50.451  1.00  0.00    -0.349 OA
ENDROOT
BRANCH  27  30
ATOM     30  C   UNL     1      33.529  58.952  53.738  1.00  0.00     0.169 C 
BRANCH  30  31
ATOM     31  O   UNL     1      34.327  60.117  53.628  1.00  0.00    -0.349 OA
BRANCH  31  32
ATOM     32  C   UNL     1      33.909  60.993  52.595  1.00  0.00     0.281 C 
ATOM     33  O   UNL     1      34.811  60.783  51.504  1.00  0.00    -0.341 OA
ATOM     34  C   UNL     1      33.858  62.450  53.150  1.00  0.00     0.202 C 
ATOM     35  C   UNL     1      35.275  61.968  50.887  1.00  0.00     0.178 C 
ATOM     36  C   UNL     1      35.290  62.997  53.269  1.00  0.00     0.179 C 
ATOM     37  C   UNL     1      36.035  62.878  51.900  1.00  0.00     0.177 C 
BRANCH  34  38
ATOM     38  O   UNL     1      33.108  63.260  52.278  1.00  0.00    -0.385 OA
ATOM     39  H   UNL     1      32.709  62.660  51.595  1.00  0.00     0.211 HD
ENDBRANCH  34  38
BRANCH  35  40
ATOM     40  C   UNL     1      36.191  61.593  49.714  1.00  0.00     0.191 C 
BRANCH  40  41
ATOM     41  O   UNL     1      35.612  61.978  48.495  1.00  0.00    -0.394 OA
ATOM     42  H   UNL     1      35.119  61.188  48.150  1.00  0.00     0.210 HD
ENDBRANCH  40  41
ENDBRANCH  35  40
BRANCH  36  43
ATOM     43  O   UNL     1      35.982  62.333  54.303  1.00  0.00    -0.387 OA
ATOM     44  H   UNL     1      36.107  61.381  54.054  1.00  0.00     0.211 HD
ENDBRANCH  36  43
BRANCH  37  45
ATOM     45  O   UNL     1      36.264  64.145  51.335  1.00  0.00    -0.387 OA
ATOM     46  H   UNL     1      35.661  64.788  51.791  1.00  0.00     0.211 HD
ENDBRANCH  37  45
ENDBRANCH  31  32
ENDBRANCH  30  31
ENDBRANCH  27  30
BRANCH  12  47
ATOM     47  O   UNL     1      25.447  59.404  39.554  1.00  0.00    -0.346 OA
BRANCH  47  48
ATOM     48  C   UNL     1      24.597  60.534  39.686  1.00  0.00     0.282 C 
ATOM     49  O   UNL     1      23.253  60.021  39.650  1.00  0.00    -0.341 OA
ATOM     50  C   UNL     1      24.928  61.526  38.505  1.00  0.00     0.202 C 
ATOM     51  C   UNL     1      22.315  60.985  39.223  1.00  0.00     0.178 C 
ATOM     52  C   UNL     1      24.034  61.178  37.315  1.00  0.00     0.180 C 
ATOM     53  C   UNL     1      22.552  61.409  37.734  1.00  0.00     0.184 C 
BRANCH  50  54
ATOM     54  O   UNL     1      24.735  62.890  38.821  1.00  0.00    -0.385 OA
ATOM     55  H   UNL     1      25.585  63.307  39.109  1.00  0.00     0.211 HD
ENDBRANCH  50  54
BRANCH  51  56
ATOM     56  C   UNL     1      20.887  60.480  39.471  1.00  0.00     0.191 C 
BRANCH  56  57
ATOM     57  O   UNL     1      19.948  61.409  38.998  1.00  0.00    -0.394 OA
ATOM     58  H   UNL     1      19.776  62.046  39.741  1.00  0.00     0.210 HD
ENDBRANCH  56  57
ENDBRANCH  51  56
BRANCH  52  59
ATOM     59  O   UNL     1      24.288  59.852  36.893  1.00  0.00    -0.387 OA
ATOM     60  H   UNL     1      25.057  59.479  37.397  1.00  0.00     0.211 HD
ENDBRANCH  52  59
BRANCH  53  61
ATOM     61  O   UNL     1      21.702  60.733  36.810  1.00  0.00    -0.341 OA
BRANCH  61  62
ATOM     62  C   UNL     1      21.178  61.619  35.829  1.00  0.00     0.282 C 
ATOM     63  O   UNL     1      19.759  61.591  35.908  1.00  0.00    -0.341 OA
ATOM     64  C   UNL     1      21.642  61.160  34.431  1.00  0.00     0.202 C 
ATOM     65  C   UNL     1      19.178  62.536  35.020  1.00  0.00     0.178 C 
ATOM     66  C   UNL     1      21.046  62.110  33.371  1.00  0.00     0.179 C 
ATOM     67  C   UNL     1      19.516  62.177  33.547  1.00  0.00     0.177 C 
BRANCH  64  68
ATOM     68  O   UNL     1      23.044  61.128  34.346  1.00  0.00    -0.385 OA
ATOM     69  H   UNL     1      23.292  60.421  33.694  1.00  0.00     0.211 HD
ENDBRANCH  64  68
BRANCH  65  70
ATOM     70  C   UNL     1      17.660  62.560  35.257  1.00  0.00     0.191 C 
BRANCH  70  71
ATOM     71  O   UNL     1      17.307  61.750  36.347  1.00  0.00    -0.394 OA
ATOM     72  H   UNL     1      17.882  60.941  36.308  1.00  0.00     0.210 HD
ENDBRANCH  70  71
ENDBRANCH  65  70
BRANCH  66  73
ATOM     73  O   UNL     1      21.397  61.715  32.070  1.00  0.00    -0.387 OA
ATOM     74  H   UNL     1      20.645  61.960  31.469  1.00  0.00     0.211 HD
ENDBRANCH  66  73
BRANCH  67  75
ATOM     75  O   UNL     1      18.949  63.096  32.647  1.00  0.00    -0.387 OA
ATOM     76  H   UNL     1      18.886  62.650  31.761  1.00  0.00     0.211 HD
ENDBRANCH  67  75
ENDBRANCH  61  62
ENDBRANCH  53  61
ENDBRANCH  47  48
ENDBRANCH  12  47
TORSDOF 21
ENDMDL
MODEL 7
REMARK VINA RESULT:   -11.475      3.278      7.232
REMARK INTER + INTRA:         -23.506
REMARK INTER:                 -21.871
REMARK INTRA:                  -1.635
REMARK UNBOUND:                -1.633
REMARK SMILES C[C@H]1[C@H]2[C@H](C[C@H]3[C@@H]4CC=C5C[C@@H](O[C@@H]6O[C@H](CO)[C@H](O[C@@H]7O[C@H](CO)[C@@H](O)[C@H](O)[C@H]7O)[C@H](O)[C@H]6O)CC[C@]5(C)[C@H]4CC(=O)[C@]23C)O[C@]12CC[C@@H](CO[C@@H]1O[C@H](CO)[C@@H](O)[C@H](O)[C@H]1O)CO2
REMARK SMILES IDX 1 1 2 2 3 3 4 4 5 5 6 6 7 7 8 8 9 9 10 10 11 11 12 12 36 13
REMARK SMILES IDX 37 14 38 15 39 16 40 17 41 18 42 19 43 20 44 21 45 22 46 23
REMARK SMILES IDX 47 24 48 25 49 26 50 27 64 28 65 29 51 30 52 31 53 32 54 33
REMARK SMILES IDX 62 34 55 35 60 36 58 37 63 38 56 40 57 41 61 43 59 45 13 47
REMARK SMILES IDX 14 48 15 49 34 50 16 51 32 52 19 53 35 54 17 56 18 57 33 59
REMARK SMILES IDX 20 61 21 62 22 63 30 64 23 65 28 66 26 67 31 68 24 70 25 71
REMARK SMILES IDX 29 73 27 75
REMARK H PARENT 63 39 57 42 61 44 59 46 35 55 18 58 33 60 31 69 25 72 29 74
REMARK H PARENT 27 76
ROOT
ATOM      1  C   UNL     1      28.111  55.586  42.735  1.00  0.00     0.014 C 
ATOM      2  C   UNL     1      28.614  57.027  42.631  1.00  0.00     0.052 C 
ATOM      3  C   UNL     1      27.478  58.040  42.667  1.00  0.00     0.040 C 
ATOM      4  C   UNL     1      28.205  59.318  43.107  1.00  0.00     0.126 C 
ATOM      5  C   UNL     1      27.995  60.341  41.978  1.00  0.00     0.037 C 
ATOM      6  C   UNL     1      26.571  59.945  41.555  1.00  0.00     0.009 C 
ATOM      7  C   UNL     1      25.848  60.643  40.371  1.00  0.00     0.001 C 
ATOM      8  C   UNL     1      25.700  62.150  40.667  1.00  0.00     0.031 C 
ATOM      9  C   UNL     1      24.747  62.850  39.734  1.00  0.00    -0.027 C 
ATOM     10  C   UNL     1      23.864  62.205  38.940  1.00  0.00    -0.065 C 
ATOM     11  C   UNL     1      22.996  63.005  37.979  1.00  0.00     0.063 C 
ATOM     12  C   UNL     1      21.509  62.665  38.176  1.00  0.00     0.125 C 
ATOM     13  C   UNL     1      21.292  61.143  38.077  1.00  0.00     0.033 C 
ATOM     14  C   UNL     1      22.152  60.397  39.113  1.00  0.00     0.014 C 
ATOM     15  C   UNL     1      23.680  60.679  38.962  1.00  0.00    -0.008 C 
ATOM     16  C   UNL     1      24.205  60.119  37.608  1.00  0.00     0.016 C 
ATOM     17  C   UNL     1      24.424  60.025  40.197  1.00  0.00     0.010 C 
ATOM     18  C   UNL     1      24.432  58.457  40.157  1.00  0.00     0.081 C 
ATOM     19  C   UNL     1      25.284  57.899  41.269  1.00  0.00     0.139 C 
ATOM     20  O   UNL     1      24.821  57.117  42.086  1.00  0.00    -0.299 OA
ATOM     21  C   UNL     1      26.698  58.420  41.369  1.00  0.00     0.035 C 
ATOM     22  C   UNL     1      27.481  58.020  40.072  1.00  0.00     0.020 C 
ATOM     23  O   UNL     1      29.543  58.998  43.443  1.00  0.00    -0.346 OA
ATOM     24  C   UNL     1      29.513  57.606  43.743  1.00  0.00     0.171 C 
ATOM     25  C   UNL     1      30.975  57.073  43.698  1.00  0.00     0.066 C 
ATOM     26  C   UNL     1      31.143  55.664  44.297  1.00  0.00     0.014 C 
ATOM     27  C   UNL     1      30.193  55.450  45.499  1.00  0.00     0.041 C 
ATOM     28  C   UNL     1      29.670  56.800  46.023  1.00  0.00     0.169 C 
ATOM     29  O   UNL     1      28.886  57.446  45.030  1.00  0.00    -0.349 OA
ENDROOT
BRANCH  27  30
ATOM     30  C   UNL     1      30.775  54.497  46.574  1.00  0.00     0.169 C 
BRANCH  30  31
ATOM     31  O   UNL     1      31.725  53.570  46.080  1.00  0.00    -0.349 OA
BRANCH  31  32
ATOM     32  C   UNL     1      31.164  52.312  45.744  1.00  0.00     0.281 C 
ATOM     33  O   UNL     1      31.850  51.343  46.545  1.00  0.00    -0.341 OA
ATOM     34  C   UNL     1      31.268  52.100  44.203  1.00  0.00     0.202 C 
ATOM     35  C   UNL     1      32.243  50.176  45.850  1.00  0.00     0.178 C 
ATOM     36  C   UNL     1      32.719  51.744  43.838  1.00  0.00     0.179 C 
ATOM     37  C   UNL     1      33.205  50.513  44.669  1.00  0.00     0.177 C 
BRANCH  34  38
ATOM     38  O   UNL     1      30.407  51.058  43.812  1.00  0.00    -0.385 OA
ATOM     39  H   UNL     1      30.647  50.263  44.354  1.00  0.00     0.211 HD
ENDBRANCH  34  38
BRANCH  35  40
ATOM     40  C   UNL     1      32.921  49.214  46.835  1.00  0.00     0.191 C 
BRANCH  40  41
ATOM     41  O   UNL     1      32.322  47.947  46.776  1.00  0.00    -0.394 OA
ATOM     42  H   UNL     1      31.375  48.064  47.054  1.00  0.00     0.210 HD
ENDBRANCH  40  41
ENDBRANCH  35  40
BRANCH  36  43
ATOM     43  O   UNL     1      33.557  52.863  44.019  1.00  0.00    -0.387 OA
ATOM     44  H   UNL     1      33.474  53.464  43.235  1.00  0.00     0.211 HD
ENDBRANCH  36  43
BRANCH  37  45
ATOM     45  O   UNL     1      33.379  49.384  43.850  1.00  0.00    -0.387 OA
ATOM     46  H   UNL     1      33.428  48.589  44.443  1.00  0.00     0.211 HD
ENDBRANCH  37  45
ENDBRANCH  31  32
ENDBRANCH  30  31
ENDBRANCH  27  30
BRANCH  12  47
ATOM     47  O   UNL     1      20.744  63.280  37.144  1.00  0.00    -0.346 OA
BRANCH  47  48
ATOM     48  C   UNL     1      20.118  62.365  36.256  1.00  0.00     0.282 C 
ATOM     49  O   UNL     1      20.729  62.582  34.973  1.00  0.00    -0.341 OA
ATOM     50  C   UNL     1      18.568  62.659  36.278  1.00  0.00     0.202 C 
ATOM     51  C   UNL     1      19.898  62.189  33.902  1.00  0.00     0.178 C 
ATOM     52  C   UNL     1      18.255  63.692  35.196  1.00  0.00     0.180 C 
ATOM     53  C   UNL     1      18.607  63.071  33.812  1.00  0.00     0.184 C 
BRANCH  50  54
ATOM     54  O   UNL     1      17.759  61.522  36.053  1.00  0.00    -0.385 OA
ATOM     55  H   UNL     1      17.877  60.858  36.777  1.00  0.00     0.211 HD
ENDBRANCH  50  54
BRANCH  51  56
ATOM     56  C   UNL     1      20.695  62.176  32.590  1.00  0.00     0.191 C 
BRANCH  56  57
ATOM     57  O   UNL     1      21.903  61.484  32.756  1.00  0.00    -0.394 OA
ATOM     58  H   UNL     1      22.632  62.153  32.659  1.00  0.00     0.210 HD
ENDBRANCH  56  57
ENDBRANCH  51  56
BRANCH  52  59
ATOM     59  O   UNL     1      18.958  64.891  35.458  1.00  0.00    -0.387 OA
ATOM     60  H   UNL     1      19.924  64.697  35.575  1.00  0.00     0.211 HD
ENDBRANCH  52  59
BRANCH  53  61
ATOM     61  O   UNL     1      18.702  64.118  32.849  1.00  0.00    -0.341 OA
BRANCH  61  62
ATOM     62  C   UNL     1      17.718  63.990  31.830  1.00  0.00     0.282 C 
ATOM     63  O   UNL     1      18.372  64.001  30.568  1.00  0.00    -0.341 OA
ATOM     64  C   UNL     1      16.730  65.170  31.927  1.00  0.00     0.202 C 
ATOM     65  C   UNL     1      17.450  63.771  29.511  1.00  0.00     0.178 C 
ATOM     66  C   UNL     1      15.683  65.037  30.800  1.00  0.00     0.179 C 
ATOM     67  C   UNL     1      16.404  64.918  29.443  1.00  0.00     0.177 C 
BRANCH  64  68
ATOM     68  O   UNL     1      16.109  65.212  33.187  1.00  0.00    -0.385 OA
ATOM     69  H   UNL     1      15.247  64.724  33.117  1.00  0.00     0.211 HD
ENDBRANCH  64  68
BRANCH  65  70
ATOM     70  C   UNL     1      18.236  63.650  28.196  1.00  0.00     0.191 C 
BRANCH  70  71
ATOM     71  O   UNL     1      17.495  62.955  27.228  1.00  0.00    -0.394 OA
ATOM     72  H   UNL     1      17.079  63.635  26.636  1.00  0.00     0.210 HD
ENDBRANCH  70  71
ENDBRANCH  65  70
BRANCH  66  73
ATOM     73  O   UNL     1      14.778  66.111  30.808  1.00  0.00    -0.387 OA
ATOM     74  H   UNL     1      15.239  66.894  30.406  1.00  0.00     0.211 HD
ENDBRANCH  66  73
BRANCH  67  75
ATOM     75  O   UNL     1      15.482  64.715  28.403  1.00  0.00    -0.387 OA
ATOM     76  H   UNL     1      15.219  63.757  28.416  1.00  0.00     0.211 HD
ENDBRANCH  67  75
ENDBRANCH  61  62
ENDBRANCH  53  61
ENDBRANCH  47  48
ENDBRANCH  12  47
TORSDOF 21
ENDMDL
MODEL 8
REMARK VINA RESULT:   -11.469      6.784     12.969
REMARK INTER + INTRA:         -23.494
REMARK INTER:                 -21.448
REMARK INTRA:                  -2.047
REMARK UNBOUND:                -1.633
REMARK SMILES C[C@H]1[C@H]2[C@H](C[C@H]3[C@@H]4CC=C5C[C@@H](O[C@@H]6O[C@H](CO)[C@H](O[C@@H]7O[C@H](CO)[C@@H](O)[C@H](O)[C@H]7O)[C@H](O)[C@H]6O)CC[C@]5(C)[C@H]4CC(=O)[C@]23C)O[C@]12CC[C@@H](CO[C@@H]1O[C@H](CO)[C@@H](O)[C@H](O)[C@H]1O)CO2
REMARK SMILES IDX 1 1 2 2 3 3 4 4 5 5 6 6 7 7 8 8 9 9 10 10 11 11 12 12 36 13
REMARK SMILES IDX 37 14 38 15 39 16 40 17 41 18 42 19 43 20 44 21 45 22 46 23
REMARK SMILES IDX 47 24 48 25 49 26 50 27 64 28 65 29 51 30 52 31 53 32 54 33
REMARK SMILES IDX 62 34 55 35 60 36 58 37 63 38 56 40 57 41 61 43 59 45 13 47
REMARK SMILES IDX 14 48 15 49 34 50 16 51 32 52 19 53 35 54 17 56 18 57 33 59
REMARK SMILES IDX 20 61 21 62 22 63 30 64 23 65 28 66 26 67 31 68 24 70 25 71
REMARK SMILES IDX 29 73 27 75
REMARK H PARENT 63 39 57 42 61 44 59 46 35 55 18 58 33 60 31 69 25 72 29 74
REMARK H PARENT 27 76
ROOT
ATOM      1  C   UNL     1      33.221  59.206  48.716  1.00  0.00     0.014 C 
ATOM      2  C   UNL     1      33.580  58.589  47.363  1.00  0.00     0.052 C 
ATOM      3  C   UNL     1      32.864  59.272  46.207  1.00  0.00     0.040 C 
ATOM      4  C   UNL     1      33.758  58.902  45.016  1.00  0.00     0.126 C 
ATOM      5  C   UNL     1      32.867  58.118  44.038  1.00  0.00     0.037 C 
ATOM      6  C   UNL     1      31.544  58.868  44.262  1.00  0.00     0.009 C 
ATOM      7  C   UNL     1      30.235  58.447  43.540  1.00  0.00     0.001 C 
ATOM      8  C   UNL     1      30.425  58.557  42.013  1.00  0.00     0.031 C 
ATOM      9  C   UNL     1      29.132  58.473  41.244  1.00  0.00    -0.027 C 
ATOM     10  C   UNL     1      27.912  58.618  41.807  1.00  0.00    -0.065 C 
ATOM     11  C   UNL     1      26.666  58.442  40.953  1.00  0.00     0.063 C 
ATOM     12  C   UNL     1      25.741  59.665  41.079  1.00  0.00     0.125 C 
ATOM     13  C   UNL     1      25.434  59.951  42.561  1.00  0.00     0.033 C 
ATOM     14  C   UNL     1      26.731  60.179  43.356  1.00  0.00     0.014 C 
ATOM     15  C   UNL     1      27.714  58.967  43.291  1.00  0.00    -0.008 C 
ATOM     16  C   UNL     1      27.092  57.723  43.991  1.00  0.00     0.016 C 
ATOM     17  C   UNL     1      29.076  59.403  43.969  1.00  0.00     0.010 C 
ATOM     18  C   UNL     1      28.966  59.579  45.524  1.00  0.00     0.081 C 
ATOM     19  C   UNL     1      30.323  59.841  46.129  1.00  0.00     0.139 C 
ATOM     20  O   UNL     1      30.533  60.843  46.796  1.00  0.00    -0.299 OA
ATOM     21  C   UNL     1      31.416  58.853  45.798  1.00  0.00     0.035 C 
ATOM     22  C   UNL     1      31.024  57.448  46.370  1.00  0.00     0.020 C 
ATOM     23  O   UNL     1      34.919  58.247  45.493  1.00  0.00    -0.346 OA
ATOM     24  C   UNL     1      35.034  58.664  46.850  1.00  0.00     0.171 C 
ATOM     25  C   UNL     1      35.999  57.683  47.575  1.00  0.00     0.066 C 
ATOM     26  C   UNL     1      36.463  58.176  48.959  1.00  0.00     0.014 C 
ATOM     27  C   UNL     1      36.636  59.713  48.977  1.00  0.00     0.041 C 
ATOM     28  C   UNL     1      36.715  60.265  47.543  1.00  0.00     0.169 C 
ATOM     29  O   UNL     1      35.496  60.028  46.852  1.00  0.00    -0.349 OA
ENDROOT
BRANCH  27  30
ATOM     30  C   UNL     1      37.755  60.190  49.938  1.00  0.00     0.169 C 
BRANCH  30  31
ATOM     31  O   UNL     1      37.304  60.518  51.241  1.00  0.00    -0.349 OA
BRANCH  31  32
ATOM     32  C   UNL     1      37.695  61.813  51.664  1.00  0.00     0.281 C 
ATOM     33  O   UNL     1      37.490  61.848  53.081  1.00  0.00    -0.341 OA
ATOM     34  C   UNL     1      36.902  62.878  50.847  1.00  0.00     0.202 C 
ATOM     35  C   UNL     1      36.865  63.024  53.556  1.00  0.00     0.178 C 
ATOM     36  C   UNL     1      35.460  62.953  51.376  1.00  0.00     0.179 C 
ATOM     37  C   UNL     1      35.457  63.221  52.916  1.00  0.00     0.177 C 
BRANCH  34  38
ATOM     38  O   UNL     1      37.525  64.133  50.980  1.00  0.00    -0.385 OA
ATOM     39  H   UNL     1      37.154  64.557  51.797  1.00  0.00     0.211 HD
ENDBRANCH  34  38
BRANCH  35  40
ATOM     40  C   UNL     1      36.751  62.945  55.085  1.00  0.00     0.191 C 
BRANCH  40  41
ATOM     41  O   UNL     1      36.596  64.226  55.634  1.00  0.00    -0.394 OA
ATOM     42  H   UNL     1      37.317  64.792  55.250  1.00  0.00     0.210 HD
ENDBRANCH  40  41
ENDBRANCH  35  40
BRANCH  36  43
ATOM     43  O   UNL     1      34.758  61.775  51.047  1.00  0.00    -0.387 OA
ATOM     44  H   UNL     1      33.852  62.014  50.722  1.00  0.00     0.211 HD
ENDBRANCH  36  43
BRANCH  37  45
ATOM     45  O   UNL     1      34.968  64.506  53.207  1.00  0.00    -0.387 OA
ATOM     46  H   UNL     1      34.603  64.884  52.365  1.00  0.00     0.211 HD
ENDBRANCH  37  45
ENDBRANCH  31  32
ENDBRANCH  30  31
ENDBRANCH  27  30
BRANCH  12  47
ATOM     47  O   UNL     1      24.506  59.391  40.424  1.00  0.00    -0.346 OA
BRANCH  47  48
ATOM     48  C   UNL     1      23.556  60.444  40.507  1.00  0.00     0.282 C 
ATOM     49  O   UNL     1      22.387  59.974  39.813  1.00  0.00    -0.341 OA
ATOM     50  C   UNL     1      24.203  61.728  39.859  1.00  0.00     0.202 C 
ATOM     51  C   UNL     1      21.585  61.028  39.325  1.00  0.00     0.178 C 
ATOM     52  C   UNL     1      23.866  61.742  38.369  1.00  0.00     0.180 C 
ATOM     53  C   UNL     1      22.321  61.856  38.219  1.00  0.00     0.184 C 
BRANCH  50  54
ATOM     54  O   UNL     1      23.765  62.947  40.424  1.00  0.00    -0.385 OA
ATOM     55  H   UNL     1      22.785  63.047  40.328  1.00  0.00     0.211 HD
ENDBRANCH  50  54
BRANCH  51  56
ATOM     56  C   UNL     1      20.229  60.485  38.851  1.00  0.00     0.191 C 
BRANCH  56  57
ATOM     57  O   UNL     1      20.408  59.548  37.822  1.00  0.00    -0.394 OA
ATOM     58  H   UNL     1      21.178  59.863  37.278  1.00  0.00     0.210 HD
ENDBRANCH  56  57
ENDBRANCH  51  56
BRANCH  52  59
ATOM     59  O   UNL     1      24.398  60.589  37.744  1.00  0.00    -0.387 OA
ATOM     60  H   UNL     1      25.331  60.763  37.454  1.00  0.00     0.211 HD
ENDBRANCH  52  59
BRANCH  53  61
ATOM     61  O   UNL     1      21.958  61.479  36.893  1.00  0.00    -0.341 OA
BRANCH  61  62
ATOM     62  C   UNL     1      21.245  62.513  36.225  1.00  0.00     0.282 C 
ATOM     63  O   UNL     1      19.941  62.038  35.921  1.00  0.00    -0.341 OA
ATOM     64  C   UNL     1      21.991  62.886  34.927  1.00  0.00     0.202 C 
ATOM     65  C   UNL     1      19.144  63.064  35.344  1.00  0.00     0.178 C 
ATOM     66  C   UNL     1      21.196  63.989  34.196  1.00  0.00     0.179 C 
ATOM     67  C   UNL     1      19.744  63.519  33.985  1.00  0.00     0.177 C 
BRANCH  64  68
ATOM     68  O   UNL     1      23.304  63.308  35.198  1.00  0.00    -0.385 OA
ATOM     69  H   UNL     1      23.697  63.641  34.349  1.00  0.00     0.211 HD
ENDBRANCH  64  68
BRANCH  65  70
ATOM     70  C   UNL     1      17.712  62.533  35.176  1.00  0.00     0.191 C 
BRANCH  70  71
ATOM     71  O   UNL     1      17.320  61.776  36.290  1.00  0.00    -0.394 OA
ATOM     72  H   UNL     1      16.332  61.683  36.246  1.00  0.00     0.210 HD
ENDBRANCH  70  71
ENDBRANCH  65  70
BRANCH  66  73
ATOM     73  O   UNL     1      21.804  64.340  32.979  1.00  0.00    -0.387 OA
ATOM     74  H   UNL     1      21.199  64.050  32.247  1.00  0.00     0.211 HD
ENDBRANCH  66  73
BRANCH  67  75
ATOM     75  O   UNL     1      18.971  64.532  33.392  1.00  0.00    -0.387 OA
ATOM     76  H   UNL     1      19.594  65.239  33.076  1.00  0.00     0.211 HD
ENDBRANCH  67  75
ENDBRANCH  61  62
ENDBRANCH  53  61
ENDBRANCH  47  48
ENDBRANCH  12  47
TORSDOF 21
ENDMDL
MODEL 9
REMARK VINA RESULT:   -11.328      6.294     12.915
REMARK INTER + INTRA:         -23.225
REMARK INTER:                 -20.724
REMARK INTRA:                  -2.501
REMARK UNBOUND:                -1.633
REMARK SMILES C[C@H]1[C@H]2[C@H](C[C@H]3[C@@H]4CC=C5C[C@@H](O[C@@H]6O[C@H](CO)[C@H](O[C@@H]7O[C@H](CO)[C@@H](O)[C@H](O)[C@H]7O)[C@H](O)[C@H]6O)CC[C@]5(C)[C@H]4CC(=O)[C@]23C)O[C@]12CC[C@@H](CO[C@@H]1O[C@H](CO)[C@@H](O)[C@H](O)[C@H]1O)CO2
REMARK SMILES IDX 1 1 2 2 3 3 4 4 5 5 6 6 7 7 8 8 9 9 10 10 11 11 12 12 36 13
REMARK SMILES IDX 37 14 38 15 39 16 40 17 41 18 42 19 43 20 44 21 45 22 46 23
REMARK SMILES IDX 47 24 48 25 49 26 50 27 64 28 65 29 51 30 52 31 53 32 54 33
REMARK SMILES IDX 62 34 55 35 60 36 58 37 63 38 56 40 57 41 61 43 59 45 13 47
REMARK SMILES IDX 14 48 15 49 34 50 16 51 32 52 19 53 35 54 17 56 18 57 33 59
REMARK SMILES IDX 20 61 21 62 22 63 30 64 23 65 28 66 26 67 31 68 24 70 25 71
REMARK SMILES IDX 29 73 27 75
REMARK H PARENT 63 39 57 42 61 44 59 46 35 55 18 58 33 60 31 69 25 72 29 74
REMARK H PARENT 27 76
ROOT
ATOM      1  C   UNL     1      30.401  60.125  50.577  1.00  0.00     0.014 C 
ATOM      2  C   UNL     1      29.790  58.770  50.212  1.00  0.00     0.052 C 
ATOM      3  C   UNL     1      29.912  58.461  48.727  1.00  0.00     0.040 C 
ATOM      4  C   UNL     1      29.774  56.933  48.707  1.00  0.00     0.126 C 
ATOM      5  C   UNL     1      28.543  56.625  47.838  1.00  0.00     0.037 C 
ATOM      6  C   UNL     1      28.686  57.756  46.807  1.00  0.00     0.009 C 
ATOM      7  C   UNL     1      27.642  57.966  45.677  1.00  0.00     0.001 C 
ATOM      8  C   UNL     1      27.579  56.708  44.786  1.00  0.00     0.031 C 
ATOM      9  C   UNL     1      26.835  56.929  43.495  1.00  0.00    -0.027 C 
ATOM     10  C   UNL     1      26.535  58.150  43.000  1.00  0.00    -0.065 C 
ATOM     11  C   UNL     1      25.714  58.262  41.723  1.00  0.00     0.063 C 
ATOM     12  C   UNL     1      26.432  59.145  40.689  1.00  0.00     0.125 C 
ATOM     13  C   UNL     1      26.791  60.509  41.309  1.00  0.00     0.033 C 
ATOM     14  C   UNL     1      27.670  60.329  42.559  1.00  0.00     0.014 C 
ATOM     15  C   UNL     1      26.996  59.457  43.665  1.00  0.00    -0.008 C 
ATOM     16  C   UNL     1      25.733  60.172  44.229  1.00  0.00     0.016 C 
ATOM     17  C   UNL     1      28.070  59.183  44.795  1.00  0.00     0.010 C 
ATOM     18  C   UNL     1      28.425  60.459  45.636  1.00  0.00     0.081 C 
ATOM     19  C   UNL     1      29.330  60.103  46.790  1.00  0.00     0.139 C 
ATOM     20  O   UNL     1      30.418  60.642  46.927  1.00  0.00    -0.299 OA
ATOM     21  C   UNL     1      28.861  58.996  47.704  1.00  0.00     0.035 C 
ATOM     22  C   UNL     1      27.532  59.443  48.404  1.00  0.00     0.020 C 
ATOM     23  O   UNL     1      29.758  56.452  50.039  1.00  0.00    -0.346 OA
ATOM     24  C   UNL     1      30.393  57.476  50.798  1.00  0.00     0.171 C 
ATOM     25  C   UNL     1      30.042  57.252  52.297  1.00  0.00     0.066 C 
ATOM     26  C   UNL     1      30.896  58.088  53.268  1.00  0.00     0.014 C 
ATOM     27  C   UNL     1      32.343  58.248  52.745  1.00  0.00     0.041 C 
ATOM     28  C   UNL     1      32.643  57.205  51.654  1.00  0.00     0.169 C 
ATOM     29  O   UNL     1      31.806  57.413  50.525  1.00  0.00    -0.349 OA
ENDROOT
BRANCH  27  30
ATOM     30  C   UNL     1      33.395  58.349  53.879  1.00  0.00     0.169 C 
BRANCH  30  31
ATOM     31  O   UNL     1      33.862  59.664  54.127  1.00  0.00    -0.349 OA
BRANCH  31  32
ATOM     32  C   UNL     1      33.664  60.091  55.464  1.00  0.00     0.281 C 
ATOM     33  O   UNL     1      32.675  59.217  56.020  1.00  0.00    -0.341 OA
ATOM     34  C   UNL     1      33.296  61.606  55.467  1.00  0.00     0.202 C 
ATOM     35  C   UNL     1      31.668  59.869  56.769  1.00  0.00     0.178 C 
ATOM     36  C   UNL     1      31.835  61.774  55.015  1.00  0.00     0.179 C 
ATOM     37  C   UNL     1      30.887  60.901  55.900  1.00  0.00     0.177 C 
BRANCH  34  38
ATOM     38  O   UNL     1      33.457  62.127  56.764  1.00  0.00    -0.385 OA
ATOM     39  H   UNL     1      34.431  62.132  56.957  1.00  0.00     0.211 HD
ENDBRANCH  34  38
BRANCH  35  40
ATOM     40  C   UNL     1      30.709  58.814  57.338  1.00  0.00     0.191 C 
BRANCH  40  41
ATOM     41  O   UNL     1      29.474  58.863  56.675  1.00  0.00    -0.394 OA
ATOM     42  H   UNL     1      29.101  59.771  56.831  1.00  0.00     0.210 HD
ENDBRANCH  40  41
ENDBRANCH  35  40
BRANCH  36  43
ATOM     43  O   UNL     1      31.710  61.463  53.646  1.00  0.00    -0.387 OA
ATOM     44  H   UNL     1      31.823  62.290  53.111  1.00  0.00     0.211 HD
ENDBRANCH  36  43
BRANCH  37  45
ATOM     45  O   UNL     1      30.073  61.705  56.717  1.00  0.00    -0.387 OA
ATOM     46  H   UNL     1      29.818  61.164  57.509  1.00  0.00     0.211 HD
ENDBRANCH  37  45
ENDBRANCH  31  32
ENDBRANCH  30  31
ENDBRANCH  27  30
BRANCH  12  47
ATOM     47  O   UNL     1      25.562  59.384  39.588  1.00  0.00    -0.346 OA
BRANCH  47  48
ATOM     48  C   UNL     1      24.712  60.511  39.749  1.00  0.00     0.282 C 
ATOM     49  O   UNL     1      23.369  59.997  39.725  1.00  0.00    -0.341 OA
ATOM     50  C   UNL     1      25.025  61.521  38.579  1.00  0.00     0.202 C 
ATOM     51  C   UNL     1      22.424  60.967  39.326  1.00  0.00     0.178 C 
ATOM     52  C   UNL     1      24.113  61.191  37.397  1.00  0.00     0.180 C 
ATOM     53  C   UNL     1      22.638  61.413  37.841  1.00  0.00     0.184 C 
BRANCH  50  54
ATOM     54  O   UNL     1      24.836  62.880  38.918  1.00  0.00    -0.385 OA
ATOM     55  H   UNL     1      25.533  63.184  39.551  1.00  0.00     0.211 HD
ENDBRANCH  50  54
BRANCH  51  56
ATOM     56  C   UNL     1      20.999  60.457  39.588  1.00  0.00     0.191 C 
BRANCH  56  57
ATOM     57  O   UNL     1      20.053  61.391  39.141  1.00  0.00    -0.394 OA
ATOM     58  H   UNL     1      20.283  61.603  38.198  1.00  0.00     0.210 HD
ENDBRANCH  56  57
ENDBRANCH  51  56
BRANCH  52  59
ATOM     59  O   UNL     1      24.363  59.871  36.951  1.00  0.00    -0.387 OA
ATOM     60  H   UNL     1      24.405  59.853  35.959  1.00  0.00     0.211 HD
ENDBRANCH  52  59
BRANCH  53  61
ATOM     61  O   UNL     1      21.775  60.751  36.920  1.00  0.00    -0.341 OA
BRANCH  61  62
ATOM     62  C   UNL     1      21.279  61.640  35.926  1.00  0.00     0.282 C 
ATOM     63  O   UNL     1      19.859  61.642  35.993  1.00  0.00    -0.341 OA
ATOM     64  C   UNL     1      21.745  61.160  34.537  1.00  0.00     0.202 C 
ATOM     65  C   UNL     1      19.306  62.593  35.092  1.00  0.00     0.178 C 
ATOM     66  C   UNL     1      21.179  62.114  33.464  1.00  0.00     0.179 C 
ATOM     67  C   UNL     1      19.649  62.215  33.625  1.00  0.00     0.177 C 
BRANCH  64  68
ATOM     68  O   UNL     1      23.147  61.097  34.465  1.00  0.00    -0.385 OA
ATOM     69  H   UNL     1      23.460  60.481  35.178  1.00  0.00     0.211 HD
ENDBRANCH  64  68
BRANCH  65  70
ATOM     70  C   UNL     1      17.787  62.651  35.316  1.00  0.00     0.191 C 
BRANCH  70  71
ATOM     71  O   UNL     1      17.389  61.750  36.315  1.00  0.00    -0.394 OA
ATOM     72  H   UNL     1      16.397  61.783  36.359  1.00  0.00     0.210 HD
ENDBRANCH  70  71
ENDBRANCH  65  70
BRANCH  66  73
ATOM     73  O   UNL     1      21.533  61.702  32.169  1.00  0.00    -0.387 OA
ATOM     74  H   UNL     1      21.516  62.504  31.584  1.00  0.00     0.211 HD
ENDBRANCH  66  73
BRANCH  67  75
ATOM     75  O   UNL     1      19.111  63.139  32.714  1.00  0.00    -0.387 OA
ATOM     76  H   UNL     1      18.209  62.813  32.453  1.00  0.00     0.211 HD
ENDBRANCH  67  75
ENDBRANCH  61  62
ENDBRANCH  53  61
ENDBRANCH  47  48
ENDBRANCH  12  47
TORSDOF 21
ENDMDL
