MODEL 1
REMARK VINA RESULT:   -13.301      0.000      0.000
REMARK INTER + INTRA:         -22.923
REMARK INTER:                 -21.077
REMARK INTRA:                  -1.846
REMARK UNBOUND:                -1.846
REMARK SMILES C[C@@H]1O[C@@H](O[C@H]2[C@H](C)O[C@H](O[C@H]3[C@H](O)C[C@@H](O[C@@H]4CC[C@]5(C)[C@H](CC[C@H]6[C@H]5C[C@@H](O)[C@]5(C)[C@@H](C7=CC(=O)OC7)CC[C@]65O)C4)O[C@H]3C)C[C@@H]2O)C[C@H](O)[C@H]1O
REMARK SMILES IDX 11 1 10 2 6 3 7 4 49 5 9 6 48 7 8 8 5 9 4 10 2 11 3 12 54 13
REMARK SMILES IDX 52 14 51 15 1 16 55 17 53 19 50 21 12 23 13 24 46 25 15 26
REMARK SMILES IDX 45 27 16 28 47 29 14 30 17 32 18 33 19 34 44 35 20 36 23 37
REMARK SMILES IDX 21 38 24 39 27 40 25 41 26 42 28 43 42 44 29 45 41 46 31 47
REMARK SMILES IDX 40 48 33 49 22 50 32 51 43 52 30 54 34 56 35 57 39 58 36 59
REMARK SMILES IDX 38 60 37 61
REMARK H PARENT 55 18 53 20 50 22 14 31 43 53 30 55
ROOT
ATOM      1  O   UNL     1      20.440  62.393  35.656  1.00  0.00    -0.344 OA
ENDROOT
BRANCH   1   2
ATOM      2  C   UNL     1      19.753  61.719  34.613  1.00  0.00     0.253 C 
ATOM      3  C   UNL     1      18.736  63.927  33.034  1.00  0.00     0.179 C 
ATOM      4  C   UNL     1      18.095  63.434  34.360  1.00  0.00     0.150 C 
ATOM      5  C   UNL     1      20.225  63.546  32.945  1.00  0.00     0.151 C 
ATOM      6  O   UNL     1      18.367  62.057  34.643  1.00  0.00    -0.347 OA
ATOM      7  C   UNL     1      20.370  62.051  33.242  1.00  0.00     0.096 C 
ATOM      8  C   UNL     1      18.373  64.361  35.556  1.00  0.00     0.041 C 
BRANCH   3   9
ATOM      9  O   UNL     1      18.054  63.330  31.932  1.00  0.00    -0.344 OA
BRANCH   9  10
ATOM     10  C   UNL     1      17.384  64.285  31.113  1.00  0.00     0.253 C 
ATOM     11  C   UNL     1      15.301  64.317  29.933  1.00  0.00     0.149 C 
ATOM     12  O   UNL     1      15.991  63.946  31.116  1.00  0.00    -0.347 OA
ATOM     13  C   UNL     1      15.903  63.625  28.665  1.00  0.00     0.172 C 
ATOM     14  C   UNL     1      17.381  63.214  28.868  1.00  0.00     0.150 C 
ATOM     15  C   UNL     1      18.063  64.272  29.715  1.00  0.00     0.096 C 
ATOM     16  C   UNL     1      15.177  65.852  29.832  1.00  0.00     0.041 C 
BRANCH  13  17
ATOM     17  O   UNL     1      15.152  62.500  28.279  1.00  0.00    -0.388 OA
ATOM     18  H   UNL     1      15.531  62.169  27.424  1.00  0.00     0.211 HD
ENDBRANCH  13  17
BRANCH  14  19
ATOM     19  O   UNL     1      18.025  63.017  27.634  1.00  0.00    -0.390 OA
ATOM     20  H   UNL     1      18.462  63.873  27.383  1.00  0.00     0.211 HD
ENDBRANCH  14  19
ENDBRANCH   9  10
ENDBRANCH   3   9
BRANCH   5  21
ATOM     21  O   UNL     1      20.996  64.286  33.858  1.00  0.00    -0.390 OA
ATOM     22  H   UNL     1      20.706  65.231  33.778  1.00  0.00     0.211 HD
ENDBRANCH   5  21
ENDBRANCH   1   2
BRANCH   1  23
ATOM     23  C   UNL     1      21.669  61.809  36.055  1.00  0.00     0.179 C 
ATOM     24  C   UNL     1      22.700  62.904  36.400  1.00  0.00     0.151 C 
ATOM     25  C   UNL     1      21.425  60.861  37.254  1.00  0.00     0.150 C 
ATOM     26  C   UNL     1      23.701  62.427  37.470  1.00  0.00     0.096 C 
ATOM     27  O   UNL     1      22.614  60.212  37.709  1.00  0.00    -0.347 OA
ATOM     28  C   UNL     1      23.847  60.898  37.482  1.00  0.00     0.253 C 
ATOM     29  C   UNL     1      20.688  61.502  38.442  1.00  0.00     0.041 C 
BRANCH  24  30
ATOM     30  O   UNL     1      23.354  63.328  35.230  1.00  0.00    -0.390 OA
ATOM     31  H   UNL     1      22.847  64.100  34.865  1.00  0.00     0.211 HD
ENDBRANCH  24  30
BRANCH  28  32
ATOM     32  O   UNL     1      24.693  60.588  38.573  1.00  0.00    -0.349 OA
BRANCH  32  33
ATOM     33  C   UNL     1      24.084  59.819  39.594  1.00  0.00     0.121 C 
ATOM     34  C   UNL     1      23.866  60.720  40.840  1.00  0.00     0.033 C 
ATOM     35  C   UNL     1      25.011  58.600  39.870  1.00  0.00     0.036 C 
ATOM     36  C   UNL     1      25.207  61.015  41.520  1.00  0.00     0.010 C 
ATOM     37  C   UNL     1      25.256  58.429  41.374  1.00  0.00    -0.002 C 
ATOM     38  C   UNL     1      25.966  59.707  41.986  1.00  0.00    -0.026 C 
ATOM     39  C   UNL     1      25.984  57.128  41.738  1.00  0.00     0.005 C 
ATOM     40  C   UNL     1      25.928  59.523  43.552  1.00  0.00     0.004 C 
ATOM     41  C   UNL     1      25.949  56.957  43.262  1.00  0.00     0.007 C 
ATOM     42  C   UNL     1      26.589  58.163  43.993  1.00  0.00     0.025 C 
ATOM     43  C   UNL     1      26.515  60.746  44.346  1.00  0.00     0.037 C 
ATOM     44  C   UNL     1      26.509  58.007  45.548  1.00  0.00     0.076 C 
ATOM     45  C   UNL     1      27.642  60.352  45.330  1.00  0.00     0.124 C 
ATOM     46  C   UNL     1      27.311  56.757  46.011  1.00  0.00     0.037 C 
ATOM     47  C   UNL     1      27.179  59.233  46.318  1.00  0.00     0.029 C 
ATOM     48  C   UNL     1      27.913  57.163  47.346  1.00  0.00     0.012 C 
ATOM     49  C   UNL     1      28.410  58.567  47.012  1.00  0.00     0.030 C 
ATOM     50  C   UNL     1      27.447  59.850  41.493  1.00  0.00     0.012 C 
ATOM     51  C   UNL     1      26.179  59.836  47.354  1.00  0.00     0.018 C 
BRANCH  44  52
ATOM     52  O   UNL     1      25.142  57.878  45.897  1.00  0.00    -0.389 OA
ATOM     53  H   UNL     1      24.760  57.077  45.453  1.00  0.00     0.211 HD
ENDBRANCH  44  52
BRANCH  45  54
ATOM     54  O   UNL     1      28.179  61.465  46.006  1.00  0.00    -0.392 OA
ATOM     55  H   UNL     1      27.923  62.288  45.513  1.00  0.00     0.210 HD
ENDBRANCH  45  54
BRANCH  49  56
ATOM     56  C   UNL     1      29.102  59.255  48.178  1.00  0.00    -0.022 C 
ATOM     57  C   UNL     1      30.268  59.876  48.060  1.00  0.00     0.096 C 
ATOM     58  C   UNL     1      28.667  59.292  49.632  1.00  0.00     0.265 C 
ATOM     59  C   UNL     1      30.613  60.338  49.379  1.00  0.00     0.331 C 
ATOM     60  O   UNL     1      29.678  59.982  50.274  1.00  0.00    -0.458 OA
ATOM     61  O   UNL     1      31.625  60.953  49.667  1.00  0.00    -0.247 OA
ENDBRANCH  49  56
ENDBRANCH  32  33
ENDBRANCH  28  32
ENDBRANCH   1  23
TORSDOF 13
ENDMDL
MODEL 2
REMARK VINA RESULT:   -12.894      2.672      3.311
REMARK INTER + INTRA:         -22.278
REMARK INTER:                 -20.927
REMARK INTRA:                  -1.351
REMARK UNBOUND:                -1.846
REMARK SMILES C[C@@H]1O[C@@H](O[C@H]2[C@H](C)O[C@H](O[C@H]3[C@H](O)C[C@@H](O[C@@H]4CC[C@]5(C)[C@H](CC[C@H]6[C@H]5C[C@@H](O)[C@]5(C)[C@@H](C7=CC(=O)OC7)CC[C@]65O)C4)O[C@H]3C)C[C@@H]2O)C[C@H](O)[C@H]1O
REMARK SMILES IDX 11 1 10 2 6 3 7 4 49 5 9 6 48 7 8 8 5 9 4 10 2 11 3 12 54 13
REMARK SMILES IDX 52 14 51 15 1 16 55 17 53 19 50 21 12 23 13 24 46 25 15 26
REMARK SMILES IDX 45 27 16 28 47 29 14 30 17 32 18 33 19 34 44 35 20 36 23 37
REMARK SMILES IDX 21 38 24 39 27 40 25 41 26 42 28 43 42 44 29 45 41 46 31 47
REMARK SMILES IDX 40 48 33 49 22 50 32 51 43 52 30 54 34 56 35 57 39 58 36 59
REMARK SMILES IDX 38 60 37 61
REMARK H PARENT 55 18 53 20 50 22 14 31 43 53 30 55
ROOT
ATOM      1  O   UNL     1      20.581  62.743  35.524  1.00  0.00    -0.344 OA
ENDROOT
BRANCH   1   2
ATOM      2  C   UNL     1      20.743  62.347  34.171  1.00  0.00     0.253 C 
ATOM      3  C   UNL     1      18.730  63.942  32.828  1.00  0.00     0.179 C 
ATOM      4  C   UNL     1      18.426  62.644  33.624  1.00  0.00     0.150 C 
ATOM      5  C   UNL     1      20.043  64.600  33.291  1.00  0.00     0.151 C 
ATOM      6  O   UNL     1      19.540  61.747  33.691  1.00  0.00    -0.347 OA
ATOM      7  C   UNL     1      21.150  63.543  33.291  1.00  0.00     0.096 C 
ATOM      8  C   UNL     1      17.779  62.904  34.995  1.00  0.00     0.041 C 
BRANCH   3   9
ATOM      9  O   UNL     1      18.850  63.626  31.442  1.00  0.00    -0.344 OA
BRANCH   9  10
ATOM     10  C   UNL     1      17.668  63.923  30.703  1.00  0.00     0.253 C 
ATOM     11  C   UNL     1      16.346  62.729  29.103  1.00  0.00     0.149 C 
ATOM     12  O   UNL     1      17.086  62.673  30.312  1.00  0.00    -0.347 OA
ATOM     13  C   UNL     1      17.235  63.178  27.896  1.00  0.00     0.172 C 
ATOM     14  C   UNL     1      18.467  63.998  28.348  1.00  0.00     0.150 C 
ATOM     15  C   UNL     1      18.065  64.861  29.529  1.00  0.00     0.096 C 
ATOM     16  C   UNL     1      15.053  63.551  29.292  1.00  0.00     0.041 C 
BRANCH  13  17
ATOM     17  O   UNL     1      17.659  62.081  27.124  1.00  0.00    -0.388 OA
ATOM     18  H   UNL     1      17.998  62.438  26.263  1.00  0.00     0.211 HD
ENDBRANCH  13  17
BRANCH  14  19
ATOM     19  O   UNL     1      18.991  64.753  27.284  1.00  0.00    -0.390 OA
ATOM     20  H   UNL     1      18.585  65.658  27.330  1.00  0.00     0.211 HD
ENDBRANCH  14  19
ENDBRANCH   9  10
ENDBRANCH   3   9
BRANCH   5  21
ATOM     21  O   UNL     1      19.913  65.149  34.578  1.00  0.00    -0.390 OA
ATOM     22  H   UNL     1      19.180  64.654  35.027  1.00  0.00     0.211 HD
ENDBRANCH   5  21
ENDBRANCH   1   2
BRANCH   1  23
ATOM     23  C   UNL     1      21.046  61.816  36.492  1.00  0.00     0.179 C 
ATOM     24  C   UNL     1      21.720  60.610  35.805  1.00  0.00     0.151 C 
ATOM     25  C   UNL     1      22.016  62.530  37.464  1.00  0.00     0.150 C 
ATOM     26  C   UNL     1      22.825  59.997  36.685  1.00  0.00     0.096 C 
ATOM     27  O   UNL     1      22.519  61.670  38.488  1.00  0.00    -0.347 OA
ATOM     28  C   UNL     1      22.595  60.277  38.178  1.00  0.00     0.253 C 
ATOM     29  C   UNL     1      23.177  63.275  36.785  1.00  0.00     0.041 C 
BRANCH  24  30
ATOM     30  O   UNL     1      20.748  59.658  35.453  1.00  0.00    -0.390 OA
ATOM     31  H   UNL     1      21.098  59.139  34.683  1.00  0.00     0.211 HD
ENDBRANCH  24  30
BRANCH  28  32
ATOM     32  O   UNL     1      23.726  59.768  38.858  1.00  0.00    -0.349 OA
BRANCH  32  33
ATOM     33  C   UNL     1      24.092  60.491  40.019  1.00  0.00     0.121 C 
ATOM     34  C   UNL     1      25.546  61.010  39.851  1.00  0.00     0.033 C 
ATOM     35  C   UNL     1      23.918  59.533  41.233  1.00  0.00     0.036 C 
ATOM     36  C   UNL     1      26.539  59.848  39.960  1.00  0.00     0.010 C 
ATOM     37  C   UNL     1      25.159  59.558  42.133  1.00  0.00    -0.002 C 
ATOM     38  C   UNL     1      26.447  59.082  41.342  1.00  0.00    -0.026 C 
ATOM     39  C   UNL     1      24.978  58.804  43.458  1.00  0.00     0.005 C 
ATOM     40  C   UNL     1      27.678  59.395  42.278  1.00  0.00     0.004 C 
ATOM     41  C   UNL     1      26.180  59.107  44.362  1.00  0.00     0.007 C 
ATOM     42  C   UNL     1      27.520  58.717  43.691  1.00  0.00     0.025 C 
ATOM     43  C   UNL     1      29.069  59.069  41.622  1.00  0.00     0.037 C 
ATOM     44  C   UNL     1      28.746  59.070  44.596  1.00  0.00     0.076 C 
ATOM     45  C   UNL     1      29.938  58.115  42.476  1.00  0.00     0.124 C 
ATOM     46  C   UNL     1      28.689  58.267  45.927  1.00  0.00     0.037 C 
ATOM     47  C   UNL     1      30.135  58.659  43.928  1.00  0.00     0.029 C 
ATOM     48  C   UNL     1      30.141  57.960  46.249  1.00  0.00     0.012 C 
ATOM     49  C   UNL     1      30.646  57.527  44.875  1.00  0.00     0.030 C 
ATOM     50  C   UNL     1      26.399  57.552  41.003  1.00  0.00     0.012 C 
ATOM     51  C   UNL     1      31.106  59.881  43.898  1.00  0.00     0.018 C 
BRANCH  44  52
ATOM     52  O   UNL     1      28.702  60.463  44.853  1.00  0.00    -0.389 OA
ATOM     53  H   UNL     1      29.125  60.652  45.731  1.00  0.00     0.211 HD
ENDBRANCH  44  52
BRANCH  45  54
ATOM     54  O   UNL     1      31.165  57.808  41.856  1.00  0.00    -0.392 OA
ATOM     55  H   UNL     1      31.897  58.227  42.379  1.00  0.00     0.210 HD
ENDBRANCH  45  54
BRANCH  49  56
ATOM     56  C   UNL     1      32.113  57.123  44.871  1.00  0.00    -0.022 C 
ATOM     57  C   UNL     1      32.569  56.076  44.198  1.00  0.00     0.096 C 
ATOM     58  C   UNL     1      33.255  57.747  45.652  1.00  0.00     0.265 C 
ATOM     59  C   UNL     1      33.977  55.992  44.492  1.00  0.00     0.331 C 
ATOM     60  O   UNL     1      34.349  56.963  45.341  1.00  0.00    -0.458 OA
ATOM     61  O   UNL     1      34.738  55.147  44.054  1.00  0.00    -0.247 OA
ENDBRANCH  49  56
ENDBRANCH  32  33
ENDBRANCH  28  32
ENDBRANCH   1  23
TORSDOF 13
ENDMDL
MODEL 3
REMARK VINA RESULT:   -12.560      4.536      7.840
REMARK INTER + INTRA:         -21.748
REMARK INTER:                 -20.388
REMARK INTRA:                  -1.361
REMARK UNBOUND:                -1.846
REMARK SMILES C[C@@H]1O[C@@H](O[C@H]2[C@H](C)O[C@H](O[C@H]3[C@H](O)C[C@@H](O[C@@H]4CC[C@]5(C)[C@H](CC[C@H]6[C@H]5C[C@@H](O)[C@]5(C)[C@@H](C7=CC(=O)OC7)CC[C@]65O)C4)O[C@H]3C)C[C@@H]2O)C[C@H](O)[C@H]1O
REMARK SMILES IDX 11 1 10 2 6 3 7 4 49 5 9 6 48 7 8 8 5 9 4 10 2 11 3 12 54 13
REMARK SMILES IDX 52 14 51 15 1 16 55 17 53 19 50 21 12 23 13 24 46 25 15 26
REMARK SMILES IDX 45 27 16 28 47 29 14 30 17 32 18 33 19 34 44 35 20 36 23 37
REMARK SMILES IDX 21 38 24 39 27 40 25 41 26 42 28 43 42 44 29 45 41 46 31 47
REMARK SMILES IDX 40 48 33 49 22 50 32 51 43 52 30 54 34 56 35 57 39 58 36 59
REMARK SMILES IDX 38 60 37 61
REMARK H PARENT 55 18 53 20 50 22 14 31 43 53 30 55
ROOT
ATOM      1  O   UNL     1      24.265  60.452  40.714  1.00  0.00    -0.344 OA
ENDROOT
BRANCH   1   2
ATOM      2  C   UNL     1      24.526  60.462  39.319  1.00  0.00     0.253 C 
ATOM      3  C   UNL     1      22.254  61.939  38.291  1.00  0.00     0.179 C 
ATOM      4  C   UNL     1      22.206  60.445  38.709  1.00  0.00     0.150 C 
ATOM      5  C   UNL     1      23.400  62.691  38.993  1.00  0.00     0.151 C 
ATOM      6  O   UNL     1      23.477  59.791  38.622  1.00  0.00    -0.347 OA
ATOM      7  C   UNL     1      24.697  61.902  38.801  1.00  0.00     0.096 C 
ATOM      8  C   UNL     1      21.498  60.208  40.054  1.00  0.00     0.041 C 
BRANCH   3   9
ATOM      9  O   UNL     1      22.458  62.027  36.881  1.00  0.00    -0.344 OA
BRANCH   9  10
ATOM     10  C   UNL     1      21.389  62.685  36.207  1.00  0.00     0.253 C 
ATOM     11  C   UNL     1      19.255  61.994  35.369  1.00  0.00     0.149 C 
ATOM     12  O   UNL     1      20.207  61.901  36.417  1.00  0.00    -0.347 OA
ATOM     13  C   UNL     1      19.844  61.515  34.001  1.00  0.00     0.172 C 
ATOM     14  C   UNL     1      21.388  61.626  33.957  1.00  0.00     0.150 C 
ATOM     15  C   UNL     1      21.804  62.869  34.721  1.00  0.00     0.096 C 
ATOM     16  C   UNL     1      18.613  63.397  35.338  1.00  0.00     0.041 C 
BRANCH  13  17
ATOM     17  O   UNL     1      19.460  60.196  33.701  1.00  0.00    -0.388 OA
ATOM     18  H   UNL     1      20.264  59.622  33.799  1.00  0.00     0.211 HD
ENDBRANCH  13  17
BRANCH  14  19
ATOM     19  O   UNL     1      21.857  61.627  32.632  1.00  0.00    -0.390 OA
ATOM     20  H   UNL     1      22.826  61.843  32.658  1.00  0.00     0.211 HD
ENDBRANCH  14  19
ENDBRANCH   9  10
ENDBRANCH   3   9
BRANCH   5  21
ATOM     21  O   UNL     1      23.141  62.848  40.365  1.00  0.00    -0.390 OA
ATOM     22  H   UNL     1      23.774  63.536  40.699  1.00  0.00     0.211 HD
ENDBRANCH   5  21
ENDBRANCH   1   2
BRANCH   1  23
ATOM     23  C   UNL     1      25.094  59.595  41.484  1.00  0.00     0.179 C 
ATOM     24  C   UNL     1      26.058  58.812  40.569  1.00  0.00     0.151 C 
ATOM     25  C   UNL     1      25.863  60.431  42.535  1.00  0.00     0.150 C 
ATOM     26  C   UNL     1      27.378  58.475  41.288  1.00  0.00     0.096 C 
ATOM     27  O   UNL     1      26.710  59.641  43.371  1.00  0.00    -0.347 OA
ATOM     28  C   UNL     1      27.207  58.422  42.814  1.00  0.00     0.253 C 
ATOM     29  C   UNL     1      26.650  61.621  41.962  1.00  0.00     0.041 C 
BRANCH  24  30
ATOM     30  O   UNL     1      25.421  57.656  40.085  1.00  0.00    -0.390 OA
ATOM     31  H   UNL     1      24.644  57.946  39.539  1.00  0.00     0.211 HD
ENDBRANCH  24  30
BRANCH  28  32
ATOM     32  O   UNL     1      28.499  58.224  43.353  1.00  0.00    -0.349 OA
BRANCH  32  33
ATOM     33  C   UNL     1      29.166  59.410  43.743  1.00  0.00     0.121 C 
ATOM     34  C   UNL     1      30.505  59.514  42.963  1.00  0.00     0.033 C 
ATOM     35  C   UNL     1      29.356  59.347  45.286  1.00  0.00     0.036 C 
ATOM     36  C   UNL     1      31.507  58.482  43.493  1.00  0.00     0.010 C 
ATOM     37  C   UNL     1      30.800  59.688  45.675  1.00  0.00    -0.002 C 
ATOM     38  C   UNL     1      31.821  58.658  45.035  1.00  0.00    -0.026 C 
ATOM     39  C   UNL     1      31.011  59.854  47.185  1.00  0.00     0.005 C 
ATOM     40  C   UNL     1      33.260  59.253  45.284  1.00  0.00     0.004 C 
ATOM     41  C   UNL     1      32.414  60.428  47.423  1.00  0.00     0.007 C 
ATOM     42  C   UNL     1      33.517  59.528  46.814  1.00  0.00     0.025 C 
ATOM     43  C   UNL     1      34.415  58.407  44.637  1.00  0.00     0.037 C 
ATOM     44  C   UNL     1      34.943  60.139  47.017  1.00  0.00     0.076 C 
ATOM     45  C   UNL     1      35.505  57.984  45.650  1.00  0.00     0.124 C 
ATOM     46  C   UNL     1      35.276  60.251  48.533  1.00  0.00     0.037 C 
ATOM     47  C   UNL     1      36.094  59.216  46.410  1.00  0.00     0.029 C 
ATOM     48  C   UNL     1      36.765  59.961  48.618  1.00  0.00     0.012 C 
ATOM     49  C   UNL     1      36.869  58.757  47.686  1.00  0.00     0.030 C 
ATOM     50  C   UNL     1      31.704  57.234  45.679  1.00  0.00     0.012 C 
ATOM     51  C   UNL     1      36.997  60.041  45.441  1.00  0.00     0.018 C 
BRANCH  44  52
ATOM     52  O   UNL     1      34.950  61.420  46.411  1.00  0.00    -0.389 OA
ATOM     53  H   UNL     1      35.792  61.891  46.642  1.00  0.00     0.211 HD
ENDBRANCH  44  52
BRANCH  45  54
ATOM     54  O   UNL     1      36.512  57.197  45.059  1.00  0.00    -0.392 OA
ATOM     55  H   UNL     1      36.141  56.768  44.245  1.00  0.00     0.210 HD
ENDBRANCH  45  54
BRANCH  49  56
ATOM     56  C   UNL     1      38.281  58.203  47.572  1.00  0.00    -0.022 C 
ATOM     57  C   UNL     1      38.539  56.910  47.433  1.00  0.00     0.096 C 
ATOM     58  C   UNL     1      39.593  58.962  47.672  1.00  0.00     0.265 C 
ATOM     59  C   UNL     1      39.974  56.786  47.421  1.00  0.00     0.331 C 
ATOM     60  O   UNL     1      40.562  57.983  47.569  1.00  0.00    -0.458 OA
ATOM     61  O   UNL     1      40.588  55.738  47.313  1.00  0.00    -0.247 OA
ENDBRANCH  49  56
ENDBRANCH  32  33
ENDBRANCH  28  32
ENDBRANCH   1  23
TORSDOF 13
ENDMDL
MODEL 4
REMARK VINA RESULT:   -12.519      4.573      7.301
REMARK INTER + INTRA:         -21.684
REMARK INTER:                 -20.020
REMARK INTRA:                  -1.664
REMARK UNBOUND:                -1.846
REMARK SMILES C[C@@H]1O[C@@H](O[C@H]2[C@H](C)O[C@H](O[C@H]3[C@H](O)C[C@@H](O[C@@H]4CC[C@]5(C)[C@H](CC[C@H]6[C@H]5C[C@@H](O)[C@]5(C)[C@@H](C7=CC(=O)OC7)CC[C@]65O)C4)O[C@H]3C)C[C@@H]2O)C[C@H](O)[C@H]1O
REMARK SMILES IDX 11 1 10 2 6 3 7 4 49 5 9 6 48 7 8 8 5 9 4 10 2 11 3 12 54 13
REMARK SMILES IDX 52 14 51 15 1 16 55 17 53 19 50 21 12 23 13 24 46 25 15 26
REMARK SMILES IDX 45 27 16 28 47 29 14 30 17 32 18 33 19 34 44 35 20 36 23 37
REMARK SMILES IDX 21 38 24 39 27 40 25 41 26 42 28 43 42 44 29 45 41 46 31 47
REMARK SMILES IDX 40 48 33 49 22 50 32 51 43 52 30 54 34 56 35 57 39 58 36 59
REMARK SMILES IDX 38 60 37 61
REMARK H PARENT 55 18 53 20 50 22 14 31 43 53 30 55
ROOT
ATOM      1  O   UNL     1      24.279  60.183  38.897  1.00  0.00    -0.344 OA
ENDROOT
BRANCH   1   2
ATOM      2  C   UNL     1      24.466  60.240  37.491  1.00  0.00     0.253 C 
ATOM      3  C   UNL     1      22.298  61.976  36.663  1.00  0.00     0.179 C 
ATOM      4  C   UNL     1      22.126  60.473  37.014  1.00  0.00     0.150 C 
ATOM      5  C   UNL     1      23.546  62.579  37.333  1.00  0.00     0.151 C 
ATOM      6  O   UNL     1      23.321  59.708  36.825  1.00  0.00    -0.347 OA
ATOM      7  C   UNL     1      24.749  61.682  37.030  1.00  0.00     0.096 C 
ATOM      8  C   UNL     1      21.470  60.236  38.385  1.00  0.00     0.041 C 
BRANCH   3   9
ATOM      9  O   UNL     1      22.435  62.116  35.250  1.00  0.00    -0.344 OA
BRANCH   9  10
ATOM     10  C   UNL     1      21.401  62.908  34.670  1.00  0.00     0.253 C 
ATOM     11  C   UNL     1      19.268  63.694  35.421  1.00  0.00     0.149 C 
ATOM     12  O   UNL     1      20.627  63.452  35.747  1.00  0.00    -0.347 OA
ATOM     13  C   UNL     1      18.530  62.384  34.988  1.00  0.00     0.172 C 
ATOM     14  C   UNL     1      19.507  61.311  34.450  1.00  0.00     0.150 C 
ATOM     15  C   UNL     1      20.612  62.009  33.679  1.00  0.00     0.096 C 
ATOM     16  C   UNL     1      19.147  64.863  34.420  1.00  0.00     0.041 C 
BRANCH  13  17
ATOM     17  O   UNL     1      17.770  61.842  36.040  1.00  0.00    -0.388 OA
ATOM     18  H   UNL     1      16.853  61.688  35.696  1.00  0.00     0.211 HD
ENDBRANCH  13  17
BRANCH  14  19
ATOM     19  O   UNL     1      18.831  60.355  33.674  1.00  0.00    -0.390 OA
ATOM     20  H   UNL     1      18.694  60.744  32.770  1.00  0.00     0.211 HD
ENDBRANCH  14  19
ENDBRANCH   9  10
ENDBRANCH   3   9
BRANCH   5  21
ATOM     21  O   UNL     1      23.376  62.689  38.723  1.00  0.00    -0.390 OA
ATOM     22  H   UNL     1      23.671  61.827  39.117  1.00  0.00     0.211 HD
ENDBRANCH   5  21
ENDBRANCH   1   2
BRANCH   1  23
ATOM     23  C   UNL     1      25.458  60.313  39.675  1.00  0.00     0.179 C 
ATOM     24  C   UNL     1      25.189  61.185  40.920  1.00  0.00     0.151 C 
ATOM     25  C   UNL     1      25.974  58.908  40.068  1.00  0.00     0.150 C 
ATOM     26  C   UNL     1      26.095  60.787  42.101  1.00  0.00     0.096 C 
ATOM     27  O   UNL     1      27.175  58.946  40.841  1.00  0.00    -0.347 OA
ATOM     28  C   UNL     1      27.395  60.118  41.630  1.00  0.00     0.253 C 
ATOM     29  C   UNL     1      24.934  58.008  40.756  1.00  0.00     0.041 C 
BRANCH  24  30
ATOM     30  O   UNL     1      25.333  62.543  40.589  1.00  0.00    -0.390 OA
ATOM     31  H   UNL     1      24.779  62.719  39.784  1.00  0.00     0.211 HD
ENDBRANCH  24  30
BRANCH  28  32
ATOM     32  O   UNL     1      28.074  59.700  42.798  1.00  0.00    -0.349 OA
BRANCH  32  33
ATOM     33  C   UNL     1      29.110  60.567  43.221  1.00  0.00     0.121 C 
ATOM     34  C   UNL     1      30.390  60.264  42.394  1.00  0.00     0.033 C 
ATOM     35  C   UNL     1      29.300  60.349  44.751  1.00  0.00     0.036 C 
ATOM     36  C   UNL     1      30.994  58.925  42.829  1.00  0.00     0.010 C 
ATOM     37  C   UNL     1      30.782  60.160  45.097  1.00  0.00    -0.002 C 
ATOM     38  C   UNL     1      31.381  58.889  44.363  1.00  0.00    -0.026 C 
ATOM     39  C   UNL     1      31.069  60.151  46.604  1.00  0.00     0.005 C 
ATOM     40  C   UNL     1      32.942  58.949  44.584  1.00  0.00     0.004 C 
ATOM     41  C   UNL     1      32.588  60.204  46.814  1.00  0.00     0.007 C 
ATOM     42  C   UNL     1      33.309  59.026  46.115  1.00  0.00     0.025 C 
ATOM     43  C   UNL     1      33.730  57.806  43.848  1.00  0.00     0.037 C 
ATOM     44  C   UNL     1      34.861  59.109  46.291  1.00  0.00     0.076 C 
ATOM     45  C   UNL     1      34.634  56.979  44.793  1.00  0.00     0.124 C 
ATOM     46  C   UNL     1      35.244  59.008  47.795  1.00  0.00     0.037 C 
ATOM     47  C   UNL     1      35.620  57.893  45.591  1.00  0.00     0.029 C 
ATOM     48  C   UNL     1      36.549  58.230  47.805  1.00  0.00     0.012 C 
ATOM     49  C   UNL     1      36.222  57.121  46.809  1.00  0.00     0.030 C 
ATOM     50  C   UNL     1      30.804  57.549  44.938  1.00  0.00     0.012 C 
ATOM     51  C   UNL     1      36.728  58.425  44.630  1.00  0.00     0.018 C 
BRANCH  44  52
ATOM     52  O   UNL     1      35.288  60.348  45.752  1.00  0.00    -0.389 OA
ATOM     53  H   UNL     1      36.137  60.219  45.255  1.00  0.00     0.211 HD
ENDBRANCH  44  52
BRANCH  45  54
ATOM     54  O   UNL     1      35.303  55.939  44.122  1.00  0.00    -0.392 OA
ATOM     55  H   UNL     1      35.135  56.030  43.148  1.00  0.00     0.210 HD
ENDBRANCH  45  54
BRANCH  49  56
ATOM     56  C   UNL     1      37.361  56.134  46.609  1.00  0.00    -0.022 C 
ATOM     57  C   UNL     1      37.184  54.820  46.610  1.00  0.00     0.096 C 
ATOM     58  C   UNL     1      38.842  56.434  46.462  1.00  0.00     0.265 C 
ATOM     59  C   UNL     1      38.493  54.238  46.453  1.00  0.00     0.331 C 
ATOM     60  O   UNL     1      39.436  55.190  46.378  1.00  0.00    -0.458 OA
ATOM     61  O   UNL     1      38.731  53.044  46.413  1.00  0.00    -0.247 OA
ENDBRANCH  49  56
ENDBRANCH  32  33
ENDBRANCH  28  32
ENDBRANCH   1  23
TORSDOF 13
ENDMDL
MODEL 5
REMARK VINA RESULT:   -12.407      2.922     16.133
REMARK INTER + INTRA:         -21.506
REMARK INTER:                 -20.729
REMARK INTRA:                  -0.777
REMARK UNBOUND:                -1.846
REMARK SMILES C[C@@H]1O[C@@H](O[C@H]2[C@H](C)O[C@H](O[C@H]3[C@H](O)C[C@@H](O[C@@H]4CC[C@]5(C)[C@H](CC[C@H]6[C@H]5C[C@@H](O)[C@]5(C)[C@@H](C7=CC(=O)OC7)CC[C@]65O)C4)O[C@H]3C)C[C@@H]2O)C[C@H](O)[C@H]1O
REMARK SMILES IDX 11 1 10 2 6 3 7 4 49 5 9 6 48 7 8 8 5 9 4 10 2 11 3 12 54 13
REMARK SMILES IDX 52 14 51 15 1 16 55 17 53 19 50 21 12 23 13 24 46 25 15 26
REMARK SMILES IDX 45 27 16 28 47 29 14 30 17 32 18 33 19 34 44 35 20 36 23 37
REMARK SMILES IDX 21 38 24 39 27 40 25 41 26 42 28 43 42 44 29 45 41 46 31 47
REMARK SMILES IDX 40 48 33 49 22 50 32 51 43 52 30 54 34 56 35 57 39 58 36 59
REMARK SMILES IDX 38 60 37 61
REMARK H PARENT 55 18 53 20 50 22 14 31 43 53 30 55
ROOT
ATOM      1  O   UNL     1      28.461  58.255  43.241  1.00  0.00    -0.344 OA
ENDROOT
BRANCH   1   2
ATOM      2  C   UNL     1      29.316  59.331  43.594  1.00  0.00     0.253 C 
ATOM      3  C   UNL     1      31.735  57.945  44.388  1.00  0.00     0.179 C 
ATOM      4  C   UNL     1      30.475  58.084  45.285  1.00  0.00     0.150 C 
ATOM      5  C   UNL     1      31.389  58.085  42.894  1.00  0.00     0.151 C 
ATOM      6  O   UNL     1      29.680  59.232  44.971  1.00  0.00    -0.347 OA
ATOM      7  C   UNL     1      30.566  59.360  42.696  1.00  0.00     0.096 C 
ATOM      8  C   UNL     1      29.649  56.789  45.384  1.00  0.00     0.041 C 
BRANCH   3   9
ATOM      9  O   UNL     1      32.669  58.968  44.730  1.00  0.00    -0.344 OA
BRANCH   9  10
ATOM     10  C   UNL     1      33.435  58.652  45.890  1.00  0.00     0.253 C 
ATOM     11  C   UNL     1      34.006  59.831  47.895  1.00  0.00     0.149 C 
ATOM     12  O   UNL     1      33.003  59.533  46.936  1.00  0.00    -0.347 OA
ATOM     13  C   UNL     1      35.248  60.523  47.243  1.00  0.00     0.172 C 
ATOM     14  C   UNL     1      35.378  60.197  45.735  1.00  0.00     0.150 C 
ATOM     15  C   UNL     1      34.938  58.762  45.513  1.00  0.00     0.096 C 
ATOM     16  C   UNL     1      34.335  58.585  48.745  1.00  0.00     0.041 C 
BRANCH  13  17
ATOM     17  O   UNL     1      35.221  61.918  47.420  1.00  0.00    -0.388 OA
ATOM     18  H   UNL     1      35.155  62.092  48.395  1.00  0.00     0.211 HD
ENDBRANCH  13  17
BRANCH  14  19
ATOM     19  O   UNL     1      36.685  60.436  45.276  1.00  0.00    -0.390 OA
ATOM     20  H   UNL     1      36.615  60.847  44.375  1.00  0.00     0.211 HD
ENDBRANCH  14  19
ENDBRANCH   9  10
ENDBRANCH   3   9
BRANCH   5  21
ATOM     21  O   UNL     1      30.660  56.976  42.433  1.00  0.00    -0.390 OA
ATOM     22  H   UNL     1      31.251  56.184  42.530  1.00  0.00     0.211 HD
ENDBRANCH   5  21
ENDBRANCH   1   2
BRANCH   1  23
ATOM     23  C   UNL     1      27.100  58.598  43.035  1.00  0.00     0.179 C 
ATOM     24  C   UNL     1      26.900  60.122  43.178  1.00  0.00     0.151 C 
ATOM     25  C   UNL     1      26.645  58.094  41.644  1.00  0.00     0.150 C 
ATOM     26  C   UNL     1      25.738  60.628  42.303  1.00  0.00     0.096 C 
ATOM     27  O   UNL     1      25.274  58.382  41.363  1.00  0.00    -0.347 OA
ATOM     28  C   UNL     1      24.711  59.523  42.012  1.00  0.00     0.253 C 
ATOM     29  C   UNL     1      27.531  58.551  40.473  1.00  0.00     0.041 C 
BRANCH  24  30
ATOM     30  O   UNL     1      26.713  60.452  44.531  1.00  0.00    -0.390 OA
ATOM     31  H   UNL     1      26.775  59.614  45.059  1.00  0.00     0.211 HD
ENDBRANCH  24  30
BRANCH  28  32
ATOM     32  O   UNL     1      23.770  60.080  41.115  1.00  0.00    -0.349 OA
BRANCH  32  33
ATOM     33  C   UNL     1      24.337  60.743  39.999  1.00  0.00     0.121 C 
ATOM     34  C   UNL     1      23.720  62.164  39.891  1.00  0.00     0.033 C 
ATOM     35  C   UNL     1      24.064  59.857  38.748  1.00  0.00     0.036 C 
ATOM     36  C   UNL     1      22.267  62.075  39.413  1.00  0.00     0.010 C 
ATOM     37  C   UNL     1      23.497  60.696  37.597  1.00  0.00    -0.002 C 
ATOM     38  C   UNL     1      22.120  61.367  38.005  1.00  0.00    -0.026 C 
ATOM     39  C   UNL     1      23.402  59.936  36.267  1.00  0.00     0.005 C 
ATOM     40  C   UNL     1      21.774  62.393  36.857  1.00  0.00     0.004 C 
ATOM     41  C   UNL     1      23.060  60.937  35.155  1.00  0.00     0.007 C 
ATOM     42  C   UNL     1      21.741  61.694  35.446  1.00  0.00     0.025 C 
ATOM     43  C   UNL     1      20.472  63.230  37.129  1.00  0.00     0.037 C 
ATOM     44  C   UNL     1      21.420  62.747  34.334  1.00  0.00     0.076 C 
ATOM     45  C   UNL     1      19.433  63.132  35.987  1.00  0.00     0.124 C 
ATOM     46  C   UNL     1      21.211  62.042  32.963  1.00  0.00     0.037 C 
ATOM     47  C   UNL     1      20.054  63.525  34.608  1.00  0.00     0.029 C 
ATOM     48  C   UNL     1      20.123  62.854  32.279  1.00  0.00     0.012 C 
ATOM     49  C   UNL     1      19.144  63.038  33.435  1.00  0.00     0.030 C 
ATOM     50  C   UNL     1      20.970  60.312  38.154  1.00  0.00     0.012 C 
ATOM     51  C   UNL     1      20.290  65.067  34.565  1.00  0.00     0.018 C 
BRANCH  44  52
ATOM     52  O   UNL     1      22.511  63.648  34.269  1.00  0.00    -0.389 OA
ATOM     53  H   UNL     1      22.265  64.499  34.716  1.00  0.00     0.211 HD
ENDBRANCH  44  52
BRANCH  45  54
ATOM     54  O   UNL     1      18.260  63.859  36.265  1.00  0.00    -0.392 OA
ATOM     55  H   UNL     1      17.482  63.247  36.191  1.00  0.00     0.210 HD
ENDBRANCH  45  54
BRANCH  49  56
ATOM     56  C   UNL     1      17.898  63.821  33.052  1.00  0.00    -0.022 C 
ATOM     57  C   UNL     1      17.551  64.053  31.793  1.00  0.00     0.096 C 
ATOM     58  C   UNL     1      16.914  64.520  33.973  1.00  0.00     0.265 C 
ATOM     59  C   UNL     1      16.363  64.865  31.847  1.00  0.00     0.331 C 
ATOM     60  O   UNL     1      16.018  65.130  33.116  1.00  0.00    -0.458 OA
ATOM     61  O   UNL     1      15.753  65.283  30.878  1.00  0.00    -0.247 OA
ENDBRANCH  49  56
ENDBRANCH  32  33
ENDBRANCH  28  32
ENDBRANCH   1  23
TORSDOF 13
ENDMDL
MODEL 6
REMARK VINA RESULT:   -12.361      2.823      3.960
REMARK INTER + INTRA:         -21.433
REMARK INTER:                 -19.882
REMARK INTRA:                  -1.551
REMARK UNBOUND:                -1.846
REMARK SMILES C[C@@H]1O[C@@H](O[C@H]2[C@H](C)O[C@H](O[C@H]3[C@H](O)C[C@@H](O[C@@H]4CC[C@]5(C)[C@H](CC[C@H]6[C@H]5C[C@@H](O)[C@]5(C)[C@@H](C7=CC(=O)OC7)CC[C@]65O)C4)O[C@H]3C)C[C@@H]2O)C[C@H](O)[C@H]1O
REMARK SMILES IDX 11 1 10 2 6 3 7 4 49 5 9 6 48 7 8 8 5 9 4 10 2 11 3 12 54 13
REMARK SMILES IDX 52 14 51 15 1 16 55 17 53 19 50 21 12 23 13 24 46 25 15 26
REMARK SMILES IDX 45 27 16 28 47 29 14 30 17 32 18 33 19 34 44 35 20 36 23 37
REMARK SMILES IDX 21 38 24 39 27 40 25 41 26 42 28 43 42 44 29 45 41 46 31 47
REMARK SMILES IDX 40 48 33 49 22 50 32 51 43 52 30 54 34 56 35 57 39 58 36 59
REMARK SMILES IDX 38 60 37 61
REMARK H PARENT 55 18 53 20 50 22 14 31 43 53 30 55
ROOT
ATOM      1  O   UNL     1      20.871  62.667  35.317  1.00  0.00    -0.344 OA
ENDROOT
BRANCH   1   2
ATOM      2  C   UNL     1      20.954  62.235  33.968  1.00  0.00     0.253 C 
ATOM      3  C   UNL     1      18.740  63.649  32.744  1.00  0.00     0.179 C 
ATOM      4  C   UNL     1      18.586  62.363  33.600  1.00  0.00     0.150 C 
ATOM      5  C   UNL     1      20.038  64.406  33.080  1.00  0.00     0.151 C 
ATOM      6  O   UNL     1      19.760  61.542  33.604  1.00  0.00    -0.347 OA
ATOM      7  C   UNL     1      21.210  63.423  33.022  1.00  0.00     0.096 C 
ATOM      8  C   UNL     1      18.033  62.629  35.010  1.00  0.00     0.041 C 
BRANCH   3   9
ATOM      9  O   UNL     1      18.772  63.293  31.362  1.00  0.00    -0.344 OA
BRANCH   9  10
ATOM     10  C   UNL     1      17.596  63.688  30.661  1.00  0.00     0.253 C 
ATOM     11  C   UNL     1      16.213  62.665  28.996  1.00  0.00     0.149 C 
ATOM     12  O   UNL     1      16.962  62.492  30.188  1.00  0.00    -0.347 OA
ATOM     13  C   UNL     1      17.106  63.167  27.814  1.00  0.00     0.172 C 
ATOM     14  C   UNL     1      18.374  63.905  28.309  1.00  0.00     0.150 C 
ATOM     15  C   UNL     1      18.016  64.694  29.554  1.00  0.00     0.096 C 
ATOM     16  C   UNL     1      14.954  63.519  29.261  1.00  0.00     0.041 C 
BRANCH  13  17
ATOM     17  O   UNL     1      17.480  62.115  26.958  1.00  0.00    -0.388 OA
ATOM     18  H   UNL     1      17.708  61.336  27.529  1.00  0.00     0.211 HD
ENDBRANCH  13  17
BRANCH  14  19
ATOM     19  O   UNL     1      18.916  64.715  27.296  1.00  0.00    -0.390 OA
ATOM     20  H   UNL     1      18.304  64.669  26.515  1.00  0.00     0.211 HD
ENDBRANCH  14  19
ENDBRANCH   9  10
ENDBRANCH   3   9
BRANCH   5  21
ATOM     21  O   UNL     1      19.973  64.990  34.356  1.00  0.00    -0.390 OA
ATOM     22  H   UNL     1      19.875  65.968  34.219  1.00  0.00     0.211 HD
ENDBRANCH   5  21
ENDBRANCH   1   2
BRANCH   1  23
ATOM     23  C   UNL     1      21.913  62.215  36.168  1.00  0.00     0.179 C 
ATOM     24  C   UNL     1      22.076  63.165  37.373  1.00  0.00     0.151 C 
ATOM     25  C   UNL     1      21.613  60.767  36.624  1.00  0.00     0.150 C 
ATOM     26  C   UNL     1      22.594  62.421  38.619  1.00  0.00     0.096 C 
ATOM     27  O   UNL     1      22.626  60.224  37.472  1.00  0.00    -0.347 OA
ATOM     28  C   UNL     1      23.382  61.156  38.249  1.00  0.00     0.253 C 
ATOM     29  C   UNL     1      20.228  60.565  37.262  1.00  0.00     0.041 C 
BRANCH  24  30
ATOM     30  O   UNL     1      22.914  64.238  37.023  1.00  0.00    -0.390 OA
ATOM     31  H   UNL     1      23.691  64.228  37.641  1.00  0.00     0.211 HD
ENDBRANCH  24  30
BRANCH  28  32
ATOM     32  O   UNL     1      23.696  60.511  39.468  1.00  0.00    -0.349 OA
BRANCH  32  33
ATOM     33  C   UNL     1      24.884  60.967  40.089  1.00  0.00     0.121 C 
ATOM     34  C   UNL     1      26.090  60.176  39.511  1.00  0.00     0.033 C 
ATOM     35  C   UNL     1      24.704  60.780  41.624  1.00  0.00     0.036 C 
ATOM     36  C   UNL     1      26.075  58.735  40.033  1.00  0.00     0.010 C 
ATOM     37  C   UNL     1      25.926  60.087  42.238  1.00  0.00    -0.002 C 
ATOM     38  C   UNL     1      26.140  58.647  41.612  1.00  0.00    -0.026 C 
ATOM     39  C   UNL     1      25.915  60.059  43.772  1.00  0.00     0.005 C 
ATOM     40  C   UNL     1      27.549  58.151  42.122  1.00  0.00     0.004 C 
ATOM     41  C   UNL     1      27.285  59.571  44.262  1.00  0.00     0.007 C 
ATOM     42  C   UNL     1      27.638  58.175  43.694  1.00  0.00     0.025 C 
ATOM     43  C   UNL     1      27.982  56.761  41.529  1.00  0.00     0.037 C 
ATOM     44  C   UNL     1      29.055  57.701  44.158  1.00  0.00     0.076 C 
ATOM     45  C   UNL     1      28.336  55.718  42.615  1.00  0.00     0.124 C 
ATOM     46  C   UNL     1      29.098  57.552  45.707  1.00  0.00     0.037 C 
ATOM     47  C   UNL     1      29.428  56.256  43.596  1.00  0.00     0.029 C 
ATOM     48  C   UNL     1      30.005  56.357  45.949  1.00  0.00     0.012 C 
ATOM     49  C   UNL     1      29.478  55.388  44.894  1.00  0.00     0.030 C 
ATOM     50  C   UNL     1      25.021  57.641  42.050  1.00  0.00     0.012 C 
ATOM     51  C   UNL     1      30.807  56.296  42.867  1.00  0.00     0.018 C 
BRANCH  44  52
ATOM     52  O   UNL     1      29.994  58.670  43.726  1.00  0.00    -0.389 OA
ATOM     53  H   UNL     1      30.908  58.382  43.982  1.00  0.00     0.211 HD
ENDBRANCH  44  52
BRANCH  45  54
ATOM     54  O   UNL     1      28.688  54.470  42.067  1.00  0.00    -0.392 OA
ATOM     55  H   UNL     1      27.911  54.117  41.560  1.00  0.00     0.210 HD
ENDBRANCH  45  54
BRANCH  49  56
ATOM     56  C   UNL     1      30.193  54.046  44.897  1.00  0.00    -0.022 C 
ATOM     57  C   UNL     1      29.550  52.886  44.919  1.00  0.00     0.096 C 
ATOM     58  C   UNL     1      31.688  53.785  44.957  1.00  0.00     0.265 C 
ATOM     59  C   UNL     1      30.565  51.865  44.974  1.00  0.00     0.331 C 
ATOM     60  O   UNL     1      31.792  52.408  45.004  1.00  0.00    -0.458 OA
ATOM     61  O   UNL     1      30.354  50.666  45.011  1.00  0.00    -0.247 OA
ENDBRANCH  49  56
ENDBRANCH  32  33
ENDBRANCH  28  32
ENDBRANCH   1  23
TORSDOF 13
ENDMDL
MODEL 7
REMARK VINA RESULT:   -12.259      5.826      8.492
REMARK INTER + INTRA:         -21.271
REMARK INTER:                 -19.957
REMARK INTRA:                  -1.314
REMARK UNBOUND:                -1.846
REMARK SMILES C[C@@H]1O[C@@H](O[C@H]2[C@H](C)O[C@H](O[C@H]3[C@H](O)C[C@@H](O[C@@H]4CC[C@]5(C)[C@H](CC[C@H]6[C@H]5C[C@@H](O)[C@]5(C)[C@@H](C7=CC(=O)OC7)CC[C@]65O)C4)O[C@H]3C)C[C@@H]2O)C[C@H](O)[C@H]1O
REMARK SMILES IDX 11 1 10 2 6 3 7 4 49 5 9 6 48 7 8 8 5 9 4 10 2 11 3 12 54 13
REMARK SMILES IDX 52 14 51 15 1 16 55 17 53 19 50 21 12 23 13 24 46 25 15 26
REMARK SMILES IDX 45 27 16 28 47 29 14 30 17 32 18 33 19 34 44 35 20 36 23 37
REMARK SMILES IDX 21 38 24 39 27 40 25 41 26 42 28 43 42 44 29 45 41 46 31 47
REMARK SMILES IDX 40 48 33 49 22 50 32 51 43 52 30 54 34 56 35 57 39 58 36 59
REMARK SMILES IDX 38 60 37 61
REMARK H PARENT 55 18 53 20 50 22 14 31 43 53 30 55
ROOT
ATOM      1  O   UNL     1      24.813  60.428  40.406  1.00  0.00    -0.344 OA
ENDROOT
BRANCH   1   2
ATOM      2  C   UNL     1      24.908  60.420  38.990  1.00  0.00     0.253 C 
ATOM      3  C   UNL     1      22.578  61.963  38.220  1.00  0.00     0.179 C 
ATOM      4  C   UNL     1      22.532  60.474  38.657  1.00  0.00     0.150 C 
ATOM      5  C   UNL     1      23.821  62.682  38.775  1.00  0.00     0.151 C 
ATOM      6  O   UNL     1      23.763  59.779  38.428  1.00  0.00    -0.347 OA
ATOM      7  C   UNL     1      25.061  61.851  38.440  1.00  0.00     0.096 C 
ATOM      8  C   UNL     1      21.981  60.269  40.078  1.00  0.00     0.041 C 
BRANCH   3   9
ATOM      9  O   UNL     1      22.616  62.034  36.796  1.00  0.00    -0.344 OA
BRANCH   9  10
ATOM     10  C   UNL     1      21.471  62.676  36.242  1.00  0.00     0.253 C 
ATOM     11  C   UNL     1      19.316  61.928  35.514  1.00  0.00     0.149 C 
ATOM     12  O   UNL     1      20.345  61.821  36.484  1.00  0.00    -0.347 OA
ATOM     13  C   UNL     1      19.825  61.563  34.080  1.00  0.00     0.172 C 
ATOM     14  C   UNL     1      21.354  61.756  33.934  1.00  0.00     0.150 C 
ATOM     15  C   UNL     1      21.766  62.970  34.745  1.00  0.00     0.096 C 
ATOM     16  C   UNL     1      18.608  63.296  35.618  1.00  0.00     0.041 C 
BRANCH  13  17
ATOM     17  O   UNL     1      19.482  60.247  33.724  1.00  0.00    -0.388 OA
ATOM     18  H   UNL     1      19.468  60.201  32.733  1.00  0.00     0.211 HD
ENDBRANCH  13  17
BRANCH  14  19
ATOM     19  O   UNL     1      21.724  61.861  32.583  1.00  0.00    -0.390 OA
ATOM     20  H   UNL     1      22.501  61.260  32.437  1.00  0.00     0.211 HD
ENDBRANCH  14  19
ENDBRANCH   9  10
ENDBRANCH   3   9
BRANCH   5  21
ATOM     21  O   UNL     1      23.731  62.857  40.166  1.00  0.00    -0.390 OA
ATOM     22  H   UNL     1      22.993  62.273  40.481  1.00  0.00     0.211 HD
ENDBRANCH   5  21
ENDBRANCH   1   2
BRANCH   1  23
ATOM     23  C   UNL     1      25.979  60.011  41.098  1.00  0.00     0.179 C 
ATOM     24  C   UNL     1      25.763  60.103  42.624  1.00  0.00     0.151 C 
ATOM     25  C   UNL     1      26.348  58.572  40.664  1.00  0.00     0.150 C 
ATOM     26  C   UNL     1      26.597  59.052  43.382  1.00  0.00     0.096 C 
ATOM     27  O   UNL     1      27.528  58.078  41.301  1.00  0.00    -0.347 OA
ATOM     28  C   UNL     1      27.838  58.619  42.587  1.00  0.00     0.253 C 
ATOM     29  C   UNL     1      25.210  57.547  40.795  1.00  0.00     0.041 C 
BRANCH  24  30
ATOM     30  O   UNL     1      26.044  61.407  43.066  1.00  0.00    -0.390 OA
ATOM     31  H   UNL     1      25.195  61.806  43.389  1.00  0.00     0.211 HD
ENDBRANCH  24  30
BRANCH  28  32
ATOM     32  O   UNL     1      28.445  57.580  43.331  1.00  0.00    -0.349 OA
BRANCH  32  33
ATOM     33  C   UNL     1      29.212  56.672  42.562  1.00  0.00     0.121 C 
ATOM     34  C   UNL     1      28.509  55.288  42.568  1.00  0.00     0.033 C 
ATOM     35  C   UNL     1      30.642  56.639  43.177  1.00  0.00     0.036 C 
ATOM     36  C   UNL     1      28.651  54.629  43.944  1.00  0.00     0.010 C 
ATOM     37  C   UNL     1      31.116  55.196  43.381  1.00  0.00    -0.002 C 
ATOM     38  C   UNL     1      30.159  54.415  44.376  1.00  0.00    -0.026 C 
ATOM     39  C   UNL     1      32.592  55.081  43.784  1.00  0.00     0.005 C 
ATOM     40  C   UNL     1      30.590  52.900  44.302  1.00  0.00     0.004 C 
ATOM     41  C   UNL     1      33.005  53.604  43.716  1.00  0.00     0.007 C 
ATOM     42  C   UNL     1      32.121  52.715  44.625  1.00  0.00     0.025 C 
ATOM     43  C   UNL     1      29.688  51.944  45.164  1.00  0.00     0.037 C 
ATOM     44  C   UNL     1      32.514  51.205  44.518  1.00  0.00     0.076 C 
ATOM     45  C   UNL     1      30.493  51.088  46.171  1.00  0.00     0.124 C 
ATOM     46  C   UNL     1      33.976  50.987  45.004  1.00  0.00     0.037 C 
ATOM     47  C   UNL     1      31.625  50.275  45.461  1.00  0.00     0.029 C 
ATOM     48  C   UNL     1      33.951  49.632  45.691  1.00  0.00     0.012 C 
ATOM     49  C   UNL     1      32.665  49.754  46.503  1.00  0.00     0.030 C 
ATOM     50  C   UNL     1      30.281  54.943  45.847  1.00  0.00     0.012 C 
ATOM     51  C   UNL     1      30.990  49.113  44.636  1.00  0.00     0.018 C 
BRANCH  44  52
ATOM     52  O   UNL     1      32.380  50.822  43.160  1.00  0.00    -0.389 OA
ATOM     53  H   UNL     1      33.263  50.877  42.711  1.00  0.00     0.211 HD
ENDBRANCH  44  52
BRANCH  45  54
ATOM     54  O   UNL     1      29.665  50.264  46.957  1.00  0.00    -0.392 OA
ATOM     55  H   UNL     1      30.232  49.780  47.613  1.00  0.00     0.210 HD
ENDBRANCH  45  54
BRANCH  49  56
ATOM     56  C   UNL     1      32.362  48.523  47.344  1.00  0.00    -0.022 C 
ATOM     57  C   UNL     1      32.020  48.590  48.623  1.00  0.00     0.096 C 
ATOM     58  C   UNL     1      32.469  47.064  46.935  1.00  0.00     0.265 C 
ATOM     59  C   UNL     1      31.878  47.229  49.072  1.00  0.00     0.331 C 
ATOM     60  O   UNL     1      32.151  46.364  48.083  1.00  0.00    -0.458 OA
ATOM     61  O   UNL     1      31.574  46.890  50.203  1.00  0.00    -0.247 OA
ENDBRANCH  49  56
ENDBRANCH  32  33
ENDBRANCH  28  32
ENDBRANCH   1  23
TORSDOF 13
ENDMDL
MODEL 8
REMARK VINA RESULT:   -12.237      1.472      2.037
REMARK INTER + INTRA:         -21.236
REMARK INTER:                 -19.761
REMARK INTRA:                  -1.475
REMARK UNBOUND:                -1.846
REMARK SMILES C[C@@H]1O[C@@H](O[C@H]2[C@H](C)O[C@H](O[C@H]3[C@H](O)C[C@@H](O[C@@H]4CC[C@]5(C)[C@H](CC[C@H]6[C@H]5C[C@@H](O)[C@]5(C)[C@@H](C7=CC(=O)OC7)CC[C@]65O)C4)O[C@H]3C)C[C@@H]2O)C[C@H](O)[C@H]1O
REMARK SMILES IDX 11 1 10 2 6 3 7 4 49 5 9 6 48 7 8 8 5 9 4 10 2 11 3 12 54 13
REMARK SMILES IDX 52 14 51 15 1 16 55 17 53 19 50 21 12 23 13 24 46 25 15 26
REMARK SMILES IDX 45 27 16 28 47 29 14 30 17 32 18 33 19 34 44 35 20 36 23 37
REMARK SMILES IDX 21 38 24 39 27 40 25 41 26 42 28 43 42 44 29 45 41 46 31 47
REMARK SMILES IDX 40 48 33 49 22 50 32 51 43 52 30 54 34 56 35 57 39 58 36 59
REMARK SMILES IDX 38 60 37 61
REMARK H PARENT 55 18 53 20 50 22 14 31 43 53 30 55
ROOT
ATOM      1  O   UNL     1      20.724  62.150  35.291  1.00  0.00    -0.344 OA
ENDROOT
BRANCH   1   2
ATOM      2  C   UNL     1      20.619  61.642  33.970  1.00  0.00     0.253 C 
ATOM      3  C   UNL     1      19.009  63.671  32.669  1.00  0.00     0.179 C 
ATOM      4  C   UNL     1      18.437  62.568  33.601  1.00  0.00     0.150 C 
ATOM      5  C   UNL     1      20.496  63.944  32.956  1.00  0.00     0.151 C 
ATOM      6  O   UNL     1      19.251  61.391  33.651  1.00  0.00    -0.347 OA
ATOM      7  C   UNL     1      21.251  62.612  32.954  1.00  0.00     0.096 C 
ATOM      8  C   UNL     1      18.043  63.088  34.994  1.00  0.00     0.041 C 
BRANCH   3   9
ATOM      9  O   UNL     1      18.883  63.250  31.311  1.00  0.00    -0.344 OA
BRANCH   9  10
ATOM     10  C   UNL     1      17.714  63.766  30.678  1.00  0.00     0.253 C 
ATOM     11  C   UNL     1      16.206  62.940  29.012  1.00  0.00     0.149 C 
ATOM     12  O   UNL     1      16.981  62.646  30.164  1.00  0.00    -0.347 OA
ATOM     13  C   UNL     1      17.093  63.446  27.826  1.00  0.00     0.172 C 
ATOM     14  C   UNL     1      18.426  64.064  28.313  1.00  0.00     0.150 C 
ATOM     15  C   UNL     1      18.168  64.803  29.614  1.00  0.00     0.096 C 
ATOM     16  C   UNL     1      15.022  63.862  29.371  1.00  0.00     0.041 C 
BRANCH  13  17
ATOM     17  O   UNL     1      17.361  62.422  26.901  1.00  0.00    -0.388 OA
ATOM     18  H   UNL     1      18.140  61.910  27.242  1.00  0.00     0.211 HD
ENDBRANCH  13  17
BRANCH  14  19
ATOM     19  O   UNL     1      18.990  64.892  27.328  1.00  0.00    -0.390 OA
ATOM     20  H   UNL     1      18.351  64.934  26.569  1.00  0.00     0.211 HD
ENDBRANCH  14  19
ENDBRANCH   9  10
ENDBRANCH   3   9
BRANCH   5  21
ATOM     21  O   UNL     1      20.668  64.584  34.195  1.00  0.00    -0.390 OA
ATOM     22  H   UNL     1      21.550  65.037  34.163  1.00  0.00     0.211 HD
ENDBRANCH   5  21
ENDBRANCH   1   2
BRANCH   1  23
ATOM     23  C   UNL     1      21.834  61.681  36.039  1.00  0.00     0.179 C 
ATOM     24  C   UNL     1      22.666  62.866  36.573  1.00  0.00     0.151 C 
ATOM     25  C   UNL     1      21.334  60.775  37.190  1.00  0.00     0.150 C 
ATOM     26  C   UNL     1      23.368  62.518  37.900  1.00  0.00     0.096 C 
ATOM     27  O   UNL     1      22.394  60.240  37.986  1.00  0.00    -0.347 OA
ATOM     28  C   UNL     1      23.598  61.007  38.050  1.00  0.00     0.253 C 
ATOM     29  C   UNL     1      20.266  61.413  38.094  1.00  0.00     0.041 C 
BRANCH  24  30
ATOM     30  O   UNL     1      23.583  63.284  35.594  1.00  0.00    -0.390 OA
ATOM     31  H   UNL     1      24.443  63.480  36.050  1.00  0.00     0.211 HD
ENDBRANCH  24  30
BRANCH  28  32
ATOM     32  O   UNL     1      24.136  60.813  39.344  1.00  0.00    -0.349 OA
BRANCH  32  33
ATOM     33  C   UNL     1      24.999  59.698  39.465  1.00  0.00     0.121 C 
ATOM     34  C   UNL     1      24.473  58.774  40.598  1.00  0.00     0.033 C 
ATOM     35  C   UNL     1      26.430  60.248  39.734  1.00  0.00     0.036 C 
ATOM     36  C   UNL     1      24.717  59.424  41.964  1.00  0.00     0.010 C 
ATOM     37  C   UNL     1      27.083  59.521  40.915  1.00  0.00    -0.002 C 
ATOM     38  C   UNL     1      26.245  59.725  42.245  1.00  0.00    -0.026 C 
ATOM     39  C   UNL     1      28.568  59.859  41.105  1.00  0.00     0.005 C 
ATOM     40  C   UNL     1      26.860  58.735  43.308  1.00  0.00     0.004 C 
ATOM     41  C   UNL     1      29.160  58.897  42.144  1.00  0.00     0.007 C 
ATOM     42  C   UNL     1      28.406  58.972  43.495  1.00  0.00     0.025 C 
ATOM     43  C   UNL     1      26.097  58.729  44.682  1.00  0.00     0.037 C 
ATOM     44  C   UNL     1      28.983  57.957  44.537  1.00  0.00     0.076 C 
ATOM     45  C   UNL     1      27.016  59.016  45.893  1.00  0.00     0.124 C 
ATOM     46  C   UNL     1      30.467  58.293  44.860  1.00  0.00     0.037 C 
ATOM     47  C   UNL     1      28.229  58.031  45.941  1.00  0.00     0.029 C 
ATOM     48  C   UNL     1      30.620  57.959  46.335  1.00  0.00     0.012 C 
ATOM     49  C   UNL     1      29.341  58.574  46.895  1.00  0.00     0.030 C 
ATOM     50  C   UNL     1      26.322  61.200  42.769  1.00  0.00     0.012 C 
ATOM     51  C   UNL     1      27.733  56.614  46.367  1.00  0.00     0.018 C 
BRANCH  44  52
ATOM     52  O   UNL     1      28.878  56.660  43.976  1.00  0.00    -0.389 OA
ATOM     53  H   UNL     1      29.462  56.596  43.176  1.00  0.00     0.211 HD
ENDBRANCH  44  52
BRANCH  45  54
ATOM     54  O   UNL     1      26.308  59.041  47.110  1.00  0.00    -0.392 OA
ATOM     55  H   UNL     1      26.644  59.798  47.656  1.00  0.00     0.210 HD
ENDBRANCH  45  54
BRANCH  49  56
ATOM     56  C   UNL     1      29.206  58.417  48.402  1.00  0.00    -0.022 C 
ATOM     57  C   UNL     1      29.690  57.376  49.065  1.00  0.00     0.096 C 
ATOM     58  C   UNL     1      28.465  59.321  49.372  1.00  0.00     0.265 C 
ATOM     59  C   UNL     1      29.311  57.565  50.442  1.00  0.00     0.331 C 
ATOM     60  O   UNL     1      28.597  58.690  50.594  1.00  0.00    -0.458 OA
ATOM     61  O   UNL     1      29.578  56.803  51.355  1.00  0.00    -0.247 OA
ENDBRANCH  49  56
ENDBRANCH  32  33
ENDBRANCH  28  32
ENDBRANCH   1  23
TORSDOF 13
ENDMDL
MODEL 9
REMARK VINA RESULT:   -12.042      1.953      2.478
REMARK INTER + INTRA:         -20.928
REMARK INTER:                 -19.857
REMARK INTRA:                  -1.071
REMARK UNBOUND:                -1.846
REMARK SMILES C[C@@H]1O[C@@H](O[C@H]2[C@H](C)O[C@H](O[C@H]3[C@H](O)C[C@@H](O[C@@H]4CC[C@]5(C)[C@H](CC[C@H]6[C@H]5C[C@@H](O)[C@]5(C)[C@@H](C7=CC(=O)OC7)CC[C@]65O)C4)O[C@H]3C)C[C@@H]2O)C[C@H](O)[C@H]1O
REMARK SMILES IDX 11 1 10 2 6 3 7 4 49 5 9 6 48 7 8 8 5 9 4 10 2 11 3 12 54 13
REMARK SMILES IDX 52 14 51 15 1 16 55 17 53 19 50 21 12 23 13 24 46 25 15 26
REMARK SMILES IDX 45 27 16 28 47 29 14 30 17 32 18 33 19 34 44 35 20 36 23 37
REMARK SMILES IDX 21 38 24 39 27 40 25 41 26 42 28 43 42 44 29 45 41 46 31 47
REMARK SMILES IDX 40 48 33 49 22 50 32 51 43 52 30 54 34 56 35 57 39 58 36 59
REMARK SMILES IDX 38 60 37 61
REMARK H PARENT 55 18 53 20 50 22 14 31 43 53 30 55
ROOT
ATOM      1  O   UNL     1      20.494  62.609  35.362  1.00  0.00    -0.344 OA
ENDROOT
BRANCH   1   2
ATOM      2  C   UNL     1      20.593  62.824  33.963  1.00  0.00     0.253 C 
ATOM      3  C   UNL     1      18.289  64.506  33.447  1.00  0.00     0.179 C 
ATOM      4  C   UNL     1      18.219  62.968  33.642  1.00  0.00     0.150 C 
ATOM      5  C   UNL     1      19.542  65.109  34.109  1.00  0.00     0.151 C 
ATOM      6  O   UNL     1      19.440  62.298  33.306  1.00  0.00    -0.347 OA
ATOM      7  C   UNL     1      20.770  64.321  33.646  1.00  0.00     0.096 C 
ATOM      8  C   UNL     1      17.661  62.549  35.013  1.00  0.00     0.041 C 
BRANCH   3   9
ATOM      9  O   UNL     1      18.333  64.801  32.051  1.00  0.00    -0.344 OA
BRANCH   9  10
ATOM     10  C   UNL     1      17.489  63.951  31.279  1.00  0.00     0.253 C 
ATOM     11  C   UNL     1      16.993  63.751  28.945  1.00  0.00     0.149 C 
ATOM     12  O   UNL     1      17.987  63.965  29.935  1.00  0.00    -0.347 OA
ATOM     13  C   UNL     1      15.875  64.844  28.995  1.00  0.00     0.172 C 
ATOM     14  C   UNL     1      15.764  65.507  30.389  1.00  0.00     0.150 C 
ATOM     15  C   UNL     1      16.027  64.452  31.447  1.00  0.00     0.096 C 
ATOM     16  C   UNL     1      16.476  62.297  28.998  1.00  0.00     0.041 C 
BRANCH  13  17
ATOM     17  O   UNL     1      16.072  65.836  28.018  1.00  0.00    -0.388 OA
ATOM     18  H   UNL     1      16.744  65.491  27.375  1.00  0.00     0.211 HD
ENDBRANCH  13  17
BRANCH  14  19
ATOM     19  O   UNL     1      14.517  66.134  30.554  1.00  0.00    -0.390 OA
ATOM     20  H   UNL     1      14.688  67.073  30.830  1.00  0.00     0.211 HD
ENDBRANCH  14  19
ENDBRANCH   9  10
ENDBRANCH   3   9
BRANCH   5  21
ATOM     21  O   UNL     1      19.451  65.062  35.510  1.00  0.00    -0.390 OA
ATOM     22  H   UNL     1      20.311  64.694  35.840  1.00  0.00     0.211 HD
ENDBRANCH   5  21
ENDBRANCH   1   2
BRANCH   1  23
ATOM     23  C   UNL     1      21.376  61.633  35.893  1.00  0.00     0.179 C 
ATOM     24  C   UNL     1      22.778  61.773  35.266  1.00  0.00     0.151 C 
ATOM     25  C   UNL     1      21.428  61.770  37.434  1.00  0.00     0.150 C 
ATOM     26  C   UNL     1      23.885  61.318  36.236  1.00  0.00     0.096 C 
ATOM     27  O   UNL     1      22.281  60.807  38.056  1.00  0.00    -0.347 OA
ATOM     28  C   UNL     1      23.365  60.308  37.270  1.00  0.00     0.253 C 
ATOM     29  C   UNL     1      21.766  63.180  37.945  1.00  0.00     0.041 C 
BRANCH  24  30
ATOM     30  O   UNL     1      22.829  61.067  34.052  1.00  0.00    -0.390 OA
ATOM     31  H   UNL     1      22.940  61.730  33.321  1.00  0.00     0.211 HD
ENDBRANCH  24  30
BRANCH  28  32
ATOM     32  O   UNL     1      24.436  60.063  38.161  1.00  0.00    -0.349 OA
BRANCH  32  33
ATOM     33  C   UNL     1      24.091  60.127  39.532  1.00  0.00     0.121 C 
ATOM     34  C   UNL     1      24.892  61.278  40.201  1.00  0.00     0.033 C 
ATOM     35  C   UNL     1      24.389  58.730  40.150  1.00  0.00     0.036 C 
ATOM     36  C   UNL     1      26.367  60.884  40.336  1.00  0.00     0.010 C 
ATOM     37  C   UNL     1      25.187  58.866  41.451  1.00  0.00    -0.002 C 
ATOM     38  C   UNL     1      26.583  59.572  41.194  1.00  0.00    -0.026 C 
ATOM     39  C   UNL     1      25.336  57.549  42.226  1.00  0.00     0.005 C 
ATOM     40  C   UNL     1      27.187  59.885  42.617  1.00  0.00     0.004 C 
ATOM     41  C   UNL     1      25.929  57.859  43.607  1.00  0.00     0.007 C 
ATOM     42  C   UNL     1      27.292  58.586  43.501  1.00  0.00     0.025 C 
ATOM     43  C   UNL     1      28.545  60.674  42.568  1.00  0.00     0.037 C 
ATOM     44  C   UNL     1      27.870  58.941  44.911  1.00  0.00     0.076 C 
ATOM     45  C   UNL     1      29.687  59.972  43.341  1.00  0.00     0.124 C 
ATOM     46  C   UNL     1      28.143  57.646  45.729  1.00  0.00     0.037 C 
ATOM     47  C   UNL     1      29.284  59.676  44.822  1.00  0.00     0.029 C 
ATOM     48  C   UNL     1      29.397  57.958  46.529  1.00  0.00     0.012 C 
ATOM     49  C   UNL     1      30.252  58.628  45.457  1.00  0.00     0.030 C 
ATOM     50  C   UNL     1      27.563  58.661  40.378  1.00  0.00     0.012 C 
ATOM     51  C   UNL     1      29.254  61.010  45.629  1.00  0.00     0.018 C 
BRANCH  44  52
ATOM     52  O   UNL     1      26.918  59.756  45.572  1.00  0.00    -0.389 OA
ATOM     53  H   UNL     1      26.074  59.768  45.052  1.00  0.00     0.211 HD
ENDBRANCH  44  52
BRANCH  45  54
ATOM     54  O   UNL     1      30.904  60.675  43.256  1.00  0.00    -0.392 OA
ATOM     55  H   UNL     1      31.523  60.321  43.946  1.00  0.00     0.210 HD
ENDBRANCH  45  54
BRANCH  49  56
ATOM     56  C   UNL     1      31.624  59.052  45.958  1.00  0.00    -0.022 C 
ATOM     57  C   UNL     1      32.731  58.902  45.243  1.00  0.00     0.096 C 
ATOM     58  C   UNL     1      31.988  59.616  47.320  1.00  0.00     0.265 C 
ATOM     59  C   UNL     1      33.813  59.362  46.075  1.00  0.00     0.331 C 
ATOM     60  O   UNL     1      33.361  59.761  47.274  1.00  0.00    -0.458 OA
ATOM     61  O   UNL     1      34.989  59.373  45.757  1.00  0.00    -0.247 OA
ENDBRANCH  49  56
ENDBRANCH  32  33
ENDBRANCH  28  32
ENDBRANCH   1  23
TORSDOF 13
ENDMDL
