REMARK SMILES C[C@H](CC[C@@H]1C(C(=O)O)=CC(=O)CC1(C)C)O[C@@H]1O[C@H](CO)[C@@H](O)[C@H](O)[C@H]1O
REMARK SMILES IDX 1 1 2 2 3 3 4 4 5 5 6 6 14 7 10 8 13 9 11 10 12 11 15 12
REMARK SMILES IDX 16 13 7 14 8 15 9 16 17 18 18 19 19 20 27 21 20 22 25 23
REMARK SMILES IDX 23 24 28 25 21 27 22 28 26 30 24 32
REMARK H PARENT 9 17 28 26 22 29 26 31 24 33
ROOT
ATOM      1  C   UNL     1       0.409  -1.276   2.390  1.00  0.00     0.038 C 
ATOM      2  C   UNL     1       0.488  -0.416   1.121  1.00  0.00     0.118 C 
ENDROOT
BRANCH   2   3
ATOM      3  C   UNL     1      -0.604  -0.786   0.096  1.00  0.00     0.032 C 
BRANCH   3   4
ATOM      4  C   UNL     1      -2.030  -0.452   0.585  1.00  0.00     0.012 C 
BRANCH   4   5
ATOM      5  C   UNL     1      -3.146  -0.816  -0.441  1.00  0.00     0.033 C 
ATOM      6  C   UNL     1      -2.892  -0.093  -1.774  1.00  0.00     0.044 C 
ATOM      7  C   UNL     1      -4.587  -0.464   0.074  1.00  0.00    -0.021 C 
ATOM      8  C   UNL     1      -3.322   1.185  -1.915  1.00  0.00     0.058 C 
ATOM      9  C   UNL     1      -4.702   1.073   0.291  1.00  0.00     0.087 C 
ATOM     10  C   UNL     1      -4.118   1.856  -0.861  1.00  0.00     0.156 C 
ATOM     11  O   UNL     1      -4.307   3.061  -0.926  1.00  0.00    -0.295 OA
ATOM     12  C   UNL     1      -4.931  -1.185   1.399  1.00  0.00     0.012 C 
ATOM     13  C   UNL     1      -5.635  -0.931  -0.976  1.00  0.00     0.012 C 
BRANCH   6  14
ATOM     14  C   UNL     1      -2.174  -0.755  -2.918  1.00  0.00     0.331 C 
ATOM     15  O   UNL     1      -1.996  -0.138  -3.957  1.00  0.00    -0.247 OA
BRANCH  14  16
ATOM     16  O   UNL     1      -1.707  -2.024  -2.853  1.00  0.00    -0.478 OA
ATOM     17  H   UNL     1      -1.786  -2.600  -2.084  1.00  0.00     0.297 HD
ENDBRANCH  14  16
ENDBRANCH   6  14
ENDBRANCH   4   5
ENDBRANCH   3   4
ENDBRANCH   2   3
BRANCH   2  18
ATOM     18  O   UNL     1       1.758  -0.626   0.508  1.00  0.00    -0.347 OA
BRANCH  18  19
ATOM     19  C   UNL     1       2.599   0.522   0.516  1.00  0.00     0.282 C 
ATOM     20  O   UNL     1       2.977   0.854  -0.827  1.00  0.00    -0.341 OA
ATOM     21  C   UNL     1       3.768   0.310   1.525  1.00  0.00     0.202 C 
ATOM     22  C   UNL     1       4.325   0.573  -1.177  1.00  0.00     0.178 C 
ATOM     23  C   UNL     1       4.810   1.384   1.244  1.00  0.00     0.179 C 
ATOM     24  C   UNL     1       5.371   1.183  -0.180  1.00  0.00     0.177 C 
BRANCH  21  25
ATOM     25  O   UNL     1       3.308   0.368   2.852  1.00  0.00    -0.385 OA
ATOM     26  H   UNL     1       2.920   1.270   3.004  1.00  0.00     0.211 HD
ENDBRANCH  21  25
BRANCH  22  27
ATOM     27  C   UNL     1       4.518  -0.936  -1.454  1.00  0.00     0.191 C 
BRANCH  27  28
ATOM     28  O   UNL     1       3.675  -1.351  -2.495  1.00  0.00    -0.394 OA
ATOM     29  H   UNL     1       2.776  -1.491  -2.098  1.00  0.00     0.210 HD
ENDBRANCH  27  28
ENDBRANCH  22  27
BRANCH  23  30
ATOM     30  O   UNL     1       5.844   1.411   2.196  1.00  0.00    -0.387 OA
ATOM     31  H   UNL     1       6.219   0.494   2.256  1.00  0.00     0.211 HD
ENDBRANCH  23  30
BRANCH  24  32
ATOM     32  O   UNL     1       5.891   2.402  -0.651  1.00  0.00    -0.387 OA
ATOM     33  H   UNL     1       5.124   3.012  -0.808  1.00  0.00     0.211 HD
ENDBRANCH  24  32
ENDBRANCH  18  19
ENDBRANCH   2  18
TORSDOF 12
