REMARK SMILES C=C1C(=O)O[C@@](C)(CCC[C]CCCCCCCCCCCCCCCCCC[C]CCC[C][C]CCCCCCC/C=C/CCCC[C]CCCCC)[C@H]1O
REMARK SMILES IDX 29 1 28 2 27 3 26 4 25 5 24 6 23 7 22 8 21 9 20 10 19 11
REMARK SMILES IDX 18 12 17 13 16 14 15 15 14 16 13 17 12 18 11 19 10 20 9 21
REMARK SMILES IDX 8 22 6 23 1 24 2 25 3 26 55 27 4 28 5 29 7 30 56 31 30 33
REMARK SMILES IDX 31 34 32 35 33 36 34 37 35 38 36 39 37 40 38 41 39 42 40 43
REMARK SMILES IDX 41 44 42 45 43 46 44 47 45 48 46 49 47 50 48 51 49 52 50 53
REMARK SMILES IDX 51 54 52 55 53 56 54 57
REMARK H PARENT 56 32
ROOT
ATOM      1  C   UNL     1     -33.852   2.699   0.000  1.00  0.00     0.008 C 
ENDROOT
BRANCH   1   2
ATOM      2  C   UNL     1     -32.360   2.543  -0.000  1.00  0.00     0.001 C 
BRANCH   2   3
ATOM      3  C   UNL     1     -30.781   3.228   0.060  1.00  0.00     0.000 C 
BRANCH   3   4
ATOM      4  C   UNL     1     -29.376   2.229  -0.000  1.00  0.00     0.000 C 
BRANCH   4   5
ATOM      5  C   UNL     1     -27.884   2.072   0.000  1.00  0.00     0.000 C 
BRANCH   5   6
ATOM      6  C   UNL     1     -26.393   1.915   0.000  1.00  0.00     0.000 C 
BRANCH   6   7
ATOM      7  C   UNL     1     -24.901   1.759  -0.000  1.00  0.00     0.000 C 
BRANCH   7   8
ATOM      8  C   UNL     1     -23.409   1.602  -0.000  1.00  0.00     0.000 C 
BRANCH   8   9
ATOM      9  C   UNL     1     -21.917   1.445   0.000  1.00  0.00     0.000 C 
BRANCH   9  10
ATOM     10  C   UNL     1     -20.514   0.446  -0.118  1.00  0.00     0.000 C 
BRANCH  10  11
ATOM     11  C   UNL     1     -18.934   1.131  -0.000  1.00  0.00     0.000 C 
BRANCH  11  12
ATOM     12  C   UNL     1     -17.442   0.975   0.000  1.00  0.00     0.000 C 
BRANCH  12  13
ATOM     13  C   UNL     1     -15.950   0.818  -0.000  1.00  0.00     0.000 C 
BRANCH  13  14
ATOM     14  C   UNL     1     -14.458   0.661  -0.000  1.00  0.00     0.000 C 
BRANCH  14  15
ATOM     15  C   UNL     1     -12.761   0.760   0.066  1.00  0.00     0.000 C 
BRANCH  15  16
ATOM     16  C   UNL     1     -11.545  -0.383  -0.117  1.00  0.00     0.000 C 
BRANCH  16  17
ATOM     17  C   UNL     1      -9.983   0.191   0.000  1.00  0.00     0.001 C 
BRANCH  17  18
ATOM     18  C   UNL     1      -8.491   0.034  -0.000  1.00  0.00     0.008 C 
BRANCH  18  19
ATOM     19  C   UNL     1      -6.999  -0.123   0.000  1.00  0.00    -0.017 C 
BRANCH  19  20
ATOM     20  C   UNL     1      -5.428   0.401  -0.454  1.00  0.00     0.008 C 
BRANCH  20  21
ATOM     21  C   UNL     1      -4.016  -0.436   0.000  1.00  0.00     0.005 C 
BRANCH  21  22
ATOM     22  C   UNL     1      -2.524  -0.593  -0.000  1.00  0.00     0.052 C 
BRANCH  22  23
ATOM     23  C   UNL     1      -1.032  -0.750   0.000  1.00  0.00     0.140 C 
ATOM     24  C   UNL     1       2.091   0.861  -1.105  1.00  0.00     0.023 C 
ATOM     25  C   UNL     1       1.017   0.322  -0.517  1.00  0.00     0.062 C 
ATOM     26  C   UNL     1       0.797   0.184   0.909  1.00  0.00     0.336 C 
ATOM     27  C   UNL     1      -0.192  -0.203  -1.213  1.00  0.00     0.195 C 
ATOM     28  O   UNL     1       1.572   0.550   1.780  1.00  0.00    -0.246 OA
ATOM     29  O   UNL     1      -0.387  -0.383   1.176  1.00  0.00    -0.453 OA
ATOM     30  C   UNL     1      -1.344  -2.217   0.000  1.00  0.00     0.060 C 
BRANCH  27  31
ATOM     31  O   UNL     1      -0.822   0.877  -1.857  1.00  0.00    -0.384 OA
ATOM     32  H   UNL     1      -1.258   0.513  -2.670  1.00  0.00     0.211 HD
ENDBRANCH  27  31
ENDBRANCH  22  23
ENDBRANCH  21  22
ENDBRANCH  20  21
ENDBRANCH  19  20
ENDBRANCH  18  19
ENDBRANCH  17  18
ENDBRANCH  16  17
ENDBRANCH  15  16
ENDBRANCH  14  15
ENDBRANCH  13  14
ENDBRANCH  12  13
ENDBRANCH  11  12
ENDBRANCH  10  11
ENDBRANCH   9  10
ENDBRANCH   8   9
ENDBRANCH   7   8
ENDBRANCH   6   7
ENDBRANCH   5   6
ENDBRANCH   4   5
ENDBRANCH   3   4
ENDBRANCH   2   3
ENDBRANCH   1   2
BRANCH   1  33
ATOM     33  C   UNL     1     -35.343   2.856  -0.000  1.00  0.00    -0.017 C 
BRANCH  33  34
ATOM     34  C   UNL     1     -36.835   3.013   0.000  1.00  0.00     0.008 C 
BRANCH  34  35
ATOM     35  C   UNL     1     -38.374   2.731  -0.645  1.00  0.00     0.001 C 
BRANCH  35  36
ATOM     36  C   UNL     1     -39.792   3.142   0.213  1.00  0.00     0.009 C 
BRANCH  36  37
ATOM     37  C   UNL     1     -41.391   3.042  -0.352  1.00  0.00    -0.009 C 
BRANCH  37  38
ATOM     38  C   UNL     1     -42.880   3.014   0.488  1.00  0.00    -0.009 C 
BRANCH  38  39
ATOM     39  C   UNL     1     -44.294   3.797   0.000  1.00  0.00     0.009 C 
BRANCH  39  40
ATOM     40  C   UNL     1     -45.786   3.954  -0.000  1.00  0.00     0.001 C 
BRANCH  40  41
ATOM     41  C   UNL     1     -47.278   4.111   0.000  1.00  0.00     0.000 C 
BRANCH  41  42
ATOM     42  C   UNL     1     -48.388   5.310   0.279  1.00  0.00     0.000 C 
BRANCH  42  43
ATOM     43  C   UNL     1     -50.000   4.915   0.072  1.00  0.00     0.000 C 
BRANCH  43  44
ATOM     44  C   UNL     1     -51.316   5.934   0.224  1.00  0.00     0.004 C 
BRANCH  44  45
ATOM     45  C   UNL     1     -52.813   5.257   0.014  1.00  0.00     0.027 C 
BRANCH  45  46
ATOM     46  C   UNL     1     -54.433   5.600  -0.000  1.00  0.00    -0.031 C 
ATOM     47  C   UNL     1     -55.406   6.638   0.119  1.00  0.00    -0.031 C 
BRANCH  47  48
ATOM     48  C   UNL     1     -57.021   6.344   0.013  1.00  0.00     0.027 C 
BRANCH  48  49
ATOM     49  C   UNL     1     -58.308   7.409   0.098  1.00  0.00     0.004 C 
BRANCH  49  50
ATOM     50  C   UNL     1     -59.822   6.735  -0.000  1.00  0.00     0.001 C 
BRANCH  50  51
ATOM     51  C   UNL     1     -61.314   6.892   0.000  1.00  0.00     0.008 C 
BRANCH  51  52
ATOM     52  C   UNL     1     -62.806   7.049   0.000  1.00  0.00    -0.017 C 
BRANCH  52  53
ATOM     53  C   UNL     1     -64.297   7.206  -0.000  1.00  0.00     0.008 C 
BRANCH  53  54
ATOM     54  C   UNL     1     -65.789   7.362   0.000  1.00  0.00     0.001 C 
BRANCH  54  55
ATOM     55  C   UNL     1     -67.194   7.933   0.674  1.00  0.00    -0.000 C 
BRANCH  55  56
ATOM     56  C   UNL     1     -68.773   7.676  -0.000  1.00  0.00    -0.003 C 
ATOM     57  C   UNL     1     -70.264   7.833   0.000  1.00  0.00     0.004 C 
ENDBRANCH  55  56
ENDBRANCH  54  55
ENDBRANCH  53  54
ENDBRANCH  52  53
ENDBRANCH  51  52
ENDBRANCH  50  51
ENDBRANCH  49  50
ENDBRANCH  48  49
ENDBRANCH  47  48
ENDBRANCH  45  46
ENDBRANCH  44  45
ENDBRANCH  43  44
ENDBRANCH  42  43
ENDBRANCH  41  42
ENDBRANCH  40  41
ENDBRANCH  39  40
ENDBRANCH  38  39
ENDBRANCH  37  38
ENDBRANCH  36  37
ENDBRANCH  35  36
ENDBRANCH  34  35
ENDBRANCH  33  34
ENDBRANCH   1  33
TORSDOF 46
