REMARK SMILES CC(C)CCC[C@@H](C)[C@H]1CC[C@@H]2C3=C(OCC[C@]21C)[C@@]1(C)CC[C@@H](O)CC1=CC3
REMARK SMILES IDX 7 1 8 2 6 3 5 4 4 5 2 6 1 7 3 8 9 9 10 10 18 11 11 12 12 13
REMARK SMILES IDX 19 14 13 16 14 17 29 18 20 19 28 20 22 21 27 22 23 23 26 24
REMARK SMILES IDX 24 25 21 26 15 27 16 28 17 29 25 31
REMARK H PARENT 25 32
REMARK Flexibility Score:   65.900
ROOT
ATOM      1  C   UNL     1       2.302  -1.020  -0.613  1.00  0.00    -0.011 C 
ATOM      2  C   UNL     1       2.386  -2.218   0.349  1.00  0.00     0.008 C 
ENDROOT
BRANCH   1   3
ATOM      3  C   UNL     1       3.749  -0.731  -1.142  1.00  0.00     0.003 C 
BRANCH   3   4
ATOM      4  C   UNL     1       4.747  -0.226  -0.080  1.00  0.00     0.001 C 
BRANCH   4   5
ATOM      5  C   UNL     1       6.118   0.068  -0.712  1.00  0.00     0.003 C 
BRANCH   5   6
ATOM      6  C   UNL     1       7.155   0.607   0.303  1.00  0.00    -0.017 C 
ATOM      7  C   UNL     1       7.519  -0.437   1.372  1.00  0.00     0.007 C 
ATOM      8  C   UNL     1       8.426   1.041  -0.437  1.00  0.00     0.007 C 
ENDBRANCH   5   6
ENDBRANCH   4   5
ENDBRANCH   3   4
ENDBRANCH   1   3
BRANCH   1   9
ATOM      9  C   UNL     1       1.586   0.289  -0.031  1.00  0.00    -0.002 C 
ATOM     10  C   UNL     1       1.449   1.290  -1.189  1.00  0.00     0.005 C 
ATOM     11  C   UNL     1       0.070   0.238   0.462  1.00  0.00    -0.020 CG0
ATOM     12  C   UNL     1       0.143   0.891  -1.901  1.00  0.00     0.009 C 
ATOM     13  C   UNL     1      -0.643  -0.006  -0.888  1.00  0.00     0.025 C 
ATOM     14  C   UNL     1      -0.406   1.603   1.075  1.00  0.00     0.012 C 
ATOM     15  G   UNL     1      -0.222  -0.824   1.575  1.00  0.00     0.000 G0
BRANCH  13  16
ATOM     16  C   UNL     1      -2.171   0.097  -0.894  1.00  0.00    -0.024 C 
ATOM     17  C   UNL     1      -2.952  -0.598  -0.006  1.00  0.00     0.106 C 
ATOM     18  C   UNL     1      -2.799   1.000  -1.942  1.00  0.00     0.062 C 
ATOM     19  C   UNL     1      -4.478  -0.467   0.005  1.00  0.00     0.046 C 
ATOM     20  C   UNL     1      -4.287   1.079  -1.945  1.00  0.00    -0.022 C 
ATOM     21  C   UNL     1      -4.933   0.076   1.407  1.00  0.00     0.022 C 
ATOM     22  C   UNL     1      -5.058   0.436  -1.066  1.00  0.00    -0.058 C 
ATOM     23  C   UNL     1      -6.228   0.938   1.401  1.00  0.00     0.033 C 
ATOM     24  C   UNL     1      -6.561   0.710  -1.071  1.00  0.00     0.063 C 
ATOM     25  C   UNL     1      -7.212   0.465   0.320  1.00  0.00     0.118 C 
ATOM     26  C   UNL     1      -5.018  -1.901  -0.260  1.00  0.00     0.024 C 
BRANCH  17  27
ATOM     27  O   UNL     1      -2.457  -1.454   0.941  1.00  0.00    -0.497 OA
BRANCH  27  28
ATOM     28  C   UNL     1      -1.185  -1.941   1.163  1.00  0.00     0.229 C 
BRANCH  28  29
ATOM     29  C   UNL     1      -0.222  -0.824   1.575  1.00  0.00     0.049 CG0
ATOM     30  G   UNL     1       0.070   0.238   0.462  1.00  0.00     0.000 G0
ENDBRANCH  28  29
ENDBRANCH  27  28
ENDBRANCH  17  27
BRANCH  25  31
ATOM     31  O   UNL     1      -8.443   1.140   0.406  1.00  0.00    -0.393 OA
ATOM     32  H   UNL     1      -8.260   2.116   0.380  1.00  0.00     0.210 HD
ENDBRANCH  25  31
ENDBRANCH  13  16
ENDBRANCH   1   9
TORSDOF 6
