REMARK SMILES CC[C]CCCC[C]CC[C]CCCCCCCCC[C]CCC(=O)OC[C@H](COC(=O)CCCCCCCCCCCCCC)OC(=O)CCCCCCCCC[C]C/C=C\C/C=C\CCCCC
REMARK SMILES IDX 24 1 25 2 26 3 27 4 28 5 47 6 48 7 49 8 50 9 51 10 52 11
REMARK SMILES IDX 53 12 54 13 55 14 56 15 57 16 58 17 59 18 60 19 61 20 62 21
REMARK SMILES IDX 63 22 64 23 65 24 66 25 67 26 68 27 69 28 70 29 29 30 30 31
REMARK SMILES IDX 31 32 32 33 33 34 34 35 35 36 36 37 37 38 38 39 39 40 40 41
REMARK SMILES IDX 41 42 42 43 43 44 44 45 45 46 46 47 23 48 22 49 21 50 20 51
REMARK SMILES IDX 19 52 18 53 17 54 16 55 15 56 14 57 13 58 12 59 11 60 10 61
REMARK SMILES IDX 9 62 8 63 7 64 6 65 5 66 4 67 3 68 2 69 1 70
REMARK H PARENT
ROOT
ATOM      1  C   UNL     1      18.082  17.592   0.037  1.00  0.00     0.305 C 
ATOM      2  O   UNL     1      18.948  16.738  -0.019  1.00  0.00    -0.252 OA
ENDROOT
BRANCH   1   3
ATOM      3  O   UNL     1      16.709  17.144   0.082  1.00  0.00    -0.462 OA
BRANCH   3   4
ATOM      4  C   UNL     1      16.207  15.756   0.079  1.00  0.00     0.281 C 
BRANCH   4   5
ATOM      5  C   UNL     1      14.562  15.449   0.166  1.00  0.00     0.251 C 
BRANCH   5   6
ATOM      6  O   UNL     1      14.151  14.024   0.126  1.00  0.00    -0.455 OA
BRANCH   6   7
ATOM      7  C   UNL     1      12.897  13.305   0.262  1.00  0.00     0.306 C 
ATOM      8  O   UNL     1      11.901  13.920   0.602  1.00  0.00    -0.252 OA
BRANCH   7   9
ATOM      9  C   UNL     1      12.750  11.691   0.000  1.00  0.00     0.123 C 
BRANCH   9  10
ATOM     10  C   UNL     1      12.000  10.392   0.000  1.00  0.00     0.012 C 
BRANCH  10  11
ATOM     11  C   UNL     1      11.250   9.093   0.000  1.00  0.00     0.001 C 
BRANCH  11  12
ATOM     12  C   UNL     1      10.500   7.794   0.000  1.00  0.00     0.000 C 
BRANCH  12  13
ATOM     13  C   UNL     1       9.750   6.495   0.000  1.00  0.00     0.000 C 
BRANCH  13  14
ATOM     14  C   UNL     1       9.000   5.196   0.000  1.00  0.00     0.000 C 
BRANCH  14  15
ATOM     15  C   UNL     1       8.949   3.947  -0.925  1.00  0.00     0.000 C 
BRANCH  15  16
ATOM     16  C   UNL     1       7.762   3.025  -0.415  1.00  0.00     0.001 C 
BRANCH  16  17
ATOM     17  C   UNL     1       7.499   1.722  -1.206  1.00  0.00     0.008 C 
BRANCH  17  18
ATOM     18  C   UNL     1       6.497   0.740  -0.515  1.00  0.00    -0.013 C 
BRANCH  18  19
ATOM     19  C   UNL     1       4.965   0.748  -0.832  1.00  0.00     0.035 C 
BRANCH  19  20
ATOM     20  C   UNL     1       4.333  -0.507  -0.213  1.00  0.00    -0.030 C 
ATOM     21  C   UNL     1       3.055  -0.990  -0.290  1.00  0.00    -0.027 C 
BRANCH  21  22
ATOM     22  C   UNL     1       1.836  -0.427  -1.008  1.00  0.00     0.054 C 
BRANCH  22  23
ATOM     23  C   UNL     1       0.684  -0.253  -0.026  1.00  0.00    -0.027 C 
ATOM     24  C   UNL     1      -0.572  -0.797  -0.038  1.00  0.00    -0.031 C 
BRANCH  24  25
ATOM     25  C   UNL     1      -1.264  -1.752  -1.027  1.00  0.00     0.027 C 
BRANCH  25  26
ATOM     26  C   UNL     1      -1.780  -3.014  -0.278  1.00  0.00     0.004 C 
BRANCH  26  27
ATOM     27  C   UNL     1      -2.750  -4.036  -1.008  1.00  0.00     0.000 C 
BRANCH  27  28
ATOM     28  C   UNL     1      -3.000  -5.196   0.000  1.00  0.00    -0.003 C 
ATOM     29  C   UNL     1      -3.750  -6.495   0.000  1.00  0.00     0.004 C 
ENDBRANCH  27  28
ENDBRANCH  26  27
ENDBRANCH  25  26
ENDBRANCH  24  25
ENDBRANCH  22  23
ENDBRANCH  21  22
ENDBRANCH  19  20
ENDBRANCH  18  19
ENDBRANCH  17  18
ENDBRANCH  16  17
ENDBRANCH  15  16
ENDBRANCH  14  15
ENDBRANCH  13  14
ENDBRANCH  12  13
ENDBRANCH  11  12
ENDBRANCH  10  11
ENDBRANCH   9  10
ENDBRANCH   7   9
ENDBRANCH   6   7
ENDBRANCH   5   6
BRANCH   5  30
ATOM     30  C   UNL     1      14.010  16.177   1.424  1.00  0.00     0.281 C 
BRANCH  30  31
ATOM     31  O   UNL     1      12.810  16.864   1.185  1.00  0.00    -0.462 OA
BRANCH  31  32
ATOM     32  C   UNL     1      12.692  18.231   1.284  1.00  0.00     0.305 C 
ATOM     33  O   UNL     1      13.689  18.932   1.404  1.00  0.00    -0.252 OA
BRANCH  32  34
ATOM     34  C   UNL     1      11.343  18.935   1.312  1.00  0.00     0.123 C 
BRANCH  34  35
ATOM     35  C   UNL     1      10.554  18.789   0.000  1.00  0.00     0.012 C 
BRANCH  35  36
ATOM     36  C   UNL     1       9.255  19.539   0.000  1.00  0.00     0.001 C 
BRANCH  36  37
ATOM     37  C   UNL     1       7.956  20.289   0.000  1.00  0.00     0.000 C 
BRANCH  37  38
ATOM     38  C   UNL     1       6.657  21.039   0.000  1.00  0.00     0.000 C 
BRANCH  38  39
ATOM     39  C   UNL     1       5.358  21.789   0.000  1.00  0.00     0.000 C 
BRANCH  39  40
ATOM     40  C   UNL     1       4.059  22.539   0.000  1.00  0.00     0.000 C 
BRANCH  40  41
ATOM     41  C   UNL     1       2.600  22.998   0.756  1.00  0.00    -0.000 C 
BRANCH  41  42
ATOM     42  C   UNL     1       1.553  24.174   0.061  1.00  0.00    -0.000 C 
BRANCH  42  43
ATOM     43  C   UNL     1       0.081  24.818   0.670  1.00  0.00    -0.000 C 
BRANCH  43  44
ATOM     44  C   UNL     1      -0.769  26.083  -0.100  1.00  0.00    -0.000 C 
BRANCH  44  45
ATOM     45  C   UNL     1      -2.076  27.167   0.268  1.00  0.00    -0.000 C 
BRANCH  45  46
ATOM     46  C   UNL     1      -3.736  27.039   0.000  1.00  0.00    -0.003 C 
ATOM     47  C   UNL     1      -5.035  27.789   0.000  1.00  0.00     0.004 C 
ENDBRANCH  45  46
ENDBRANCH  44  45
ENDBRANCH  43  44
ENDBRANCH  42  43
ENDBRANCH  41  42
ENDBRANCH  40  41
ENDBRANCH  39  40
ENDBRANCH  38  39
ENDBRANCH  37  38
ENDBRANCH  36  37
ENDBRANCH  35  36
ENDBRANCH  34  35
ENDBRANCH  32  34
ENDBRANCH  31  32
ENDBRANCH  30  31
ENDBRANCH   5  30
ENDBRANCH   4   5
ENDBRANCH   3   4
ENDBRANCH   1   3
BRANCH   1  48
ATOM     48  C   UNL     1      18.616  19.149   0.053  1.00  0.00     0.123 C 
BRANCH  48  49
ATOM     49  C   UNL     1      20.250  19.486   0.000  1.00  0.00     0.020 C 
BRANCH  49  50
ATOM     50  C   UNL     1      21.000  20.785   0.000  1.00  0.00    -0.017 C 
BRANCH  50  51
ATOM     51  C   UNL     1      21.750  22.084   0.000  1.00  0.00     0.008 C 
BRANCH  51  52
ATOM     52  C   UNL     1      22.319  23.604   0.439  1.00  0.00     0.001 C 
BRANCH  52  53
ATOM     53  C   UNL     1      23.474  24.458  -0.476  1.00  0.00     0.000 C 
BRANCH  53  54
ATOM     54  C   UNL     1      24.000  25.981   0.000  1.00  0.00     0.000 C 
BRANCH  54  55
ATOM     55  C   UNL     1      24.750  27.280   0.000  1.00  0.00     0.000 C 
BRANCH  55  56
ATOM     56  C   UNL     1      25.500  28.579   0.000  1.00  0.00     0.000 C 
BRANCH  56  57
ATOM     57  C   UNL     1      25.816  30.229  -0.028  1.00  0.00     0.000 C 
BRANCH  57  58
ATOM     58  C   UNL     1      27.405  30.831   0.032  1.00  0.00     0.001 C 
BRANCH  58  59
ATOM     59  C   UNL     1      27.750  32.476   0.000  1.00  0.00     0.008 C 
BRANCH  59  60
ATOM     60  C   UNL     1      28.500  33.775   0.000  1.00  0.00    -0.017 C 
BRANCH  60  61
ATOM     61  C   UNL     1      29.250  35.074   0.000  1.00  0.00     0.009 C 
BRANCH  61  62
ATOM     62  C   UNL     1      30.000  36.373   0.000  1.00  0.00     0.009 C 
BRANCH  62  63
ATOM     63  C   UNL     1      30.750  37.672   0.000  1.00  0.00    -0.017 C 
BRANCH  63  64
ATOM     64  C   UNL     1      31.500  38.971   0.000  1.00  0.00     0.008 C 
BRANCH  64  65
ATOM     65  C   UNL     1      31.831  40.618   0.010  1.00  0.00     0.001 C 
BRANCH  65  66
ATOM     66  C   UNL     1      33.419  41.221  -0.010  1.00  0.00     0.001 C 
BRANCH  66  67
ATOM     67  C   UNL     1      33.750  42.868   0.000  1.00  0.00     0.008 C 
BRANCH  67  68
ATOM     68  C   UNL     1      34.500  44.167   0.000  1.00  0.00    -0.018 C 
BRANCH  68  69
ATOM     69  C   UNL     1      35.250  45.466   0.000  1.00  0.00     0.005 C 
ATOM     70  C   UNL     1      36.000  46.765   0.000  1.00  0.00     0.004 C 
ENDBRANCH  68  69
ENDBRANCH  67  68
ENDBRANCH  66  67
ENDBRANCH  65  66
ENDBRANCH  64  65
ENDBRANCH  63  64
ENDBRANCH  62  63
ENDBRANCH  61  62
ENDBRANCH  60  61
ENDBRANCH  59  60
ENDBRANCH  58  59
ENDBRANCH  57  58
ENDBRANCH  56  57
ENDBRANCH  55  56
ENDBRANCH  54  55
ENDBRANCH  53  54
ENDBRANCH  52  53
ENDBRANCH  51  52
ENDBRANCH  50  51
ENDBRANCH  49  50
ENDBRANCH  48  49
ENDBRANCH   1  48
TORSDOF 61
