REMARK SMILES CC(C)CCCCCCCCCCCCCC(=O)O[C@@H](CO)COC(=O)CCCCCCCCC(C)C
REMARK SMILES IDX 17 1 18 2 16 3 15 4 14 5 13 6 12 7 11 8 10 9 9 10 8 11 7 12
REMARK SMILES IDX 6 13 5 14 4 15 2 16 1 17 3 18 19 19 20 20 21 21 22 22 23 24
REMARK SMILES IDX 24 25 25 26 26 27 27 28 28 29 29 30 30 31 31 32 32 33 33 34
REMARK SMILES IDX 34 35 35 36 36 37 37 38
REMARK H PARENT 22 23
ROOT
ATOM      1  C   UNL     1      -0.538   0.428   0.198  1.00  0.00     0.306 C 
ATOM      2  O   UNL     1       0.034   1.206   0.949  1.00  0.00    -0.252 OA
ENDROOT
BRANCH   1   3
ATOM      3  C   UNL     1      -1.987   0.669  -0.117  1.00  0.00     0.123 C 
BRANCH   3   4
ATOM      4  C   UNL     1      -2.622  -0.368  -1.061  1.00  0.00     0.012 C 
BRANCH   4   5
ATOM      5  C   UNL     1      -2.663  -1.789  -0.463  1.00  0.00     0.001 C 
BRANCH   5   6
ATOM      6  C   UNL     1      -3.371  -2.797  -1.383  1.00  0.00     0.000 C 
BRANCH   6   7
ATOM      7  C   UNL     1      -4.831  -2.502  -1.801  1.00  0.00     0.000 C 
BRANCH   7   8
ATOM      8  C   UNL     1      -5.915  -2.575  -0.704  1.00  0.00     0.000 C 
BRANCH   8   9
ATOM      9  C   UNL     1      -5.965  -1.376   0.255  1.00  0.00     0.000 C 
BRANCH   9  10
ATOM     10  C   UNL     1      -7.140  -1.501   1.234  1.00  0.00     0.000 C 
BRANCH  10  11
ATOM     11  C   UNL     1      -7.164  -0.367   2.276  1.00  0.00     0.000 C 
BRANCH  11  12
ATOM     12  C   UNL     1      -7.178   1.092   1.762  1.00  0.00     0.000 C 
BRANCH  12  13
ATOM     13  C   UNL     1      -8.472   1.607   1.099  1.00  0.00     0.000 C 
BRANCH  13  14
ATOM     14  C   UNL     1      -8.755   1.056  -0.306  1.00  0.00     0.000 C 
BRANCH  14  15
ATOM     15  C   UNL     1      -9.825   1.806  -1.130  1.00  0.00     0.003 C 
BRANCH  15  16
ATOM     16  C   UNL     1     -11.312   1.689  -0.693  1.00  0.00    -0.017 C 
ATOM     17  C   UNL     1     -11.668   2.508   0.559  1.00  0.00     0.007 C 
ATOM     18  C   UNL     1     -12.204   2.181  -1.846  1.00  0.00     0.007 C 
ENDBRANCH  15  16
ENDBRANCH  14  15
ENDBRANCH  13  14
ENDBRANCH  12  13
ENDBRANCH  11  12
ENDBRANCH  10  11
ENDBRANCH   9  10
ENDBRANCH   8   9
ENDBRANCH   7   8
ENDBRANCH   6   7
ENDBRANCH   5   6
ENDBRANCH   4   5
ENDBRANCH   3   4
ENDBRANCH   1   3
BRANCH   1  19
ATOM     19  O   UNL     1       0.123  -0.627  -0.346  1.00  0.00    -0.456 OA
BRANCH  19  20
ATOM     20  C   UNL     1       1.429  -0.985  -0.071  1.00  0.00     0.239 C 
BRANCH  20  21
ATOM     21  C   UNL     1       1.458  -2.408   0.503  1.00  0.00     0.205 C 
BRANCH  21  22
ATOM     22  O   UNL     1       0.692  -2.480   1.675  1.00  0.00    -0.392 OA
ATOM     23  H   UNL     1       1.228  -2.048   2.391  1.00  0.00     0.210 HD
ENDBRANCH  21  22
ENDBRANCH  20  21
BRANCH  20  24
ATOM     24  C   UNL     1       2.243  -0.895  -1.370  1.00  0.00     0.280 C 
BRANCH  24  25
ATOM     25  O   UNL     1       3.584  -1.139  -1.145  1.00  0.00    -0.462 OA
BRANCH  25  26
ATOM     26  C   UNL     1       4.392  -0.316  -0.428  1.00  0.00     0.305 C 
ATOM     27  O   UNL     1       3.952   0.721   0.049  1.00  0.00    -0.252 OA
BRANCH  26  28
ATOM     28  C   UNL     1       5.835  -0.696  -0.251  1.00  0.00     0.123 C 
BRANCH  28  29
ATOM     29  C   UNL     1       6.697   0.332   0.513  1.00  0.00     0.012 C 
BRANCH  29  30
ATOM     30  C   UNL     1       6.774   1.756  -0.119  1.00  0.00     0.001 C 
BRANCH  30  31
ATOM     31  C   UNL     1       7.198   1.827  -1.599  1.00  0.00     0.000 C 
BRANCH  31  32
ATOM     32  C   UNL     1       8.701   1.790  -1.955  1.00  0.00     0.000 C 
BRANCH  32  33
ATOM     33  C   UNL     1       9.531   0.618  -1.411  1.00  0.00     0.000 C 
BRANCH  33  34
ATOM     34  C   UNL     1      10.104   0.914  -0.012  1.00  0.00     0.000 C 
BRANCH  34  35
ATOM     35  C   UNL     1      10.914  -0.281   0.511  1.00  0.00     0.003 C 
BRANCH  35  36
ATOM     36  C   UNL     1      11.418  -0.087   1.959  1.00  0.00    -0.017 C 
ATOM     37  C   UNL     1      12.337   1.135   2.108  1.00  0.00     0.007 C 
ATOM     38  C   UNL     1      12.162  -1.348   2.416  1.00  0.00     0.007 C 
ENDBRANCH  35  36
ENDBRANCH  34  35
ENDBRANCH  33  34
ENDBRANCH  32  33
ENDBRANCH  31  32
ENDBRANCH  30  31
ENDBRANCH  29  30
ENDBRANCH  28  29
ENDBRANCH  26  28
ENDBRANCH  25  26
ENDBRANCH  24  25
ENDBRANCH  20  24
ENDBRANCH  19  20
ENDBRANCH   1  19
TORSDOF 30
