REMARK SMILES Oc1ccc([C@H]2O[C@@H](c3ccc(O)cc3)[C@@H](c3cc(O)cc4c3[C@@H](c3cc(O)cc(O)c3)[C@H](c3ccc(O)cc3)O4)[C@@H]2c2cc(O)cc3c2[C@@H](c2cc(O)cc(O)c2)[C@H](c2ccc(O)cc2)O3)cc1
REMARK SMILES IDX 6 1 7 2 8 3 16 4 42 5 5 6 2 7 3 8 69 9 4 10 68 11 1 12 43 14
REMARK SMILES IDX 44 15 49 16 45 17 48 18 50 19 47 20 67 21 59 22 46 23 51 25
REMARK SMILES IDX 52 26 58 27 53 28 56 29 55 30 54 31 57 33 60 35 61 36 66 37
REMARK SMILES IDX 62 38 65 39 63 40 64 41 9 43 10 44 15 45 11 46 14 47 12 48
REMARK SMILES IDX 13 49 17 51 18 52 23 53 19 54 22 55 24 56 21 57 41 58 33 59
REMARK SMILES IDX 20 60 25 62 26 63 32 64 27 65 30 66 29 67 28 68 31 70 34 72
REMARK SMILES IDX 35 73 40 74 36 75 39 76 37 77 38 78
REMARK H PARENT 1 13 46 24 54 32 57 34 64 42 13 50 20 61 28 69 31 71 38 79
ROOT
ATOM      1  C   UNL     1       0.049   2.668  -0.195  1.00  0.00     0.157 C 
ATOM      2  O   UNL     1       1.443   2.722   0.021  1.00  0.00    -0.364 OA
ATOM      3  C   UNL     1       1.864   1.396   0.230  1.00  0.00     0.157 C 
ATOM      4  C   UNL     1       1.088   0.592  -0.813  1.00  0.00     0.064 C 
ATOM      5  C   UNL     1      -0.316   1.214  -0.656  1.00  0.00     0.064 C 
ENDROOT
BRANCH   1   6
ATOM      6  C   UNL     1      -0.613   3.266   1.042  1.00  0.00    -0.018 A 
ATOM      7  C   UNL     1      -1.665   4.519   3.345  1.00  0.00     0.115 A 
ATOM      8  C   UNL     1      -1.011   5.278   2.368  1.00  0.00     0.046 A 
ATOM      9  C   UNL     1      -1.786   3.141   3.178  1.00  0.00     0.046 A 
ATOM     10  C   UNL     1      -0.480   4.653   1.237  1.00  0.00     0.010 A 
ATOM     11  C   UNL     1      -1.272   2.514   2.039  1.00  0.00     0.010 A 
BRANCH   7  12
ATOM     12  O   UNL     1      -2.175   5.101   4.449  1.00  0.00    -0.508 OA
ATOM     13  H   UNL     1      -2.112   6.054   4.603  1.00  0.00     0.293 HD
ENDBRANCH   7  12
ENDBRANCH   1   6
BRANCH   5  14
ATOM     14  C   UNL     1      -1.168   1.243  -1.937  1.00  0.00    -0.030 A 
ATOM     15  C   UNL     1      -0.638   1.886  -3.091  1.00  0.00     0.050 A 
ATOM     16  C   UNL     1      -2.480   0.708  -2.059  1.00  0.00     0.010 A 
ATOM     17  C   UNL     1      -1.363   1.978  -4.294  1.00  0.00     0.119 A 
ATOM     18  C   UNL     1      -3.182   0.823  -3.255  1.00  0.00     0.128 A 
ATOM     19  C   UNL     1      -3.366  -0.137  -1.182  1.00  0.00     0.099 C 
ATOM     20  C   UNL     1      -2.648   1.441  -4.376  1.00  0.00     0.092 A 
ATOM     21  O   UNL     1      -4.420   0.298  -3.186  1.00  0.00    -0.484 OA
ATOM     22  C   UNL     1      -4.723   0.162  -1.851  1.00  0.00     0.215 C 
BRANCH  17  23
ATOM     23  O   UNL     1      -0.833   2.590  -5.373  1.00  0.00    -0.508 OA
ATOM     24  H   UNL     1       0.053   2.978  -5.362  1.00  0.00     0.293 HD
ENDBRANCH  17  23
BRANCH  19  25
ATOM     25  C   UNL     1      -3.438  -0.043   0.328  1.00  0.00    -0.029 A 
ATOM     26  C   UNL     1      -3.033  -1.158   1.086  1.00  0.00     0.051 A 
ATOM     27  C   UNL     1      -3.984   1.070   0.993  1.00  0.00     0.051 A 
ATOM     28  C   UNL     1      -3.162  -1.167   2.478  1.00  0.00     0.119 A 
ATOM     29  C   UNL     1      -4.145   1.050   2.385  1.00  0.00     0.119 A 
ATOM     30  C   UNL     1      -3.725  -0.066   3.125  1.00  0.00     0.092 A 
BRANCH  28  31
ATOM     31  O   UNL     1      -2.766  -2.236   3.197  1.00  0.00    -0.508 OA
ATOM     32  H   UNL     1      -2.375  -3.019   2.783  1.00  0.00     0.293 HD
ENDBRANCH  28  31
BRANCH  29  33
ATOM     33  O   UNL     1      -4.713   2.106   3.001  1.00  0.00    -0.508 OA
ATOM     34  H   UNL     1      -4.856   2.124   3.958  1.00  0.00     0.293 HD
ENDBRANCH  29  33
ENDBRANCH  19  25
BRANCH  22  35
ATOM     35  C   UNL     1      -5.837  -0.804  -1.536  1.00  0.00    -0.006 A 
ATOM     36  C   UNL     1      -5.753  -2.164  -1.869  1.00  0.00     0.011 A 
ATOM     37  C   UNL     1      -6.979  -0.330  -0.864  1.00  0.00     0.011 A 
ATOM     38  C   UNL     1      -6.795  -3.035  -1.525  1.00  0.00     0.046 A 
ATOM     39  C   UNL     1      -8.015  -1.199  -0.523  1.00  0.00     0.046 A 
ATOM     40  C   UNL     1      -7.927  -2.555  -0.848  1.00  0.00     0.115 A 
BRANCH  40  41
ATOM     41  O   UNL     1      -8.933  -3.381  -0.503  1.00  0.00    -0.508 OA
ATOM     42  H   UNL     1      -8.911  -4.330  -0.696  1.00  0.00     0.293 HD
ENDBRANCH  40  41
ENDBRANCH  22  35
ENDBRANCH   5  14
BRANCH   3  43
ATOM     43  C   UNL     1       1.733   1.090   1.717  1.00  0.00    -0.018 A 
ATOM     44  C   UNL     1       1.007   0.007   2.248  1.00  0.00     0.010 A 
ATOM     45  C   UNL     1       2.366   1.980   2.606  1.00  0.00     0.010 A 
ATOM     46  C   UNL     1       0.918  -0.168   3.634  1.00  0.00     0.046 A 
ATOM     47  C   UNL     1       2.270   1.806   3.985  1.00  0.00     0.046 A 
ATOM     48  C   UNL     1       1.546   0.734   4.505  1.00  0.00     0.115 A 
BRANCH  48  49
ATOM     49  O   UNL     1       1.458   0.584   5.842  1.00  0.00    -0.508 OA
ATOM     50  H   UNL     1       0.961  -0.140   6.247  1.00  0.00     0.293 HD
ENDBRANCH  48  49
ENDBRANCH   3  43
BRANCH   4  51
ATOM     51  C   UNL     1       1.237  -0.935  -0.884  1.00  0.00    -0.030 A 
ATOM     52  C   UNL     1       0.093  -1.766  -0.967  1.00  0.00     0.050 A 
ATOM     53  C   UNL     1       2.496  -1.589  -0.963  1.00  0.00     0.010 A 
ATOM     54  C   UNL     1       0.198  -3.162  -1.134  1.00  0.00     0.119 A 
ATOM     55  C   UNL     1       2.582  -2.953  -1.159  1.00  0.00     0.128 A 
ATOM     56  C   UNL     1       3.908  -1.094  -0.815  1.00  0.00     0.099 C 
ATOM     57  C   UNL     1       1.456  -3.759  -1.240  1.00  0.00     0.092 A 
ATOM     58  O   UNL     1       3.845  -3.388  -1.292  1.00  0.00    -0.484 OA
ATOM     59  C   UNL     1       4.717  -2.316  -1.339  1.00  0.00     0.215 C 
BRANCH  54  60
ATOM     60  O   UNL     1      -0.906  -3.932  -1.219  1.00  0.00    -0.508 OA
ATOM     61  H   UNL     1      -1.798  -3.562  -1.169  1.00  0.00     0.293 HD
ENDBRANCH  54  60
BRANCH  56  62
ATOM     62  C   UNL     1       4.261  -0.891   0.664  1.00  0.00    -0.029 A 
ATOM     63  C   UNL     1       4.962   0.259   1.072  1.00  0.00     0.051 A 
ATOM     64  C   UNL     1       3.946  -1.867   1.637  1.00  0.00     0.051 A 
ATOM     65  C   UNL     1       5.322   0.439   2.417  1.00  0.00     0.119 A 
ATOM     66  C   UNL     1       4.300  -1.687   2.977  1.00  0.00     0.119 A 
ATOM     67  C   UNL     1       4.987  -0.531   3.365  1.00  0.00     0.092 A 
BRANCH  65  68
ATOM     68  O   UNL     1       5.993   1.541   2.809  1.00  0.00    -0.508 OA
ATOM     69  H   UNL     1       6.248   2.236   2.187  1.00  0.00     0.293 HD
ENDBRANCH  65  68
BRANCH  66  70
ATOM     70  O   UNL     1       3.979  -2.635   3.880  1.00  0.00    -0.508 OA
ATOM     71  H   UNL     1       4.210  -2.555   4.816  1.00  0.00     0.293 HD
ENDBRANCH  66  70
ENDBRANCH  56  62
BRANCH  59  72
ATOM     72  C   UNL     1       5.181  -2.097  -2.770  1.00  0.00    -0.006 A 
ATOM     73  C   UNL     1       4.258  -1.974  -3.828  1.00  0.00     0.011 A 
ATOM     74  C   UNL     1       6.554  -1.992  -3.052  1.00  0.00     0.011 A 
ATOM     75  C   UNL     1       4.703  -1.756  -5.135  1.00  0.00     0.046 A 
ATOM     76  C   UNL     1       6.995  -1.762  -4.359  1.00  0.00     0.046 A 
ATOM     77  C   UNL     1       6.074  -1.645  -5.404  1.00  0.00     0.115 A 
BRANCH  77  78
ATOM     78  O   UNL     1       6.515  -1.425  -6.658  1.00  0.00    -0.508 OA
ATOM     79  H   UNL     1       5.908  -1.338  -7.408  1.00  0.00     0.293 HD
ENDBRANCH  77  78
ENDBRANCH  59  72
ENDBRANCH   4  51
TORSDOF 18
