REMARK SMILES CCCCCC/C=C/CCC[C@@H]1OC[C@H](NC(=O)[C@H](O)CCCCCCCCCCCCCCCCCCCCCCCCC)[C@@H]1O
REMARK SMILES IDX 26 1 25 2 24 3 23 4 22 5 21 6 19 7 17 8 16 9 18 10 15 12
REMARK SMILES IDX 12 13 13 14 46 15 14 16 11 17 10 18 9 19 8 20 7 21 6 22 5 23
REMARK SMILES IDX 4 24 3 25 2 26 1 27 47 28 20 30 27 32 28 33 29 34 30 35
REMARK SMILES IDX 31 36 32 37 33 38 34 39 35 40 36 41 37 42 38 43 39 44 40 45
REMARK SMILES IDX 41 46 42 47 43 48 44 49 45 50
REMARK H PARENT 16 11 47 29 20 31
ROOT
ATOM      1  C   UNL     1       1.534  -0.754  -4.084  1.00  0.00     0.000 C 
ENDROOT
BRANCH   1   2
ATOM      2  C   UNL     1       0.573   0.423  -3.797  1.00  0.00     0.000 C 
BRANCH   2   3
ATOM      3  C   UNL     1      -0.844   0.072  -3.305  1.00  0.00     0.000 C 
BRANCH   3   4
ATOM      4  C   UNL     1      -0.935  -0.335  -1.828  1.00  0.00     0.000 C 
BRANCH   4   5
ATOM      5  C   UNL     1      -2.389  -0.576  -1.434  1.00  0.00     0.003 C 
BRANCH   5   6
ATOM      6  C   UNL     1      -2.582  -1.133  -0.012  1.00  0.00     0.042 C 
BRANCH   6   7
ATOM      7  C   UNL     1      -2.212  -0.215   1.178  1.00  0.00     0.203 C 
BRANCH   7   8
ATOM      8  C   UNL     1      -2.812   1.185   1.104  1.00  0.00     0.249 C 
ATOM      9  N   UNL     1      -4.118   1.365   0.762  1.00  0.00    -0.346 N 
ATOM     10  O   UNL     1      -2.099   2.154   1.348  1.00  0.00    -0.272 OA
ATOM     11  H   UNL     1      -4.676   0.544   0.501  1.00  0.00     0.164 HD
BRANCH   9  12
ATOM     12  C   UNL     1      -4.750   2.679   0.723  1.00  0.00     0.139 C 
ATOM     13  C   UNL     1      -7.092   2.553   0.224  1.00  0.00     0.149 C 
ATOM     14  O   UNL     1      -6.505   3.315  -0.807  1.00  0.00    -0.373 OA
ATOM     15  C   UNL     1      -6.117   2.718   1.388  1.00  0.00     0.168 C 
ATOM     16  C   UNL     1      -5.107   3.087  -0.717  1.00  0.00     0.188 C 
BRANCH  13  17
ATOM     17  C   UNL     1      -7.397   1.141  -0.346  1.00  0.00     0.035 C 
BRANCH  17  18
ATOM     18  C   UNL     1      -8.174   0.179   0.576  1.00  0.00     0.007 C 
BRANCH  18  19
ATOM     19  C   UNL     1      -9.536   0.702   1.061  1.00  0.00     0.027 C 
BRANCH  19  20
ATOM     20  C   UNL     1     -10.453   1.037  -0.089  1.00  0.00    -0.031 C 
ATOM     21  C   UNL     1     -11.619   0.400  -0.282  1.00  0.00    -0.031 C 
BRANCH  21  22
ATOM     22  C   UNL     1     -12.509   0.732  -1.456  1.00  0.00     0.027 C 
BRANCH  22  23
ATOM     23  C   UNL     1     -13.860   1.378  -1.093  1.00  0.00     0.004 C 
BRANCH  23  24
ATOM     24  C   UNL     1     -14.948   0.476  -0.478  1.00  0.00     0.000 C 
BRANCH  24  25
ATOM     25  C   UNL     1     -14.708   0.039   0.977  1.00  0.00    -0.000 C 
BRANCH  25  26
ATOM     26  C   UNL     1     -15.925  -0.672   1.591  1.00  0.00    -0.003 C 
ATOM     27  C   UNL     1     -16.270  -1.988   0.892  1.00  0.00     0.004 C 
ENDBRANCH  25  26
ENDBRANCH  24  25
ENDBRANCH  23  24
ENDBRANCH  22  23
ENDBRANCH  21  22
ENDBRANCH  19  20
ENDBRANCH  18  19
ENDBRANCH  17  18
ENDBRANCH  13  17
BRANCH  15  28
ATOM     28  O   UNL     1      -6.324   1.910   2.522  1.00  0.00    -0.388 OA
ATOM     29  H   UNL     1      -5.891   1.032   2.375  1.00  0.00     0.211 HD
ENDBRANCH  15  28
ENDBRANCH   9  12
ENDBRANCH   7   8
BRANCH   7  30
ATOM     30  O   UNL     1      -0.820  -0.209   1.417  1.00  0.00    -0.383 OA
ATOM     31  H   UNL     1      -0.395   0.523   0.904  1.00  0.00     0.211 HD
ENDBRANCH   7  30
ENDBRANCH   6   7
ENDBRANCH   5   6
ENDBRANCH   4   5
ENDBRANCH   3   4
ENDBRANCH   2   3
ENDBRANCH   1   2
BRANCH   1  32
ATOM     32  C   UNL     1       2.048  -1.590  -2.901  1.00  0.00     0.000 C 
BRANCH  32  33
ATOM     33  C   UNL     1       2.788  -0.744  -1.850  1.00  0.00     0.000 C 
BRANCH  33  34
ATOM     34  C   UNL     1       3.304  -1.576  -0.661  1.00  0.00     0.000 C 
BRANCH  34  35
ATOM     35  C   UNL     1       4.250  -2.737  -1.033  1.00  0.00     0.000 C 
BRANCH  35  36
ATOM     36  C   UNL     1       5.499  -2.320  -1.830  1.00  0.00     0.000 C 
BRANCH  36  37
ATOM     37  C   UNL     1       6.402  -1.201  -1.256  1.00  0.00     0.000 C 
BRANCH  37  38
ATOM     38  C   UNL     1       7.205  -1.510   0.025  1.00  0.00     0.000 C 
BRANCH  38  39
ATOM     39  C   UNL     1       6.405  -1.454   1.329  1.00  0.00     0.000 C 
BRANCH  39  40
ATOM     40  C   UNL     1       7.123  -1.919   2.619  1.00  0.00     0.000 C 
BRANCH  40  41
ATOM     41  C   UNL     1       8.201  -1.017   3.264  1.00  0.00     0.000 C 
BRANCH  41  42
ATOM     42  C   UNL     1       9.692  -1.265   2.931  1.00  0.00    -0.000 C 
BRANCH  42  43
ATOM     43  C   UNL     1      10.133  -0.864   1.528  1.00  0.00    -0.000 C 
BRANCH  43  44
ATOM     44  C   UNL     1      11.662  -0.902   1.367  1.00  0.00    -0.000 C 
BRANCH  44  45
ATOM     45  C   UNL     1      12.114  -0.441  -0.037  1.00  0.00    -0.000 C 
BRANCH  45  46
ATOM     46  C   UNL     1      11.733   1.010  -0.378  1.00  0.00    -0.000 C 
BRANCH  46  47
ATOM     47  C   UNL     1      12.089   2.131   0.633  1.00  0.00    -0.000 C 
BRANCH  47  48
ATOM     48  C   UNL     1      13.537   2.675   0.703  1.00  0.00    -0.000 C 
BRANCH  48  49
ATOM     49  C   UNL     1      14.588   2.025   1.628  1.00  0.00    -0.003 C 
ATOM     50  C   UNL     1      15.181   0.697   1.185  1.00  0.00     0.004 C 
ENDBRANCH  48  49
ENDBRANCH  47  48
ENDBRANCH  46  47
ENDBRANCH  45  46
ENDBRANCH  44  45
ENDBRANCH  43  44
ENDBRANCH  42  43
ENDBRANCH  41  42
ENDBRANCH  40  41
ENDBRANCH  39  40
ENDBRANCH  38  39
ENDBRANCH  37  38
ENDBRANCH  36  37
ENDBRANCH  35  36
ENDBRANCH  34  35
ENDBRANCH  33  34
ENDBRANCH  32  33
ENDBRANCH   1  32
TORSDOF 37
