REMARK SMILES C[C@@H]1C(=O)O[C@H]2[C@@H]1O[C@]13O[C@@]4(CC(=O)[C@]5(C)C(=O)[C@](C)(O)[C@H]2[C@@H]51)C[C@]12OC(=O)C[C@H]1O[C@@](C)(CO)[C@@H]2CC[C@H]4[C@H]3O
REMARK SMILES IDX 25 1 26 2 27 3 28 4 29 5 30 6 31 7 32 8 33 9 36 10 24 12
REMARK SMILES IDX 11 13 2 14 3 15 7 16 4 17 5 18 6 19 8 20 22 21 9 22 19 23
REMARK SMILES IDX 23 24 10 25 40 26 17 27 15 28 39 29 18 30 1 31 20 32 16 33
REMARK SMILES IDX 21 34 41 36 13 38 14 39 12 41 38 43 37 44 34 46 35 47
REMARK H PARENT 21 35 41 37 35 48
REMARK Flexibility Score:   85.800
ROOT
ATOM      1  C   UNL     1       2.960   0.343   0.746  1.00  0.00     0.147 C 
ATOM      2  O   UNL     1       3.533   0.297   2.008  1.00  0.00    -0.456 OA
ATOM      3  C   UNL     1       3.689   1.538   2.513  1.00  0.00     0.309 C 
ATOM      4  O   UNL     1       3.913   1.749   3.693  1.00  0.00    -0.252 OA
ATOM      5  C   UNL     1       3.347   2.585   1.526  1.00  0.00     0.159 C 
ATOM      6  C   UNL     1       3.405   1.733   0.264  1.00  0.00     0.174 C 
ATOM      7  O   UNL     1       4.772   1.602  -0.104  1.00  0.00    -0.364 OA
ATOM      8  C   UNL     1       5.027   0.257  -0.476  1.00  0.00     0.096 C 
ATOM      9  C   UNL     1       5.512   0.269  -1.947  1.00  0.00     0.045 C 
ATOM     10  C   UNL     1       3.711  -0.570  -0.225  1.00  0.00     0.070 CG1
ATOM     11  G   UNL     1       2.956  -0.951  -1.542  1.00  0.00     0.000 G1
ENDROOT
BRANCH   1  12
ATOM     12  C   UNL     1       1.441   0.063   1.018  1.00  0.00     0.088 C 
BRANCH  12  13
ATOM     13  C   UNL     1       0.337   0.100  -0.077  1.00  0.00     0.088 C 
ATOM     14  C   UNL     1      -4.093  -1.999   2.581  1.00  0.00     0.129 C 
ATOM     15  C   UNL     1      -5.028  -2.537   1.547  1.00  0.00     0.311 C 
ATOM     16  C   UNL     1      -3.351  -0.971   1.708  1.00  0.00     0.177 C 
ATOM     17  O   UNL     1      -5.766  -3.497   1.704  1.00  0.00    -0.252 OA
ATOM     18  O   UNL     1      -5.101  -1.726   0.471  1.00  0.00    -0.459 OA
ATOM     19  C   UNL     1      -4.488  -0.531   0.796  1.00  0.00     0.213 C 
ATOM     20  O   UNL     1      -2.432  -1.696   0.918  1.00  0.00    -0.339 OA
ATOM     21  C   UNL     1      -3.995   0.270  -0.417  1.00  0.00     0.082 C 
ATOM     22  C   UNL     1      -1.699  -0.922  -0.016  1.00  0.00     0.200 C 
ATOM     23  C   UNL     1      -3.759   1.757  -0.160  1.00  0.00     0.128 C 
ATOM     24  C   UNL     1      -2.663  -0.248  -1.058  1.00  0.00     0.083 C 
ATOM     25  O   UNL     1      -0.905   0.042   0.623  1.00  0.00    -0.340 OA
ATOM     26  C   UNL     1      -0.715  -1.942  -0.630  1.00  0.00     0.180 C 
ATOM     27  C   UNL     1      -3.102   2.093  -1.451  1.00  0.00     0.178 C 
ATOM     28  C   UNL     1      -2.171   1.005  -1.932  1.00  0.00     0.096 C 
ATOM     29  C   UNL     1       0.404  -1.069  -1.091  1.00  0.00     0.056 C 
ATOM     30  O   UNL     1      -3.328   3.121  -2.076  1.00  0.00    -0.295 OA
ATOM     31  C   UNL     1      -3.169  -3.050   3.215  1.00  0.00     0.023 C 
ATOM     32  C   UNL     1      -5.040   2.572   0.108  1.00  0.00     0.051 C 
ATOM     33  C   UNL     1      -2.467   0.674  -3.412  1.00  0.00     0.029 C 
BRANCH  23  34
ATOM     34  O   UNL     1      -2.850   1.930   0.900  1.00  0.00    -0.382 OA
ATOM     35  H   UNL     1      -2.546   2.876   0.887  1.00  0.00     0.212 HD
ENDBRANCH  23  34
BRANCH  26  36
ATOM     36  O   UNL     1      -0.256  -2.870   0.337  1.00  0.00    -0.387 OA
ATOM     37  H   UNL     1      -0.140  -2.426   1.214  1.00  0.00     0.211 HD
ENDBRANCH  26  36
BRANCH  28  38
ATOM     38  C   UNL     1      -0.787   1.691  -1.813  1.00  0.00     0.149 CG0
ATOM     39  O   UNL     1      -0.609   2.673  -2.523  1.00  0.00    -0.298 OA
ATOM     40  G   UNL     1       0.363   1.408  -0.868  1.00  0.00     0.000 G0
ENDBRANCH  28  38
BRANCH  13  41
ATOM     41  C   UNL     1       0.363   1.408  -0.868  1.00  0.00     0.112 CG0
ATOM     42  G   UNL     1      -0.787   1.691  -1.813  1.00  0.00     0.000 G0
ENDBRANCH  13  41
BRANCH  29  43
ATOM     43  C   UNL     1       1.728  -1.835  -1.310  1.00  0.00     0.010 C 
BRANCH  43  44
ATOM     44  C   UNL     1       2.956  -0.951  -1.542  1.00  0.00     0.011 CG1
ATOM     45  G   UNL     1       3.711  -0.570  -0.225  1.00  0.00     0.000 G1
ENDBRANCH  43  44
ENDBRANCH  29  43
ENDBRANCH  12  13
ENDBRANCH   1  12
BRANCH   8  46
ATOM     46  C   UNL     1       6.222  -0.297   0.357  1.00  0.00     0.191 C 
BRANCH  46  47
ATOM     47  O   UNL     1       5.988  -0.308   1.737  1.00  0.00    -0.393 OA
ATOM     48  H   UNL     1       6.305   0.564   2.090  1.00  0.00     0.210 HD
ENDBRANCH  46  47
ENDBRANCH   8  46
TORSDOF 4
