REMARK SMILES CCOCCCNCc1cccc(-c2cc(O)cc3ccc(C4(C(=O)O[C@@H]5C[C@@H](OC(C)=O)[C@H]6Cc7cc(OC)c(O)cc7[C@H](CO)[C@@]6(/C=C/c6ccccc6)[C@H]6CCc7cc(O)c(OC)cc7[C@@H]6C5)CCCCC4)cc23)c1
REMARK SMILES IDX 23 1 71 2 72 3 73 4 74 5 75 6 22 7 14 8 15 9 77 10 16 11
REMARK SMILES IDX 76 12 19 13 18 14 20 15 21 16 13 17 9 18 10 19 78 20 11 21
REMARK SMILES IDX 12 22 8 23 7 24 6 26 5 27 4 28 3 29 2 30 1 31 17 32 24 34
REMARK SMILES IDX 25 35 26 36 27 37 28 38 70 40 69 41 68 42 57 43 67 44 60 45
REMARK SMILES IDX 58 46 64 47 59 48 61 49 62 50 48 51 45 52 34 53 44 54 35 55
REMARK SMILES IDX 43 56 36 57 41 58 37 59 38 60 49 61 50 62 51 63 52 64 56 65
REMARK SMILES IDX 53 66 55 67 54 68 46 69 47 70 29 72 30 74 31 75 33 76 32 77
REMARK SMILES IDX 42 78 39 80 40 81 65 82 66 83 63 84
REMARK H PARENT 7 25 17 33 47 71 42 79 63 85
REMARK Flexibility Score:  918.900
ROOT
ATOM      1  C   UNL     1       1.874  -2.764   0.986  1.00  0.00     0.093 C 
ATOM      2  C   UNL     1       0.986  -4.066   0.866  1.00  0.00     0.023 C 
ATOM      3  C   UNL     1       1.421  -5.051  -0.258  1.00  0.00     0.002 C 
ATOM      4  C   UNL     1       2.926  -5.002  -0.475  1.00  0.00     0.000 C 
ATOM      5  C   UNL     1       3.356  -3.584  -0.934  1.00  0.00     0.002 C 
ATOM      6  C   UNL     1       2.413  -2.455  -0.430  1.00  0.00     0.023 C 
ENDROOT
BRANCH   1   7
ATOM      7  C   UNL     1       3.076  -2.868   1.973  1.00  0.00    -0.030 A 
ATOM      8  C   UNL     1       5.743  -0.515   3.252  1.00  0.00    -0.007 A 
ATOM      9  C   UNL     1       6.723  -0.512   4.259  1.00  0.00     0.055 A 
ATOM     10  C   UNL     1       4.961  -1.689   3.053  1.00  0.00    -0.010 A 
ATOM     11  C   UNL     1       6.968  -1.655   5.030  1.00  0.00     0.116 A 
ATOM     12  C   UNL     1       3.897  -1.731   2.131  1.00  0.00     0.014 A 
ATOM     13  C   UNL     1       5.207  -2.835   3.846  1.00  0.00    -0.014 A 
ATOM     14  C   UNL     1       6.218  -2.812   4.817  1.00  0.00     0.055 A 
ATOM     15  C   UNL     1       4.424  -3.984   3.678  1.00  0.00     0.009 A 
ATOM     16  C   UNL     1       3.371  -4.003   2.760  1.00  0.00     0.005 A 
BRANCH   8  17
ATOM     17  C   UNL     1       5.565   0.721   2.438  1.00  0.00    -0.017 A 
ATOM     18  C   UNL     1       5.409   1.817   0.261  1.00  0.00    -0.034 A 
ATOM     19  C   UNL     1       5.221   3.050   0.901  1.00  0.00     0.005 A 
ATOM     20  C   UNL     1       5.569   0.657   1.033  1.00  0.00     0.013 A 
ATOM     21  C   UNL     1       5.231   3.125   2.296  1.00  0.00     0.001 A 
ATOM     22  C   UNL     1       5.419   1.971   3.062  1.00  0.00     0.009 A 
BRANCH  18  23
ATOM     23  C   UNL     1       5.489   1.732  -1.240  1.00  0.00     0.116 C 
BRANCH  23  24
ATOM     24  N   UNL     1       6.852   1.332  -1.608  1.00  0.00    -0.313 NA
ATOM     25  H   UNL     1       7.493   2.057  -1.213  1.00  0.00     0.123 HD
BRANCH  24  26
ATOM     26  C   UNL     1       7.030   1.298  -3.064  1.00  0.00     0.083 C 
BRANCH  26  27
ATOM     27  C   UNL     1       8.461   0.871  -3.445  1.00  0.00     0.044 C 
BRANCH  27  28
ATOM     28  C   UNL     1       9.554   1.834  -2.957  1.00  0.00     0.161 C 
BRANCH  28  29
ATOM     29  O   UNL     1       9.315   3.127  -3.474  1.00  0.00    -0.382 OA
BRANCH  29  30
ATOM     30  C   UNL     1      10.229   4.039  -2.905  1.00  0.00     0.156 C 
ATOM     31  C   UNL     1      10.026   5.406  -3.541  1.00  0.00     0.035 C 
ENDBRANCH  29  30
ENDBRANCH  28  29
ENDBRANCH  27  28
ENDBRANCH  26  27
ENDBRANCH  24  26
ENDBRANCH  23  24
ENDBRANCH  18  23
ENDBRANCH   8  17
BRANCH  11  32
ATOM     32  O   UNL     1       7.925  -1.651   5.980  1.00  0.00    -0.508 OA
ATOM     33  H   UNL     1       8.470  -0.872   6.160  1.00  0.00     0.293 HD
ENDBRANCH  11  32
ENDBRANCH   1   7
BRANCH   1  34
ATOM     34  C   UNL     1       0.955  -1.636   1.462  1.00  0.00     0.316 C 
ATOM     35  O   UNL     1       1.181  -1.058   2.522  1.00  0.00    -0.251 OA
BRANCH  34  36
ATOM     36  O   UNL     1      -0.150  -1.303   0.736  1.00  0.00    -0.462 OA
BRANCH  36  37
ATOM     37  C   UNL     1      -1.067  -0.327   1.103  1.00  0.00     0.180 C 
BRANCH  37  38
ATOM     38  C   UNL     1      -2.262  -0.983   1.837  1.00  0.00     0.091 CG0
ATOM     39  G   UNL     1      -3.181  -2.009   1.115  1.00  0.00     0.000 G0
ENDBRANCH  37  38
BRANCH  37  40
ATOM     40  C   UNL     1      -1.274   0.688  -0.048  1.00  0.00     0.054 C 
BRANCH  40  41
ATOM     41  C   UNL     1      -2.746   1.111  -0.285  1.00  0.00     0.027 C 
ATOM     42  C   UNL     1      -2.780   2.526  -0.890  1.00  0.00    -0.037 A 
ATOM     43  C   UNL     1      -3.430   0.006  -1.176  1.00  0.00     0.008 C 
ATOM     44  C   UNL     1      -2.234   3.588  -0.140  1.00  0.00     0.054 A 
ATOM     45  C   UNL     1      -3.317   2.811  -2.169  1.00  0.00    -0.041 A 
ATOM     46  C   UNL     1      -3.240   0.389  -2.672  1.00  0.00     0.010 C 
ATOM     47  C   UNL     1      -2.196   4.901  -0.645  1.00  0.00     0.160 A 
ATOM     48  C   UNL     1      -3.852   1.729  -3.056  1.00  0.00     0.036 C 
ATOM     49  C   UNL     1      -3.309   4.127  -2.655  1.00  0.00     0.054 A 
ATOM     50  C   UNL     1      -2.744   5.165  -1.905  1.00  0.00     0.157 A 
BRANCH  43  51
ATOM     51  C   UNL     1      -4.814  -0.634  -0.682  1.00  0.00     0.008 C 
ATOM     52  C   UNL     1      -6.001   0.419  -0.502  1.00  0.00     0.056 C 
ATOM     53  C   UNL     1      -4.603  -1.455   0.708  1.00  0.00     0.046 C 
ATOM     54  C   UNL     1      -5.805   1.237   0.764  1.00  0.00    -0.035 A 
ATOM     55  C   UNL     1      -5.379  -0.908   1.951  1.00  0.00     0.044 C 
ATOM     56  C   UNL     1      -5.943   2.633   0.762  1.00  0.00     0.054 A 
ATOM     57  C   UNL     1      -5.498   0.580   1.963  1.00  0.00    -0.040 A 
ATOM     58  C   UNL     1      -5.822   3.362   1.954  1.00  0.00     0.157 A 
ATOM     59  C   UNL     1      -5.350   1.302   3.152  1.00  0.00     0.054 A 
ATOM     60  C   UNL     1      -5.530   2.699   3.164  1.00  0.00     0.160 A 
BRANCH  51  61
ATOM     61  C   UNL     1      -5.200  -1.685  -1.760  1.00  0.00    -0.018 C 
ATOM     62  C   UNL     1      -5.757  -1.379  -2.953  1.00  0.00     0.004 C 
BRANCH  62  63
ATOM     63  C   UNL     1      -6.151  -2.365  -3.996  1.00  0.00    -0.026 A 
ATOM     64  C   UNL     1      -6.856  -1.891  -5.118  1.00  0.00     0.008 A 
ATOM     65  C   UNL     1      -5.851  -3.743  -3.918  1.00  0.00     0.008 A 
ATOM     66  C   UNL     1      -7.256  -2.766  -6.131  1.00  0.00     0.001 A 
ATOM     67  C   UNL     1      -6.249  -4.611  -4.939  1.00  0.00     0.001 A 
ATOM     68  C   UNL     1      -6.952  -4.125  -6.043  1.00  0.00     0.000 A 
ENDBRANCH  62  63
ENDBRANCH  51  61
BRANCH  52  69
ATOM     69  C   UNL     1      -7.439  -0.196  -0.486  1.00  0.00     0.165 C 
BRANCH  69  70
ATOM     70  O   UNL     1      -8.404   0.813  -0.339  1.00  0.00    -0.396 OA
ATOM     71  H   UNL     1      -8.553   0.930   0.636  1.00  0.00     0.210 HD
ENDBRANCH  69  70
ENDBRANCH  52  69
BRANCH  53  72
ATOM     72  C   UNL     1      -3.181  -2.009   1.115  1.00  0.00     0.184 CG0
ATOM     73  G   UNL     1      -2.262  -0.983   1.837  1.00  0.00     0.000 G0
BRANCH  72  74
ATOM     74  O   UNL     1      -3.411  -3.028   2.035  1.00  0.00    -0.462 OA
BRANCH  74  75
ATOM     75  C   UNL     1      -3.083  -4.340   1.882  1.00  0.00     0.302 C 
ATOM     76  O   UNL     1      -2.593  -4.756   0.843  1.00  0.00    -0.253 OA
ATOM     77  C   UNL     1      -3.330  -5.291   3.006  1.00  0.00     0.139 C 
ENDBRANCH  74  75
ENDBRANCH  72  74
ENDBRANCH  53  72
BRANCH  58  78
ATOM     78  O   UNL     1      -6.014   4.697   1.919  1.00  0.00    -0.504 OA
ATOM     79  H   UNL     1      -5.979   5.253   2.711  1.00  0.00     0.293 HD
ENDBRANCH  58  78
BRANCH  60  80
ATOM     80  O   UNL     1      -5.456   3.425   4.312  1.00  0.00    -0.493 OA
ATOM     81  C   UNL     1      -5.282   2.912   5.582  1.00  0.00     0.278 C 
ENDBRANCH  60  80
ENDBRANCH  43  51
BRANCH  47  82
ATOM     82  O   UNL     1      -1.626   5.928   0.040  1.00  0.00    -0.493 OA
ATOM     83  C   UNL     1      -0.953   5.821   1.240  1.00  0.00     0.278 C 
ENDBRANCH  47  82
BRANCH  50  84
ATOM     84  O   UNL     1      -2.704   6.420  -2.399  1.00  0.00    -0.504 OA
ATOM     85  H   UNL     1      -3.049   6.641  -3.276  1.00  0.00     0.293 HD
ENDBRANCH  50  84
ENDBRANCH  40  41
ENDBRANCH  37  40
ENDBRANCH  36  37
ENDBRANCH  34  36
ENDBRANCH   1  34
TORSDOF 23
