REMARK SMILES CC(C)[C@]12O[C@H]1[C@@H]1O[C@]13[C@]1(O[C@H]1C[C@H]1C4=C(CC[C@@]13C)C(=O)OC4)[C@@H]2O
REMARK SMILES IDX 4 1 5 2 6 3 7 4 8 5 9 6 10 7 11 8 12 9 13 10 14 11 15 12
REMARK SMILES IDX 16 13 17 14 18 15 19 16 20 17 21 18 22 19 23 20 24 21 25 22
REMARK SMILES IDX 2 23 1 24 3 25 26 26
REMARK H PARENT 26 27
ROOT
ATOM      1  C   UNL     1       2.875  -0.610  -0.408  1.00  0.00     0.129 C 
ATOM      2  O   UNL     1       2.065  -1.741  -0.549  1.00  0.00    -0.360 OA
ATOM      3  C   UNL     1       2.006  -0.778  -1.605  1.00  0.00     0.186 C 
ATOM      4  C   UNL     1       0.572  -0.227  -1.661  1.00  0.00     0.187 C 
ATOM      5  O   UNL     1       0.612   1.198  -1.596  1.00  0.00    -0.359 OA
ATOM      6  C   UNL     1       0.011   0.549  -0.513  1.00  0.00     0.137 C 
ATOM      7  C   UNL     1       0.867   0.450   0.767  1.00  0.00     0.155 C 
ATOM      8  O   UNL     1       0.453   1.248   1.818  1.00  0.00    -0.360 OA
ATOM      9  C   UNL     1       0.192  -0.146   1.972  1.00  0.00     0.158 C 
ATOM     10  C   UNL     1      -1.349  -0.283   2.007  1.00  0.00     0.044 C 
ATOM     11  C   UNL     1      -1.976  -0.443   0.602  1.00  0.00     0.031 C 
ATOM     12  C   UNL     1      -3.484  -0.600   0.647  1.00  0.00    -0.019 C 
ATOM     13  C   UNL     1      -4.292  -0.144  -0.304  1.00  0.00     0.040 C 
ATOM     14  C   UNL     1      -3.849   0.577  -1.551  1.00  0.00     0.044 C 
ATOM     15  C   UNL     1      -2.316   0.466  -1.723  1.00  0.00     0.015 C 
ATOM     16  C   UNL     1      -1.543   0.694  -0.385  1.00  0.00     0.009 C 
ATOM     17  C   UNL     1      -1.889   2.123   0.131  1.00  0.00     0.015 C 
ATOM     18  C   UNL     1      -5.634  -0.469   0.116  1.00  0.00     0.334 C 
ATOM     19  O   UNL     1      -6.655  -0.199  -0.494  1.00  0.00    -0.247 OA
ATOM     20  O   UNL     1      -5.612  -1.149   1.276  1.00  0.00    -0.458 OA
ATOM     21  C   UNL     1      -4.303  -1.299   1.704  1.00  0.00     0.265 C 
ATOM     22  C   UNL     1       2.400   0.389   0.674  1.00  0.00     0.187 C 
ENDROOT
BRANCH   1  23
ATOM     23  C   UNL     1       4.378  -0.928  -0.618  1.00  0.00     0.020 C 
ATOM     24  C   UNL     1       5.049  -1.351   0.694  1.00  0.00     0.010 C 
ATOM     25  C   UNL     1       5.123   0.254  -1.248  1.00  0.00     0.010 C 
ENDBRANCH   1  23
BRANCH  22  26
ATOM     26  O   UNL     1       2.918   1.675   0.441  1.00  0.00    -0.387 OA
ATOM     27  H   UNL     1       2.692   1.936  -0.488  1.00  0.00     0.211 HD
ENDBRANCH  22  26
TORSDOF 2
