REMARK SMILES C[C@@H]1CCc2cc3ccc2[C@@H]1C[C@@H](S(=O)(=O)O)[C@H]1C=C2C[C@H](C[C@H](CCCO)O[C@H]2c2ccc(O)cc2)[C@H]1c1ccc(cc1)[C@H](N=C(N)N)O3
REMARK SMILES IDX 39 1 40 2 41 3 42 4 43 5 44 6 45 7 50 8 7 9 2 10 3 11 11 12
REMARK SMILES IDX 4 13 10 14 5 15 9 16 6 17 8 18 1 19 12 20 13 21 14 23 15 24
REMARK SMILES IDX 16 25 17 26 46 28 47 29 48 30 49 31 38 36 22 37 18 38 21 39
REMARK SMILES IDX 19 40 20 41 23 43 30 45 29 46 24 47 25 49 26 50 27 51 28 52
REMARK SMILES IDX 31 54 32 55 37 56 33 57 36 58 34 59 35 60
REMARK H PARENT 17 27 48 32 48 33 49 34 49 35 28 53 35 61
REMARK Flexibility Score:  177.800
ROOT
ATOM      1  C   UNL     1      -0.597   1.346  -0.652  1.00  0.00    -0.044 A 
ATOM      2  C   UNL     1      -1.229   1.980  -1.736  1.00  0.00     0.004 A 
ATOM      3  C   UNL     1      -2.540   2.477  -1.591  1.00  0.00     0.010 A 
ATOM      4  C   UNL     1      -3.203   2.366  -0.351  1.00  0.00     0.015 A 
ATOM      5  C   UNL     1      -2.503   1.872   0.755  1.00  0.00     0.010 A 
ATOM      6  C   UNL     1      -1.235   1.355   0.602  1.00  0.00     0.004 A 
ENDROOT
BRANCH   4   7
ATOM      7  C   UNL     1      -4.707   2.584  -0.192  1.00  0.00     0.326 C 
BRANCH   7   8
ATOM      8  O   UNL     1      -5.348   1.367   0.143  1.00  0.00    -0.464 OA
BRANCH   8   9
ATOM      9  C   UNL     1      -4.706   0.159   0.071  1.00  0.00     0.123 A 
ATOM     10  C   UNL     1      -2.486  -4.326   0.619  1.00  0.00    -0.006 C 
ATOM     11  C   UNL     1      -3.174  -3.969   2.004  1.00  0.00     0.009 C 
ATOM     12  C   UNL     1      -1.821  -3.063   0.005  1.00  0.00     0.024 C 
ATOM     13  C   UNL     1      -3.103  -2.459   2.379  1.00  0.00     0.036 C 
ATOM     14  C   UNL     1      -2.897  -1.987  -0.048  1.00  0.00    -0.041 A 
ATOM     15  C   UNL     1      -3.509  -1.645   1.175  1.00  0.00    -0.041 A 
ATOM     16  C   UNL     1      -3.314  -1.356  -1.214  1.00  0.00     0.008 A 
ATOM     17  C   UNL     1      -4.421  -0.575   1.238  1.00  0.00     0.050 A 
ATOM     18  C   UNL     1      -4.198  -0.282  -1.161  1.00  0.00     0.047 A 
ATOM     19  C   UNL     1      -3.515  -4.946  -0.343  1.00  0.00     0.008 C 
BRANCH  12  20
ATOM     20  C   UNL     1      -0.889  -3.253  -1.250  1.00  0.00     0.031 C 
BRANCH  20  21
ATOM     21  C   UNL     1      -0.029  -2.005  -1.753  1.00  0.00     0.144 CG0
ATOM     22  G   UNL     1       0.495  -1.026  -0.621  1.00  0.00     0.000 G0
BRANCH  21  23
ATOM     23  S   UNL     1      -0.623  -1.288  -3.354  1.00  0.00     0.268 S 
ATOM     24  O   UNL     1      -1.674  -0.176  -3.366  1.00  0.00    -0.199 OA
ATOM     25  O   UNL     1       0.524  -0.608  -4.114  1.00  0.00    -0.199 OA
BRANCH  23  26
ATOM     26  O   UNL     1      -1.169  -2.424  -4.525  1.00  0.00    -0.285 OA
ATOM     27  H   UNL     1      -2.098  -2.645  -4.263  1.00  0.00     0.234 HD
ENDBRANCH  23  26
ENDBRANCH  21  23
ENDBRANCH  20  21
ENDBRANCH  12  20
ENDBRANCH   8   9
ENDBRANCH   7   8
BRANCH   7  28
ATOM     28  N   UNL     1      -4.916   3.538   0.886  1.00  0.00    -0.206 NA
ATOM     29  C   UNL     1      -5.476   4.705   0.842  1.00  0.00     0.189 C 
ATOM     30  N   UNL     1      -5.550   5.457   2.043  1.00  0.00    -0.370 N 
ATOM     31  N   UNL     1      -6.010   5.271  -0.351  1.00  0.00    -0.370 N 
ATOM     32  H   UNL     1      -5.165   5.082   2.920  1.00  0.00     0.159 HD
ATOM     33  H   UNL     1      -5.983   6.393   2.047  1.00  0.00     0.159 HD
ATOM     34  H   UNL     1      -5.993   4.800  -1.265  1.00  0.00     0.159 HD
ATOM     35  H   UNL     1      -6.439   6.204  -0.319  1.00  0.00     0.159 HD
ENDBRANCH   7  28
ENDBRANCH   4   7
BRANCH   1  36
ATOM     36  C   UNL     1       0.691   0.545  -0.745  1.00  0.00     0.031 C 
ATOM     37  C   UNL     1       1.894   0.992  -1.633  1.00  0.00     0.004 C 
ATOM     38  C   UNL     1       0.495  -1.026  -0.621  1.00  0.00     0.040 CG0
ATOM     39  C   UNL     1       2.847  -0.194  -1.847  1.00  0.00     0.038 C 
ATOM     40  C   UNL     1       1.815  -1.471  -0.015  1.00  0.00    -0.019 C 
ATOM     41  C   UNL     1       2.962  -0.941  -0.543  1.00  0.00    -0.041 C 
ATOM     42  G   UNL     1      -0.029  -2.005  -1.753  1.00  0.00     0.000 G0
BRANCH  37  43
ATOM     43  C   UNL     1       2.682   2.176  -1.004  1.00  0.00     0.036 CG1
ATOM     44  G   UNL     1       3.622   1.955   0.261  1.00  0.00     0.000 G1
ENDBRANCH  37  43
BRANCH  41  45
ATOM     45  C   UNL     1       4.022  -0.456   0.402  1.00  0.00     0.174 C 
BRANCH  45  46
ATOM     46  O   UNL     1       3.483   0.729   0.994  1.00  0.00    -0.366 OA
BRANCH  46  47
ATOM     47  C   UNL     1       3.622   1.955   0.261  1.00  0.00     0.120 CG1
ATOM     48  G   UNL     1       2.682   2.176  -1.004  1.00  0.00     0.000 G1
BRANCH  47  49
ATOM     49  C   UNL     1       5.108   2.340   0.032  1.00  0.00     0.034 C 
BRANCH  49  50
ATOM     50  C   UNL     1       5.448   3.854   0.049  1.00  0.00     0.031 C 
BRANCH  50  51
ATOM     51  C   UNL     1       4.804   4.743  -1.020  1.00  0.00     0.156 C 
BRANCH  51  52
ATOM     52  O   UNL     1       3.440   4.917  -0.762  1.00  0.00    -0.396 OA
ATOM     53  H   UNL     1       3.082   5.460  -1.511  1.00  0.00     0.210 HD
ENDBRANCH  51  52
ENDBRANCH  50  51
ENDBRANCH  49  50
ENDBRANCH  47  49
ENDBRANCH  46  47
ENDBRANCH  45  46
BRANCH  45  54
ATOM     54  C   UNL     1       4.346  -1.458   1.502  1.00  0.00    -0.015 A 
ATOM     55  C   UNL     1       5.399  -2.375   1.341  1.00  0.00     0.010 A 
ATOM     56  C   UNL     1       3.596  -1.492   2.698  1.00  0.00     0.010 A 
ATOM     57  C   UNL     1       5.686  -3.308   2.344  1.00  0.00     0.046 A 
ATOM     58  C   UNL     1       3.880  -2.429   3.692  1.00  0.00     0.046 A 
ATOM     59  C   UNL     1       4.923  -3.341   3.520  1.00  0.00     0.115 A 
BRANCH  59  60
ATOM     60  O   UNL     1       5.179  -4.242   4.490  1.00  0.00    -0.508 OA
ATOM     61  H   UNL     1       5.888  -4.896   4.411  1.00  0.00     0.293 HD
ENDBRANCH  59  60
ENDBRANCH  45  54
ENDBRANCH  41  45
ENDBRANCH   1  36
TORSDOF 9
