REMARK SMILES COc1cccc2ccc(-c3cc(-c4ccc(O)c5c(OC)cccc45)c(O)c4c(OC)cccc34)c(O)c12
REMARK SMILES IDX 11 1 12 2 13 3 27 4 29 5 30 6 33 7 34 8 35 9 36 10 10 11
REMARK SMILES IDX 3 12 4 13 39 14 5 15 37 16 7 17 6 18 8 19 9 20 2 21 1 22
REMARK SMILES IDX 38 23 14 25 15 26 26 27 16 28 25 29 19 30 17 31 24 32 20 33
REMARK SMILES IDX 23 34 18 35 21 37 22 38 28 39 31 41 32 42
REMARK H PARENT 38 24 18 36 28 40
ROOT
ATOM      1  C   UNL     1      -1.274  -0.865  -0.660  1.00  0.00    -0.006 A 
ATOM      2  C   UNL     1      -0.084  -0.323  -1.148  1.00  0.00     0.022 A 
ATOM      3  C   UNL     1       1.125  -1.004  -1.002  1.00  0.00     0.026 A 
ATOM      4  C   UNL     1       1.161  -2.258  -0.354  1.00  0.00     0.135 A 
ATOM      5  C   UNL     1      -0.037  -2.830   0.153  1.00  0.00     0.067 A 
ATOM      6  C   UNL     1      -0.042  -4.085   0.825  1.00  0.00     0.130 A 
ATOM      7  C   UNL     1      -1.258  -4.601   1.318  1.00  0.00     0.047 A 
ATOM      8  C   UNL     1      -2.446  -3.900   1.156  1.00  0.00     0.005 A 
ATOM      9  C   UNL     1      -2.455  -2.674   0.504  1.00  0.00     0.010 A 
ATOM     10  C   UNL     1      -1.263  -2.120  -0.005  1.00  0.00    -0.003 A 
ENDROOT
BRANCH   1  11
ATOM     11  C   UNL     1      -2.516  -0.079  -0.808  1.00  0.00     0.025 A 
ATOM     12  C   UNL     1      -4.589   2.479   1.029  1.00  0.00     0.130 A 
ATOM     13  C   UNL     1      -5.808   3.159   0.823  1.00  0.00     0.047 A 
ATOM     14  C   UNL     1      -4.133   1.556   0.047  1.00  0.00     0.066 A 
ATOM     15  C   UNL     1      -6.564   2.937  -0.326  1.00  0.00     0.004 A 
ATOM     16  C   UNL     1      -2.920   0.833   0.196  1.00  0.00     0.134 A 
ATOM     17  C   UNL     1      -4.919   1.345  -1.119  1.00  0.00    -0.011 A 
ATOM     18  C   UNL     1      -6.125   2.038  -1.292  1.00  0.00     0.009 A 
ATOM     19  C   UNL     1      -4.495   0.440  -2.102  1.00  0.00     0.010 A 
ATOM     20  C   UNL     1      -3.306  -0.265  -1.946  1.00  0.00     0.013 A 
BRANCH  12  21
ATOM     21  O   UNL     1      -3.847   2.692   2.150  1.00  0.00    -0.496 OA
ATOM     22  C   UNL     1      -4.155   3.549   3.187  1.00  0.00     0.278 C 
ENDBRANCH  12  21
BRANCH  16  23
ATOM     23  O   UNL     1      -2.156   1.011   1.299  1.00  0.00    -0.507 OA
ATOM     24  H   UNL     1      -1.320   0.552   1.460  1.00  0.00     0.293 HD
ENDBRANCH  16  23
ENDBRANCH   1  11
BRANCH   3  25
ATOM     25  C   UNL     1       2.362  -0.365  -1.500  1.00  0.00    -0.006 A 
ATOM     26  C   UNL     1       2.769  -0.629  -2.810  1.00  0.00     0.013 A 
ATOM     27  C   UNL     1       3.139   0.486  -0.676  1.00  0.00    -0.003 A 
ATOM     28  C   UNL     1       3.934  -0.061  -3.315  1.00  0.00     0.047 A 
ATOM     29  C   UNL     1       2.746   0.764   0.648  1.00  0.00     0.010 A 
ATOM     30  C   UNL     1       4.337   1.071  -1.187  1.00  0.00     0.066 A 
ATOM     31  C   UNL     1       4.723   0.783  -2.522  1.00  0.00     0.127 A 
ATOM     32  C   UNL     1       3.509   1.597   1.457  1.00  0.00     0.005 A 
ATOM     33  C   UNL     1       5.111   1.920  -0.348  1.00  0.00     0.130 A 
ATOM     34  C   UNL     1       4.678   2.170   0.970  1.00  0.00     0.047 A 
BRANCH  31  35
ATOM     35  O   UNL     1       5.849   1.311  -3.050  1.00  0.00    -0.507 OA
ATOM     36  H   UNL     1       6.135   1.128  -3.957  1.00  0.00     0.293 HD
ENDBRANCH  31  35
BRANCH  33  37
ATOM     37  O   UNL     1       6.258   2.478  -0.824  1.00  0.00    -0.496 OA
ATOM     38  C   UNL     1       7.112   3.310  -0.129  1.00  0.00     0.278 C 
ENDBRANCH  33  37
ENDBRANCH   3  25
BRANCH   4  39
ATOM     39  O   UNL     1       2.339  -2.910  -0.206  1.00  0.00    -0.507 OA
ATOM     40  H   UNL     1       3.188  -2.575  -0.524  1.00  0.00     0.293 HD
ENDBRANCH   4  39
BRANCH   6  41
ATOM     41  O   UNL     1       1.123  -4.770   0.990  1.00  0.00    -0.496 OA
ATOM     42  C   UNL     1       1.278  -5.979   1.637  1.00  0.00     0.278 C 
ENDBRANCH   6  41
TORSDOF 8
