REMARK SMILES CC(=O)O[C@@H]1C[C@@H](OC(C)=O)C(C)(C)[C@H](O)[C@H]2O[C@@]3(C[C@H](C)[C@H](OC(=O)c4ccccc4)[C@@H]3/C=C/1C)[C@@H](OC(C)=O)[C@@H]2C
REMARK SMILES IDX 17 1 18 2 19 3 20 4 21 5 22 6 23 7 33 8 37 9 42 10 43 11
REMARK SMILES IDX 34 12 35 13 36 14 5 15 4 16 2 17 3 18 1 19 6 20 24 22 25 23
REMARK SMILES IDX 26 24 27 25 28 26 32 27 29 28 31 29 30 30 38 31 39 32 41 33
REMARK SMILES IDX 40 34 15 35 12 36 13 37 14 38 7 39 8 41 9 42 11 43 10 44
REMARK SMILES IDX 16 45
REMARK H PARENT 16 46
REMARK Flexibility Score:   48.900
ROOT
ATOM      1  C   UNL     1      -1.195   2.138  -0.297  1.00  0.00     0.155 C 
ATOM      2  O   UNL     1      -0.117   1.441  -0.873  1.00  0.00    -0.364 OA
ATOM      3  C   UNL     1       1.029   1.892  -0.141  1.00  0.00     0.116 C 
ATOM      4  C   UNL     1       2.320   1.881  -0.979  1.00  0.00     0.047 C 
ATOM      5  C   UNL     1       3.388   1.795   0.125  1.00  0.00     0.031 C 
ATOM      6  C   UNL     1       4.820   1.637  -0.391  1.00  0.00     0.012 C 
ATOM      7  C   UNL     1       2.881   0.609   0.953  1.00  0.00     0.189 C 
ATOM      8  C   UNL     1       1.353   0.871   1.030  1.00  0.00     0.089 C 
ATOM      9  C   UNL     1       0.668   3.342   0.356  1.00  0.00     0.214 C 
ATOM     10  C   UNL     1      -0.675   3.564  -0.325  1.00  0.00     0.062 C 
ATOM     11  C   UNL     1      -1.526   4.627   0.387  1.00  0.00     0.014 C 
ENDROOT
BRANCH   8  12
ATOM     12  C   UNL     1       0.531  -0.373   0.743  1.00  0.00    -0.014 C 
ATOM     13  C   UNL     1      -0.466  -0.937   1.456  1.00  0.00    -0.036 C 
ATOM     14  C   UNL     1      -0.777  -0.590   2.900  1.00  0.00     0.043 C 
BRANCH  13  15
ATOM     15  C   UNL     1      -1.275  -2.009   0.734  1.00  0.00     0.206 C 
BRANCH  15  16
ATOM     16  O   UNL     1      -0.404  -3.074   0.532  1.00  0.00    -0.458 OA
BRANCH  16  17
ATOM     17  C   UNL     1      -0.542  -4.324   1.047  1.00  0.00     0.303 C 
ATOM     18  O   UNL     1      -1.510  -4.625   1.732  1.00  0.00    -0.253 OA
ATOM     19  C   UNL     1       0.521  -5.343   0.779  1.00  0.00     0.139 C 
ENDBRANCH  16  17
ENDBRANCH  15  16
BRANCH  15  20
ATOM     20  C   UNL     1      -1.816  -1.552  -0.685  1.00  0.00     0.096 CG0
ATOM     21  G   UNL     1      -3.171  -0.807  -0.933  1.00  0.00     0.000 G0
ENDBRANCH  15  20
ENDBRANCH  13  15
ENDBRANCH   8  12
BRANCH   7  22
ATOM     22  O   UNL     1       3.122  -0.560   0.240  1.00  0.00    -0.458 OA
BRANCH  22  23
ATOM     23  C   UNL     1       3.733  -1.682   0.702  1.00  0.00     0.338 C 
ATOM     24  O   UNL     1       4.182  -1.726   1.839  1.00  0.00    -0.246 OA
BRANCH  23  25
ATOM     25  C   UNL     1       3.811  -2.870  -0.180  1.00  0.00     0.060 A 
ATOM     26  C   UNL     1       3.296  -2.813  -1.489  1.00  0.00     0.015 A 
ATOM     27  C   UNL     1       4.390  -4.070   0.273  1.00  0.00     0.015 A 
ATOM     28  C   UNL     1       3.360  -3.931  -2.325  1.00  0.00     0.001 A 
ATOM     29  C   UNL     1       4.450  -5.186  -0.568  1.00  0.00     0.001 A 
ATOM     30  C   UNL     1       3.937  -5.117  -1.865  1.00  0.00     0.000 A 
ENDBRANCH  23  25
ENDBRANCH  22  23
ENDBRANCH   7  22
BRANCH   9  31
ATOM     31  O   UNL     1       1.543   4.343  -0.043  1.00  0.00    -0.459 OA
BRANCH  31  32
ATOM     32  C   UNL     1       2.131   5.258   0.768  1.00  0.00     0.303 C 
ATOM     33  O   UNL     1       1.963   5.232   1.979  1.00  0.00    -0.253 OA
ATOM     34  C   UNL     1       2.978   6.331   0.164  1.00  0.00     0.139 C 
ENDBRANCH  31  32
ENDBRANCH   9  31
BRANCH   1  35
ATOM     35  C   UNL     1      -2.553   1.874  -1.016  1.00  0.00     0.153 C 
BRANCH  35  36
ATOM     36  C   UNL     1      -3.507   0.692  -0.514  1.00  0.00     0.030 C 
ATOM     37  C   UNL     1      -3.698   0.782   1.009  1.00  0.00     0.018 C 
ATOM     38  C   UNL     1      -4.909   1.014  -1.125  1.00  0.00     0.018 C 
BRANCH  36  39
ATOM     39  C   UNL     1      -3.171  -0.807  -0.933  1.00  0.00     0.188 CG0
ATOM     40  G   UNL     1      -1.816  -1.552  -0.685  1.00  0.00     0.000 G0
BRANCH  39  41
ATOM     41  O   UNL     1      -4.182  -1.631  -0.448  1.00  0.00    -0.462 OA
BRANCH  41  42
ATOM     42  C   UNL     1      -5.111  -2.282  -1.201  1.00  0.00     0.302 C 
ATOM     43  O   UNL     1      -5.050  -2.284  -2.422  1.00  0.00    -0.253 OA
ATOM     44  C   UNL     1      -6.254  -2.969  -0.527  1.00  0.00     0.139 C 
ENDBRANCH  41  42
ENDBRANCH  39  41
ENDBRANCH  36  39
ENDBRANCH  35  36
BRANCH  35  45
ATOM     45  O   UNL     1      -2.409   1.897  -2.413  1.00  0.00    -0.390 OA
ATOM     46  H   UNL     1      -1.892   1.088  -2.663  1.00  0.00     0.211 HD
ENDBRANCH  35  45
ENDBRANCH   1  35
TORSDOF 10
