REMARK SMILES CCC=CCCC=CCO
REMARK SMILES IDX 6 1 5 2 4 3 3 4 2 5 1 6 7 7 8 8 9 9 10 10
REMARK H PARENT 10 11
ROOT
ATOM      1  C   UNL     1       1.153  -0.798  -0.629  1.00  0.00     0.031 C 
ENDROOT
BRANCH   1   2
ATOM      2  C   UNL     1       0.168  -1.149   0.496  1.00  0.00     0.031 C 
BRANCH   2   3
ATOM      3  C   UNL     1      -1.175  -0.484   0.316  1.00  0.00    -0.031 C 
ATOM      4  C   UNL     1      -2.306  -1.198   0.166  1.00  0.00    -0.032 C 
BRANCH   4   5
ATOM      5  C   UNL     1      -3.687  -0.604  -0.020  1.00  0.00     0.023 C 
ATOM      6  C   UNL     1      -3.749   0.924  -0.045  1.00  0.00     0.008 C 
ENDBRANCH   4   5
ENDBRANCH   2   3
ENDBRANCH   1   2
BRANCH   1   7
ATOM      7  C   UNL     1       1.422   0.691  -0.705  1.00  0.00    -0.029 C 
ATOM      8  C   UNL     1       2.604   1.312  -0.518  1.00  0.00    -0.004 C 
BRANCH   8   9
ATOM      9  C   UNL     1       3.926   0.668  -0.182  1.00  0.00     0.183 C 
BRANCH   9  10
ATOM     10  O   UNL     1       4.385   1.151   1.051  1.00  0.00    -0.392 OA
ATOM     11  H   UNL     1       4.740   2.063   0.888  1.00  0.00     0.210 HD
ENDBRANCH   9  10
ENDBRANCH   8   9
ENDBRANCH   1   7
TORSDOF 6
