REMARK SMILES C[C@@H]1CC[C@H]2[C@H](C(=O)c3c(O)c([C@]4(O)CCC(=O)C[C@@H]4O)cn(O)c3=O)[C@H](C)C=C[C@@H]2C1
REMARK SMILES IDX 9 1 10 2 12 3 22 4 23 5 25 6 26 7 7 8 8 9 6 10 2 11 3 12
REMARK SMILES IDX 32 13 4 14 31 15 5 16 30 17 29 18 27 19 1 20 28 21 11 22
REMARK SMILES IDX 13 24 15 25 20 26 16 27 19 28 17 29 18 30 14 31 21 33 24 35
REMARK H PARENT 11 23 14 32 21 34 24 36
ROOT
ATOM      1  C   UNL     1       0.671  -0.631  -0.572  1.00  0.00     0.128 A 
ATOM      2  C   UNL     1       1.832  -0.193   0.132  1.00  0.00     0.139 A 
ATOM      3  C   UNL     1       3.122  -0.285  -0.464  1.00  0.00     0.049 A 
ATOM      4  C   UNL     1       3.204  -0.823  -1.764  1.00  0.00     0.144 A 
ATOM      5  N   UNL     1       2.098  -1.248  -2.428  1.00  0.00    -0.154 N 
ATOM      6  C   UNL     1       0.849  -1.159  -1.872  1.00  0.00     0.297 A 
ATOM      7  O   UNL     1      -0.102  -1.571  -2.512  1.00  0.00    -0.265 OA
ENDROOT
BRANCH   1   8
ATOM      8  C   UNL     1      -0.710  -0.525   0.032  1.00  0.00     0.176 C 
ATOM      9  O   UNL     1      -0.856  -0.707   1.230  1.00  0.00    -0.293 OA
BRANCH   8  10
ATOM     10  C   UNL     1      -1.920  -0.080  -0.799  1.00  0.00     0.072 C 
ATOM     11  C   UNL     1      -5.975  -0.645   0.850  1.00  0.00    -0.014 C 
ATOM     12  C   UNL     1      -5.138  -1.896   0.537  1.00  0.00     0.003 C 
ATOM     13  C   UNL     1      -5.731   0.446  -0.246  1.00  0.00     0.011 C 
ATOM     14  C   UNL     1      -3.615  -1.579   0.490  1.00  0.00     0.005 C 
ATOM     15  C   UNL     1      -4.421   0.235  -1.061  1.00  0.00     0.015 C 
ATOM     16  C   UNL     1      -3.290  -0.159  -0.087  1.00  0.00     0.007 C 
ATOM     17  C   UNL     1      -4.111   1.438  -1.918  1.00  0.00    -0.027 C 
ATOM     18  C   UNL     1      -2.880   1.962  -2.013  1.00  0.00    -0.027 C 
ATOM     19  C   UNL     1      -1.673   1.382  -1.311  1.00  0.00     0.019 C 
ATOM     20  C   UNL     1      -5.693  -0.137   2.275  1.00  0.00     0.007 C 
ATOM     21  C   UNL     1      -1.255   2.379  -0.211  1.00  0.00     0.013 C 
ENDBRANCH   8  10
ENDBRANCH   1   8
BRANCH   2  22
ATOM     22  O   UNL     1       1.742   0.384   1.353  1.00  0.00    -0.507 OA
ATOM     23  H   UNL     1       0.930   0.588   1.830  1.00  0.00     0.293 HD
ENDBRANCH   2  22
BRANCH   3  24
ATOM     24  C   UNL     1       4.369   0.271   0.287  1.00  0.00     0.121 C 
ATOM     25  C   UNL     1       5.719   0.226  -0.544  1.00  0.00     0.051 C 
ATOM     26  C   UNL     1       4.618  -0.458   1.653  1.00  0.00     0.158 C 
ATOM     27  C   UNL     1       7.010   0.182   0.307  1.00  0.00     0.079 C 
ATOM     28  C   UNL     1       5.641   0.381   2.482  1.00  0.00     0.110 C 
ATOM     29  C   UNL     1       6.830   0.799   1.652  1.00  0.00     0.135 C 
ATOM     30  O   UNL     1       7.632   1.615   2.078  1.00  0.00    -0.300 OA
BRANCH  24  31
ATOM     31  O   UNL     1       4.095   1.625   0.585  1.00  0.00    -0.382 OA
ATOM     32  H   UNL     1       3.909   2.099  -0.269  1.00  0.00     0.211 HD
ENDBRANCH  24  31
BRANCH  26  33
ATOM     33  O   UNL     1       5.077  -1.766   1.422  1.00  0.00    -0.389 OA
ATOM     34  H   UNL     1       5.094  -2.224   2.303  1.00  0.00     0.211 HD
ENDBRANCH  26  33
ENDBRANCH   3  24
BRANCH   5  35
ATOM     35  O   UNL     1       2.219  -1.761  -3.657  1.00  0.00    -0.425 OA
ATOM     36  H   UNL     1       3.075  -1.856  -4.098  1.00  0.00     0.328 HD
ENDBRANCH   5  35
TORSDOF 7
