REMARK SMILES C[C@H]1CC[C@]2(NC1)O[C@@H]1C[C@@H]3[C@H]4CC[C@@H]5C[C@H](O)CC[C@]5(C)[C@@H]4CC[C@]3(C)[C@@H]1[C@@H]2C
REMARK SMILES IDX 1 1 2 2 3 3 4 4 5 5 6 6 7 7 8 8 9 9 10 10 11 11 12 12 13 13
REMARK SMILES IDX 14 14 15 15 16 16 17 17 19 18 20 19 21 20 22 21 23 22 24 23
REMARK SMILES IDX 25 24 26 25 27 26 28 27 29 28 30 29 18 31
REMARK H PARENT 6 30 18 32
ROOT
ATOM      1  C   UNL     1      -7.675  -0.169   0.168  1.00  0.00     0.009 C 
ATOM      2  C   UNL     1      -6.573  -1.243   0.082  1.00  0.00    -0.000 C 
ATOM      3  C   UNL     1      -5.795  -1.187  -1.245  1.00  0.00     0.009 C 
ATOM      4  C   UNL     1      -4.932   0.078  -1.313  1.00  0.00     0.053 C 
ATOM      5  C   UNL     1      -3.950   0.167  -0.109  1.00  0.00     0.122 C 
ATOM      6  N   UNL     1      -4.732   0.074   1.157  1.00  0.00    -0.289 NA
ATOM      7  C   UNL     1      -5.573  -1.137   1.251  1.00  0.00     0.087 C 
ATOM      8  O   UNL     1      -3.328   1.442  -0.145  1.00  0.00    -0.357 OA
ATOM      9  C   UNL     1      -2.130   1.330   0.602  1.00  0.00     0.125 C 
ATOM     10  C   UNL     1      -0.902   1.759  -0.186  1.00  0.00     0.037 C 
ATOM     11  C   UNL     1       0.235   1.180   0.647  1.00  0.00     0.001 C 
ATOM     12  C   UNL     1       1.576   1.067  -0.148  1.00  0.00    -0.004 C 
ATOM     13  C   UNL     1       2.180   2.388  -0.626  1.00  0.00     0.004 C 
ATOM     14  C   UNL     1       3.331   2.022  -1.581  1.00  0.00     0.004 C 
ATOM     15  C   UNL     1       4.435   1.107  -0.968  1.00  0.00    -0.002 C 
ATOM     16  C   UNL     1       4.880   0.018  -1.954  1.00  0.00     0.036 C 
ATOM     17  C   UNL     1       6.198  -0.653  -1.476  1.00  0.00     0.114 C 
ATOM     18  C   UNL     1       6.337  -0.727   0.071  1.00  0.00     0.032 C 
ATOM     19  C   UNL     1       4.957  -0.829   0.723  1.00  0.00     0.010 C 
ATOM     20  C   UNL     1       4.104   0.475   0.455  1.00  0.00    -0.026 C 
ATOM     21  C   UNL     1       4.581   1.532   1.515  1.00  0.00     0.012 C 
ATOM     22  C   UNL     1       2.546   0.206   0.691  1.00  0.00    -0.001 C 
ATOM     23  C   UNL     1       2.009  -1.272   0.667  1.00  0.00     0.005 C 
ATOM     24  C   UNL     1       0.454  -1.373   0.510  1.00  0.00     0.008 C 
ATOM     25  C   UNL     1      -0.308  -0.206   1.190  1.00  0.00    -0.024 C 
ATOM     26  C   UNL     1      -0.097  -0.320   2.730  1.00  0.00     0.012 C 
ATOM     27  C   UNL     1      -1.868  -0.129   0.938  1.00  0.00     0.031 C 
ATOM     28  C   UNL     1      -2.756  -0.855  -0.108  1.00  0.00     0.039 C 
ATOM     29  C   UNL     1      -2.214  -1.106  -1.538  1.00  0.00     0.012 C 
ATOM     30  H   UNL     1      -5.330   0.925   1.270  1.00  0.00     0.125 HD
ENDROOT
BRANCH  17  31
ATOM     31  O   UNL     1       6.321  -1.920  -2.072  1.00  0.00    -0.393 OA
ATOM     32  H   UNL     1       5.630  -2.510  -1.672  1.00  0.00     0.210 HD
ENDBRANCH  17  31
TORSDOF 1
