REMARK SMILES O=C(N[C@H]1[C@H](O)[C@H](O)C[C@@H]1c1cccnc1)c1cnccn1
REMARK SMILES IDX 4 1 5 2 7 3 9 4 10 5 3 6 1 7 2 8 17 10 18 11 22 12 19 13
REMARK SMILES IDX 21 14 20 15 6 16 11 18 12 19 16 20 13 21 15 22 14 23 8 24
REMARK H PARENT 3 9 6 17 8 25
ROOT
ATOM      1  C   UNL     1      -0.212   0.340  -1.131  1.00  0.00     0.121 C 
ATOM      2  C   UNL     1      -0.239   0.084  -2.663  1.00  0.00     0.166 C 
ATOM      3  C   UNL     1      -1.694  -0.340  -2.959  1.00  0.00     0.145 C 
ATOM      4  C   UNL     1      -2.502   0.209  -1.786  1.00  0.00     0.045 C 
ATOM      5  C   UNL     1      -1.575  -0.165  -0.626  1.00  0.00     0.048 C 
ENDROOT
BRANCH   1   6
ATOM      6  N   UNL     1       0.906  -0.326  -0.482  1.00  0.00    -0.345 N 
ATOM      7  O   UNL     1       1.788   1.546   0.387  1.00  0.00    -0.267 OA
ATOM      8  C   UNL     1       1.858   0.334   0.239  1.00  0.00     0.271 C 
ATOM      9  H   UNL     1       0.972  -1.349  -0.591  1.00  0.00     0.164 HD
BRANCH   8  10
ATOM     10  C   UNL     1       2.995  -0.410   0.844  1.00  0.00     0.146 A 
ATOM     11  C   UNL     1       3.978   0.250   1.600  1.00  0.00     0.145 A 
ATOM     12  N   UNL     1       3.107  -1.755   0.661  1.00  0.00    -0.248 NA
ATOM     13  N   UNL     1       5.010  -0.461   2.127  1.00  0.00    -0.261 NA
ATOM     14  C   UNL     1       4.140  -2.464   1.188  1.00  0.00     0.132 A 
ATOM     15  C   UNL     1       5.112  -1.802   1.937  1.00  0.00     0.131 A 
ENDBRANCH   8  10
ENDBRANCH   1   6
BRANCH   2  16
ATOM     16  O   UNL     1       0.154   1.241  -3.364  1.00  0.00    -0.388 OA
ATOM     17  H   UNL     1      -0.505   1.958  -3.173  1.00  0.00     0.211 HD
ENDBRANCH   2  16
BRANCH   5  18
ATOM     18  C   UNL     1      -2.001   0.402   0.715  1.00  0.00    -0.024 A 
ATOM     19  C   UNL     1      -2.263  -0.456   1.795  1.00  0.00     0.007 A 
ATOM     20  C   UNL     1      -2.155   1.788   0.912  1.00  0.00     0.115 A 
ATOM     21  C   UNL     1      -2.663   0.067   3.026  1.00  0.00     0.020 A 
ATOM     22  N   UNL     1      -2.546   2.270   2.122  1.00  0.00    -0.264 NA
ATOM     23  C   UNL     1      -2.800   1.447   3.172  1.00  0.00     0.111 A 
ENDBRANCH   5  18
BRANCH   3  24
ATOM     24  O   UNL     1      -2.161   0.020  -4.235  1.00  0.00    -0.390 OA
ATOM     25  H   UNL     1      -2.388   0.985  -4.213  1.00  0.00     0.211 HD
ENDBRANCH   3  24
TORSDOF 5
