REMARK SMILES C/C=C(\C)C(=O)O[C@@H]1[C@H]2[C@@H](OC(C)=O)[C@@H](C)C[C@]2(OC(=O)/C(C)=C/C)[C@H](OC(C)=O)[C@]2(C)O[C@H](OC(C)=O)[C@]13[C@@H](OC(C)=O)C[C@H]1[C@@H]([C@@H]23)C1(C)C
REMARK SMILES IDX 8 1 7 2 5 3 6 4 3 5 2 6 1 7 4 8 9 9 10 10 18 11 15 12 17 13
REMARK SMILES IDX 16 14 11 16 12 17 14 18 13 19 19 20 20 21 21 22 22 23 24 24
REMARK SMILES IDX 23 25 25 26 39 27 34 28 40 29 48 30 33 31 45 32 47 33 31 34
REMARK SMILES IDX 46 35 49 36 32 37 50 38 51 39 35 40 36 41 38 42 37 43 41 44
REMARK SMILES IDX 42 45 44 46 43 47 26 48 27 50 28 51 30 52 29 53
REMARK H PARENT
REMARK Flexibility Score:   29.900
ROOT
ATOM      1  C   UNL     1      -0.024   0.584  -0.370  1.00  0.00     0.204 C 
ENDROOT
BRANCH   1   2
ATOM      2  O   UNL     1      -0.209   1.858  -0.916  1.00  0.00    -0.457 OA
BRANCH   2   3
ATOM      3  C   UNL     1       0.489   2.962  -0.479  1.00  0.00     0.333 C 
ATOM      4  O   UNL     1       1.340   2.848   0.395  1.00  0.00    -0.247 OA
BRANCH   3   5
ATOM      5  C   UNL     1       0.224   4.326  -1.004  1.00  0.00     0.030 C 
ATOM      6  C   UNL     1      -0.706   4.522  -1.964  1.00  0.00    -0.020 C 
ATOM      7  C   UNL     1      -1.029   5.875  -2.531  1.00  0.00     0.036 C 
ATOM      8  C   UNL     1       1.033   5.462  -0.404  1.00  0.00     0.052 C 
ENDBRANCH   3   5
ENDBRANCH   2   3
ENDBRANCH   1   2
BRANCH   1   9
ATOM      9  C   UNL     1       0.551  -0.367  -1.463  1.00  0.00     0.120 C 
ATOM     10  C   UNL     1       1.608   0.211  -2.419  1.00  0.00     0.190 C 
ATOM     11  C   UNL     1       1.229  -1.644  -0.893  1.00  0.00     0.162 CG0
ATOM     12  C   UNL     1       2.032  -1.076  -3.140  1.00  0.00     0.032 C 
ATOM     13  C   UNL     1       2.296  -2.026  -1.975  1.00  0.00     0.060 C 
ATOM     14  C   UNL     1       3.214  -0.911  -4.099  1.00  0.00     0.012 C 
ATOM     15  G   UNL     1       0.175  -2.764  -0.614  1.00  0.00     0.000 G0
BRANCH  10  16
ATOM     16  O   UNL     1       2.680   0.757  -1.726  1.00  0.00    -0.462 OA
BRANCH  16  17
ATOM     17  C   UNL     1       3.217   1.987  -1.950  1.00  0.00     0.302 C 
ATOM     18  O   UNL     1       2.776   2.718  -2.827  1.00  0.00    -0.253 OA
ATOM     19  C   UNL     1       4.366   2.451  -1.121  1.00  0.00     0.139 C 
ENDBRANCH  16  17
ENDBRANCH  10  16
BRANCH  11  20
ATOM     20  O   UNL     1       1.924  -1.300   0.269  1.00  0.00    -0.451 OA
BRANCH  20  21
ATOM     21  C   UNL     1       2.772  -2.068   1.011  1.00  0.00     0.334 C 
ATOM     22  O   UNL     1       2.958  -3.242   0.725  1.00  0.00    -0.247 OA
BRANCH  21  23
ATOM     23  C   UNL     1       3.522  -1.451   2.143  1.00  0.00     0.030 C 
ATOM     24  C   UNL     1       3.369  -0.129   2.401  1.00  0.00    -0.020 C 
ATOM     25  C   UNL     1       4.454  -2.307   2.974  1.00  0.00     0.052 C 
ATOM     26  C   UNL     1       4.072   0.628   3.495  1.00  0.00     0.036 C 
ENDBRANCH  21  23
ENDBRANCH  20  21
ENDBRANCH  11  20
ENDBRANCH   1   9
BRANCH   1  27
ATOM     27  C   UNL     1      -1.330   0.076   0.390  1.00  0.00     0.113 C 
ATOM     28  C   UNL     1      -2.426  -0.490  -0.546  1.00  0.00     0.325 C 
ATOM     29  C   UNL     1      -1.859   1.246   1.330  1.00  0.00     0.193 C 
ATOM     30  C   UNL     1      -1.041  -1.232   1.173  1.00  0.00     0.049 C 
ATOM     31  O   UNL     1      -2.008  -1.767  -0.967  1.00  0.00    -0.331 OA
ATOM     32  C   UNL     1      -1.408   1.018   2.778  1.00  0.00     0.050 C 
ATOM     33  C   UNL     1      -2.076  -1.401   2.344  1.00  0.00     0.006 C 
ATOM     34  C   UNL     1      -1.183  -2.322   0.051  1.00  0.00     0.115 C 
ATOM     35  C   UNL     1      -2.156  -0.195   3.371  1.00  0.00     0.003 C 
ATOM     36  C   UNL     1      -1.565  -1.534   3.773  1.00  0.00    -0.029 C 
ATOM     37  C   UNL     1      -1.859  -3.624   0.558  1.00  0.00     0.047 C 
ATOM     38  C   UNL     1      -0.077  -1.545   4.176  1.00  0.00     0.011 C 
ATOM     39  C   UNL     1      -2.473  -2.384   4.668  1.00  0.00     0.011 C 
BRANCH  28  40
ATOM     40  O   UNL     1      -2.676   0.307  -1.650  1.00  0.00    -0.435 OA
BRANCH  40  41
ATOM     41  C   UNL     1      -3.922   0.642  -2.091  1.00  0.00     0.304 C 
ATOM     42  O   UNL     1      -4.925   0.277  -1.492  1.00  0.00    -0.253 OA
ATOM     43  C   UNL     1      -4.081   1.412  -3.358  1.00  0.00     0.139 C 
ENDBRANCH  40  41
ENDBRANCH  28  40
BRANCH  29  44
ATOM     44  O   UNL     1      -3.247   1.347   1.300  1.00  0.00    -0.462 OA
BRANCH  44  45
ATOM     45  C   UNL     1      -3.955   2.430   0.875  1.00  0.00     0.302 C 
ATOM     46  O   UNL     1      -3.393   3.442   0.482  1.00  0.00    -0.253 OA
ATOM     47  C   UNL     1      -5.449   2.381   0.871  1.00  0.00     0.139 C 
ENDBRANCH  44  45
ENDBRANCH  29  44
BRANCH  34  48
ATOM     48  C   UNL     1       0.175  -2.764  -0.614  1.00  0.00     0.253 CG0
ATOM     49  G   UNL     1       1.229  -1.644  -0.893  1.00  0.00     0.000 G0
BRANCH  48  50
ATOM     50  O   UNL     1      -0.136  -3.402  -1.811  1.00  0.00    -0.455 OA
BRANCH  50  51
ATOM     51  C   UNL     1       0.121  -4.703  -2.115  1.00  0.00     0.303 C 
ATOM     52  O   UNL     1       0.672  -5.444  -1.313  1.00  0.00    -0.253 OA
ATOM     53  C   UNL     1      -0.274  -5.236  -3.453  1.00  0.00     0.139 C 
ENDBRANCH  50  51
ENDBRANCH  48  50
ENDBRANCH  34  48
ENDBRANCH   1  27
TORSDOF 14
