REMARK SMILES CCC[C@H]1CC#C[C@]23CC[C@]45[C@@H]([C@@H](O)C[C@](O)(O[C@@H]4Cc4ccc(CCOC)cc4)[C@@H]5CCC)[C@]2(C)C[C@@H]2CC[C@H]4[C@@H]5[C@@](C)(CC[C@@]3(C)[C@@]25CC1)CC[C@@]4(C)C(=O)O
REMARK SMILES IDX 7 1 8 2 9 3 10 4 11 5 12 6 13 7 15 8 16 9 18 10 19 11 31 12
REMARK SMILES IDX 35 13 36 14 37 15 38 16 39 17 40 18 41 19 42 20 43 21 44 22
REMARK SMILES IDX 45 23 46 24 47 25 48 26 49 27 52 28 53 29 54 30 55 31 50 32
REMARK SMILES IDX 51 33 4 34 3 36 2 37 1 38 6 39 5 40 56 42 57 43 58 44 14 46
REMARK SMILES IDX 20 48 21 49 22 50 30 51 23 52 29 53 24 54 25 55 26 56 27 57
REMARK SMILES IDX 28 58 32 59 33 60 34 61 17 62
REMARK H PARENT 58 45 14 47 17 63
REMARK Flexibility Score:   19.900
ROOT
ATOM      1  C   UNL     1      -1.085  -1.169   0.355  1.00  0.00    -0.095 C 
ATOM      2  C   UNL     1      -0.459  -0.144  -0.526  1.00  0.00     0.043 C 
ATOM      3  C   UNL     1       0.628  -0.913  -1.348  1.00  0.00     0.022 C 
ATOM      4  C   UNL     1       1.537  -1.768  -0.437  1.00  0.00     0.012 C 
ATOM      5  C   UNL     1       2.233  -1.047   0.760  1.00  0.00     0.011 C 
ATOM      6  C   UNL     1       1.263   0.069   1.431  1.00  0.00     0.035 C 
ATOM      7  C   UNL     1       2.062   0.883   2.500  1.00  0.00     0.124 C 
ATOM      8  C   UNL     1       2.784  -0.063   3.464  1.00  0.00     0.098 C 
ATOM      9  C   UNL     1       3.555  -1.152   2.700  1.00  0.00     0.171 C 
ATOM     10  O   UNL     1       4.395  -0.544   1.736  1.00  0.00    -0.346 OA
ATOM     11  C   UNL     1       3.731  -0.656   0.478  1.00  0.00     0.133 C 
ATOM     12  C   UNL     1       2.583  -2.058   1.908  1.00  0.00     0.058 C 
ATOM     13  C   UNL     1       0.312   0.914   0.426  1.00  0.00    -0.009 C 
ATOM     14  C   UNL     1       1.201   1.964  -0.310  1.00  0.00     0.013 C 
ATOM     15  C   UNL     1      -0.773   1.755   1.219  1.00  0.00     0.013 C 
ATOM     16  C   UNL     1      -1.932   2.351   0.328  1.00  0.00    -0.003 C 
ATOM     17  C   UNL     1      -2.862   3.299   1.128  1.00  0.00     0.004 C 
ATOM     18  C   UNL     1      -3.768   4.082   0.153  1.00  0.00     0.005 C 
ATOM     19  C   UNL     1      -4.629   3.222  -0.823  1.00  0.00     0.010 C 
ATOM     20  C   UNL     1      -3.769   2.043  -1.433  1.00  0.00     0.006 C 
ATOM     21  C   UNL     1      -4.513   1.192  -2.538  1.00  0.00    -0.029 C 
ATOM     22  C   UNL     1      -4.510   1.956  -3.896  1.00  0.00     0.011 C 
ATOM     23  C   UNL     1      -3.869  -0.237  -2.744  1.00  0.00     0.008 C 
ATOM     24  C   UNL     1      -2.382  -0.549  -2.353  1.00  0.00     0.009 C 
ATOM     25  C   UNL     1      -1.659   0.500  -1.426  1.00  0.00    -0.009 C 
ATOM     26  C   UNL     1      -1.015   1.447  -2.523  1.00  0.00     0.013 C 
ATOM     27  C   UNL     1      -2.764   1.258  -0.475  1.00  0.00    -0.016 C 
ATOM     28  C   UNL     1      -6.018   0.967  -2.150  1.00  0.00     0.008 C 
ATOM     29  C   UNL     1      -6.770   2.230  -1.709  1.00  0.00     0.019 C 
ATOM     30  C   UNL     1      -6.138   2.911  -0.451  1.00  0.00     0.068 C 
ATOM     31  C   UNL     1      -6.931   4.230  -0.240  1.00  0.00     0.024 C 
ENDROOT
BRANCH  27  32
ATOM     32  C   UNL     1      -3.534   0.375   0.648  1.00  0.00     0.008 C 
BRANCH  32  33
ATOM     33  C   UNL     1      -4.204  -1.026   0.457  1.00  0.00     0.005 C 
BRANCH  33  34
ATOM     34  C   UNL     1      -4.126  -1.940   1.737  1.00  0.00     0.001 CG0
ATOM     35  G   UNL     1      -2.647  -2.247   2.179  1.00  0.00     0.000 G0
BRANCH  34  36
ATOM     36  C   UNL     1      -4.864  -3.287   1.543  1.00  0.00     0.004 C 
BRANCH  36  37
ATOM     37  C   UNL     1      -6.383  -3.131   1.370  1.00  0.00    -0.003 C 
ATOM     38  C   UNL     1      -7.071  -4.494   1.373  1.00  0.00     0.004 C 
ENDBRANCH  36  37
ENDBRANCH  34  36
ENDBRANCH  33  34
ENDBRANCH  32  33
ENDBRANCH  27  32
BRANCH   1  39
ATOM     39  C   UNL     1      -1.675  -1.847   1.157  1.00  0.00    -0.102 C 
ATOM     40  C   UNL     1      -2.647  -2.247   2.179  1.00  0.00     0.093 CG0
ATOM     41  G   UNL     1      -4.126  -1.940   1.737  1.00  0.00     0.000 G0
ENDBRANCH   1  39
BRANCH  30  42
ATOM     42  C   UNL     1      -6.363   2.086   0.821  1.00  0.00     0.309 C 
ATOM     43  O   UNL     1      -6.948   1.015   0.775  1.00  0.00    -0.252 OA
BRANCH  42  44
ATOM     44  O   UNL     1      -6.008   2.558   2.037  1.00  0.00    -0.481 OA
ATOM     45  H   UNL     1      -5.608   3.424   2.170  1.00  0.00     0.296 HD
ENDBRANCH  42  44
ENDBRANCH  30  42
BRANCH   7  46
ATOM     46  O   UNL     1       1.268   1.772   3.241  1.00  0.00    -0.393 OA
ATOM     47  H   UNL     1       0.594   1.235   3.735  1.00  0.00     0.210 HD
ENDBRANCH   7  46
BRANCH  11  48
ATOM     48  C   UNL     1       4.185   0.484  -0.453  1.00  0.00     0.068 C 
BRANCH  48  49
ATOM     49  C   UNL     1       5.708   0.512  -0.470  1.00  0.00    -0.045 A 
ATOM     50  C   UNL     1       6.444  -0.619  -0.876  1.00  0.00     0.004 A 
ATOM     51  C   UNL     1       6.406   1.645  -0.017  1.00  0.00     0.004 A 
ATOM     52  C   UNL     1       7.834  -0.638  -0.773  1.00  0.00     0.004 A 
ATOM     53  C   UNL     1       7.804   1.634   0.059  1.00  0.00     0.004 A 
ATOM     54  C   UNL     1       8.525   0.483  -0.296  1.00  0.00    -0.046 A 
BRANCH  54  55
ATOM     55  C   UNL     1      10.023   0.433  -0.141  1.00  0.00     0.064 C 
BRANCH  55  56
ATOM     56  C   UNL     1      10.738   1.306  -1.179  1.00  0.00     0.164 C 
BRANCH  56  57
ATOM     57  O   UNL     1      10.415   0.910  -2.502  1.00  0.00    -0.384 OA
ATOM     58  C   UNL     1      11.168  -0.223  -2.886  1.00  0.00     0.194 C 
ENDBRANCH  56  57
ENDBRANCH  55  56
ENDBRANCH  54  55
ENDBRANCH  48  49
ENDBRANCH  11  48
BRANCH  12  59
ATOM     59  C   UNL     1       3.304  -3.435   1.589  1.00  0.00     0.009 C 
BRANCH  59  60
ATOM     60  C   UNL     1       2.483  -4.512   0.855  1.00  0.00    -0.003 C 
ATOM     61  C   UNL     1       3.241  -5.839   0.815  1.00  0.00     0.004 C 
ENDBRANCH  59  60
ENDBRANCH  12  59
BRANCH   9  62
ATOM     62  O   UNL     1       4.305  -1.897   3.628  1.00  0.00    -0.365 OA
ATOM     63  H   UNL     1       5.092  -1.346   3.880  1.00  0.00     0.214 HD
ENDBRANCH   9  62
TORSDOF 13
