REMARK SMILES C[C@]12c3ccccc3[C@H](c3ccccc31)[C@H]1C(=O)N(c3cccc4ccccc34)C(=O)[C@H]12
REMARK SMILES IDX 1 1 2 2 3 3 4 4 5 5 6 6 7 7 8 8 9 9 10 10 11 11 12 12 13 13
REMARK SMILES IDX 14 14 15 15 16 16 17 17 18 18 19 19 30 20 31 21 32 22 20 23
REMARK SMILES IDX 21 24 29 25 22 26 28 27 24 28 23 29 27 30 25 31 26 32
REMARK H PARENT
ROOT
ATOM      1  C   UNL     1      -2.317  -0.744  -2.339  1.00  0.00     0.022 C 
ATOM      2  C   UNL     1      -2.023   0.044  -1.047  1.00  0.00     0.030 C 
ATOM      3  C   UNL     1      -1.564  -0.833   0.128  1.00  0.00    -0.033 A 
ATOM      4  C   UNL     1      -1.387  -2.226   0.113  1.00  0.00     0.005 A 
ATOM      5  C   UNL     1      -0.971  -2.880   1.279  1.00  0.00     0.000 A 
ATOM      6  C   UNL     1      -0.732  -2.155   2.455  1.00  0.00     0.000 A 
ATOM      7  C   UNL     1      -0.907  -0.766   2.479  1.00  0.00     0.005 A 
ATOM      8  C   UNL     1      -1.321  -0.109   1.318  1.00  0.00    -0.036 A 
ATOM      9  C   UNL     1      -1.568   1.389   1.212  1.00  0.00     0.063 C 
ATOM     10  C   UNL     1      -2.989   1.519   0.694  1.00  0.00    -0.036 A 
ATOM     11  C   UNL     1      -3.997   2.258   1.317  1.00  0.00     0.005 A 
ATOM     12  C   UNL     1      -5.270   2.304   0.737  1.00  0.00     0.000 A 
ATOM     13  C   UNL     1      -5.532   1.613  -0.455  1.00  0.00     0.000 A 
ATOM     14  C   UNL     1      -4.525   0.865  -1.081  1.00  0.00     0.005 A 
ATOM     15  C   UNL     1      -3.244   0.815  -0.509  1.00  0.00    -0.033 A 
ATOM     16  C   UNL     1      -0.673   1.951   0.065  1.00  0.00     0.105 C 
ATOM     17  C   UNL     1       0.797   1.784   0.297  1.00  0.00     0.238 C 
ATOM     18  O   UNL     1       1.408   2.292   1.225  1.00  0.00    -0.274 OA
ATOM     19  N   UNL     1       1.383   1.016  -0.639  1.00  0.00    -0.249 N 
ATOM     20  C   UNL     1       0.477   0.606  -1.548  1.00  0.00     0.238 C 
ATOM     21  O   UNL     1       0.772  -0.073  -2.520  1.00  0.00    -0.274 OA
ATOM     22  C   UNL     1      -0.908   1.133  -1.265  1.00  0.00     0.107 C 
ENDROOT
BRANCH  19  23
ATOM     23  C   UNL     1       2.778   0.737  -0.699  1.00  0.00     0.060 A 
ATOM     24  C   UNL     1       3.630   1.703  -1.253  1.00  0.00     0.027 A 
ATOM     25  C   UNL     1       3.316  -0.477  -0.216  1.00  0.00     0.006 A 
ATOM     26  C   UNL     1       5.003   1.472  -1.342  1.00  0.00     0.003 A 
ATOM     27  C   UNL     1       2.500  -1.466   0.364  1.00  0.00     0.011 A 
ATOM     28  C   UNL     1       4.715  -0.701  -0.304  1.00  0.00    -0.016 A 
ATOM     29  C   UNL     1       5.546   0.276  -0.871  1.00  0.00     0.009 A 
ATOM     30  C   UNL     1       3.062  -2.651   0.848  1.00  0.00     0.001 A 
ATOM     31  C   UNL     1       5.264  -1.899   0.182  1.00  0.00     0.009 A 
ATOM     32  C   UNL     1       4.438  -2.867   0.756  1.00  0.00     0.001 A 
ENDBRANCH  19  23
TORSDOF 1
