REMARK SMILES C=C(C)[C@@H](Cl)CC/C(=C\CCl)CCl
REMARK SMILES IDX 6 1 4 2 5 3 2 4 1 5 3 6 7 7 8 8 9 9 12 10 13 11 10 12 11 13
REMARK H PARENT
ROOT
ATOM      1  C   UNL     1       0.279  -0.251   0.068  1.00  0.00     0.029 C 
ENDROOT
BRANCH   1   2
ATOM      2  C   UNL     1       1.562  -1.084  -0.164  1.00  0.00     0.106 C 
ATOM      3  Cl  UNL     1       1.301  -2.785   0.371  1.00  0.00    -0.118 Cl
BRANCH   2   4
ATOM      4  C   UNL     1       2.777  -0.423   0.499  1.00  0.00    -0.063 C 
ATOM      5  C   UNL     1       3.514  -1.030   1.451  1.00  0.00     0.009 C 
ATOM      6  C   UNL     1       3.185   0.963   0.052  1.00  0.00     0.040 C 
ENDBRANCH   2   4
ENDBRANCH   1   2
BRANCH   1   7
ATOM      7  C   UNL     1      -0.946  -0.826  -0.654  1.00  0.00     0.034 C 
BRANCH   7   8
ATOM      8  C   UNL     1      -2.302  -0.108  -0.574  1.00  0.00    -0.058 C 
ATOM      9  C   UNL     1      -2.642   1.048   0.072  1.00  0.00    -0.011 C 
BRANCH   8  10
ATOM     10  C   UNL     1      -3.418  -0.822  -1.321  1.00  0.00     0.140 C 
ATOM     11  Cl  UNL     1      -3.077  -0.907  -3.071  1.00  0.00    -0.122 Cl
ENDBRANCH   8  10
BRANCH   9  12
ATOM     12  C   UNL     1      -1.828   2.003   0.907  1.00  0.00     0.137 C 
ATOM     13  Cl  UNL     1      -1.877   3.615   0.155  1.00  0.00    -0.122 Cl
ENDBRANCH   9  12
ENDBRANCH   7   8
ENDBRANCH   1   7
TORSDOF 6
