REMARK SMILES CC[C@H](C)C(=O)c1c(O)c2c(-c3ccccc3)cc(=O)oc2c2cc(C(C)(C)OC)oc12
REMARK SMILES IDX 7 1 8 2 10 3 22 4 21 5 19 6 20 7 18 8 11 9 23 10 32 11 31 12
REMARK SMILES IDX 25 13 24 14 5 15 6 16 3 17 4 18 2 19 1 20 9 21 12 23 13 24
REMARK SMILES IDX 17 25 14 26 16 27 15 28 26 29 27 30 28 31 29 32 30 33
REMARK H PARENT 9 22
ROOT
ATOM      1  C   UNL     1      -0.246   0.268   0.978  1.00  0.00     0.104 A 
ATOM      2  C   UNL     1      -1.354  -0.492   0.505  1.00  0.00     0.141 A 
ATOM      3  C   UNL     1      -1.141  -1.647  -0.331  1.00  0.00     0.069 A 
ATOM      4  C   UNL     1       0.200  -2.004  -0.668  1.00  0.00     0.153 A 
ATOM      5  O   UNL     1       0.465  -3.028  -1.469  1.00  0.00    -0.422 OA
ATOM      6  C   UNL     1      -0.484  -3.765  -2.023  1.00  0.00     0.336 A 
ATOM      7  O   UNL     1      -0.178  -4.687  -2.757  1.00  0.00    -0.246 OA
ATOM      8  C   UNL     1      -1.826  -3.496  -1.766  1.00  0.00     0.103 A 
ATOM      9  C   UNL     1      -2.183  -2.449  -0.899  1.00  0.00     0.004 A 
ATOM     10  C   UNL     1       1.243  -1.246  -0.159  1.00  0.00     0.065 A 
ATOM     11  C   UNL     1       1.036  -0.152   0.629  1.00  0.00     0.152 A 
ATOM     12  O   UNL     1       2.184   0.390   0.966  1.00  0.00    -0.457 OA
ATOM     13  C   UNL     1       3.148  -0.326   0.408  1.00  0.00     0.136 A 
ATOM     14  C   UNL     1       2.601  -1.380  -0.314  1.00  0.00     0.061 A 
ENDROOT
BRANCH   1  15
ATOM     15  C   UNL     1      -0.433   1.483   1.808  1.00  0.00     0.173 C 
ATOM     16  O   UNL     1      -0.612   1.348   3.010  1.00  0.00    -0.294 OA
BRANCH  15  17
ATOM     17  C   UNL     1      -0.475   2.878   1.202  1.00  0.00     0.058 C 
ATOM     18  C   UNL     1       0.860   3.214   0.524  1.00  0.00     0.016 C 
BRANCH  17  19
ATOM     19  C   UNL     1      -1.676   3.000   0.231  1.00  0.00     0.008 C 
ATOM     20  C   UNL     1      -1.884   4.407  -0.330  1.00  0.00     0.004 C 
ENDBRANCH  17  19
ENDBRANCH  15  17
ENDBRANCH   1  15
BRANCH   2  21
ATOM     21  O   UNL     1      -2.604  -0.099   0.817  1.00  0.00    -0.506 OA
ATOM     22  H   UNL     1      -2.816   0.621   1.423  1.00  0.00     0.293 HD
ENDBRANCH   2  21
BRANCH   9  23
ATOM     23  C   UNL     1      -3.639  -2.263  -0.649  1.00  0.00    -0.017 A 
ATOM     24  C   UNL     1      -4.528  -2.163  -1.736  1.00  0.00     0.009 A 
ATOM     25  C   UNL     1      -4.162  -2.225   0.658  1.00  0.00     0.009 A 
ATOM     26  C   UNL     1      -5.897  -1.984  -1.520  1.00  0.00     0.001 A 
ATOM     27  C   UNL     1      -5.533  -2.055   0.870  1.00  0.00     0.001 A 
ATOM     28  C   UNL     1      -6.399  -1.927  -0.218  1.00  0.00     0.000 A 
ENDBRANCH   9  23
BRANCH  13  29
ATOM     29  C   UNL     1       4.628  -0.036   0.564  1.00  0.00     0.120 C 
ATOM     30  C   UNL     1       5.115  -0.809   1.799  1.00  0.00     0.051 C 
ATOM     31  C   UNL     1       4.877   1.470   0.821  1.00  0.00     0.051 C 
BRANCH  29  32
ATOM     32  O   UNL     1       5.377  -0.533  -0.544  1.00  0.00    -0.371 OA
ATOM     33  C   UNL     1       5.138   0.169  -1.750  1.00  0.00     0.196 C 
ENDBRANCH  29  32
ENDBRANCH  13  29
TORSDOF 7
