REMARK SMILES CC(C)C[C@H](NC(=O)Cn1c(=O)[nH]c2ccccc2c1=O)C(=O)N[C@H](C)C(=O)O
REMARK SMILES IDX 22 1 23 2 24 3 5 5 4 6 2 7 1 8 3 9 6 10 7 11 8 12 9 14 10 15
REMARK SMILES IDX 11 16 20 17 12 18 13 19 19 20 21 21 14 22 18 23 15 24 17 25
REMARK SMILES IDX 16 26 25 28 26 29 27 30 28 31 29 32
REMARK H PARENT 24 4 6 13 13 27 29 33
ROOT
ATOM      1  C   UNL     1      -3.116  -0.057   0.522  1.00  0.00     0.243 C 
ATOM      2  O   UNL     1      -4.173   0.513   0.290  1.00  0.00    -0.273 OA
ATOM      3  N   UNL     1      -3.020  -1.412   0.351  1.00  0.00    -0.341 N 
ATOM      4  H   UNL     1      -2.152  -1.904   0.606  1.00  0.00     0.164 HD
ENDROOT
BRANCH   1   5
ATOM      5  C   UNL     1      -1.945   0.779   1.035  1.00  0.00     0.171 C 
BRANCH   5   6
ATOM      6  C   UNL     1      -1.698   2.040   0.159  1.00  0.00     0.038 C 
BRANCH   6   7
ATOM      7  C   UNL     1      -1.380   1.887  -1.356  1.00  0.00    -0.015 C 
ATOM      8  C   UNL     1      -1.555   3.260  -2.031  1.00  0.00     0.007 C 
ATOM      9  C   UNL     1       0.050   1.399  -1.650  1.00  0.00     0.007 C 
ENDBRANCH   6   7
ENDBRANCH   5   6
BRANCH   5  10
ATOM     10  N   UNL     1      -0.744  -0.030   1.190  1.00  0.00    -0.343 N 
ATOM     11  C   UNL     1      -0.056  -0.162   2.356  1.00  0.00     0.240 C 
ATOM     12  O   UNL     1      -0.380   0.461   3.356  1.00  0.00    -0.273 OA
ATOM     13  H   UNL     1      -0.411  -0.568   0.383  1.00  0.00     0.164 HD
BRANCH  11  14
ATOM     14  C   UNL     1       1.118  -1.105   2.412  1.00  0.00     0.230 C 
BRANCH  14  15
ATOM     15  N   UNL     1       2.123  -0.757   1.384  1.00  0.00    -0.250 N 
ATOM     16  C   UNL     1       2.378  -1.620   0.329  1.00  0.00     0.329 A 
ATOM     17  C   UNL     1       2.820   0.436   1.470  1.00  0.00     0.264 A 
ATOM     18  O   UNL     1       1.777  -2.678   0.228  1.00  0.00    -0.248 OA
ATOM     19  N   UNL     1       3.307  -1.295  -0.625  1.00  0.00    -0.307 N 
ATOM     20  C   UNL     1       3.779   0.770   0.495  1.00  0.00     0.064 A 
ATOM     21  O   UNL     1       2.607   1.202   2.398  1.00  0.00    -0.268 OA
ATOM     22  C   UNL     1       4.005  -0.132  -0.564  1.00  0.00     0.055 A 
ATOM     23  C   UNL     1       4.514   1.971   0.551  1.00  0.00     0.016 A 
ATOM     24  C   UNL     1       4.956   0.175  -1.551  1.00  0.00     0.027 A 
ATOM     25  C   UNL     1       5.460   2.263  -0.436  1.00  0.00     0.001 A 
ATOM     26  C   UNL     1       5.679   1.368  -1.485  1.00  0.00     0.002 A 
ATOM     27  H   UNL     1       3.478  -1.963  -1.413  1.00  0.00     0.171 HD
ENDBRANCH  14  15
ENDBRANCH  11  14
ENDBRANCH   5  10
ENDBRANCH   1   5
BRANCH   3  28
ATOM     28  C   UNL     1      -4.108  -2.241  -0.150  1.00  0.00     0.189 C 
ATOM     29  C   UNL     1      -4.524  -3.228   0.944  1.00  0.00     0.043 C 
BRANCH  28  30
ATOM     30  C   UNL     1      -3.694  -2.991  -1.406  1.00  0.00     0.325 C 
ATOM     31  O   UNL     1      -4.504  -3.728  -1.947  1.00  0.00    -0.250 OA
BRANCH  30  32
ATOM     32  O   UNL     1      -2.464  -2.870  -1.958  1.00  0.00    -0.480 OA
ATOM     33  H   UNL     1      -1.768  -2.301  -1.604  1.00  0.00     0.296 HD
ENDBRANCH  30  32
ENDBRANCH  28  30
ENDBRANCH   3  28
TORSDOF 9
