REMARK SMILES OC[C@H]1C[C@@H](N[C@H]2C=C(CO[C@H]3O[C@@H](CO)[C@H](O)[C@@H](O)[C@@H]3O)[C@H](O)[C@@H](O)[C@@H]2O)[C@H](O)[C@@H](O)[C@@H]1O[C@H]1O[C@@H](CO)[C@H](O)[C@@H](O)[C@@H]1O
REMARK SMILES IDX 7 1 8 2 9 3 23 4 25 5 27 6 6 7 5 9 3 10 4 11 33 12 31 13
REMARK SMILES IDX 29 14 2 15 1 16 34 18 35 19 36 20 44 21 37 22 42 23 40 24
REMARK SMILES IDX 45 25 38 27 39 28 43 30 41 32 32 34 30 36 28 38 10 40 11 41
REMARK SMILES IDX 12 42 13 43 21 44 14 45 19 46 17 47 22 48 15 50 16 51 20 53
REMARK SMILES IDX 18 55 26 57 24 59
REMARK H PARENT 6 8 1 17 45 26 39 29 43 31 41 33 32 35 30 37 28 39 22 49 16 52
REMARK H PARENT 20 54 18 56 26 58 24 60
ROOT
ATOM      1  C   UNL     1      -0.985  -0.204   0.261  1.00  0.00     0.109 C 
ATOM      2  C   UNL     1      -2.435   0.121  -0.043  1.00  0.00    -0.001 C 
ATOM      3  C   UNL     1      -3.493  -0.633   0.331  1.00  0.00    -0.016 C 
ATOM      4  C   UNL     1      -3.319  -1.850   1.230  1.00  0.00     0.174 C 
ATOM      5  C   UNL     1      -1.923  -1.902   1.900  1.00  0.00     0.177 C 
ATOM      6  C   UNL     1      -0.823  -1.628   0.864  1.00  0.00     0.167 C 
ENDROOT
BRANCH   1   7
ATOM      7  N   UNL     1      -0.285  -0.088  -1.032  1.00  0.00    -0.303 NA
ATOM      8  H   UNL     1      -0.610  -0.794  -1.736  1.00  0.00     0.123 HD
BRANCH   7   9
ATOM      9  C   UNL     1       1.150   0.224  -1.176  1.00  0.00     0.086 C 
ATOM     10  C   UNL     1       3.454  -0.664  -1.704  1.00  0.00     0.048 C 
ATOM     11  C   UNL     1       2.019  -1.041  -1.274  1.00  0.00     0.030 C 
ATOM     12  C   UNL     1       4.093   0.326  -0.685  1.00  0.00     0.158 C 
ATOM     13  C   UNL     1       3.179   1.563  -0.482  1.00  0.00     0.174 C 
ATOM     14  C   UNL     1       1.722   1.188  -0.112  1.00  0.00     0.162 C 
BRANCH  10  15
ATOM     15  C   UNL     1       4.282  -1.952  -1.880  1.00  0.00     0.162 C 
BRANCH  15  16
ATOM     16  O   UNL     1       5.523  -1.663  -2.456  1.00  0.00    -0.396 OA
ATOM     17  H   UNL     1       6.021  -2.522  -2.482  1.00  0.00     0.210 HD
ENDBRANCH  15  16
ENDBRANCH  10  15
BRANCH  12  18
ATOM     18  O   UNL     1       5.327   0.792  -1.213  1.00  0.00    -0.343 OA
BRANCH  18  19
ATOM     19  C   UNL     1       6.429   0.677  -0.329  1.00  0.00     0.282 C 
ATOM     20  O   UNL     1       7.154  -0.488  -0.688  1.00  0.00    -0.341 OA
ATOM     21  C   UNL     1       7.302   1.937  -0.533  1.00  0.00     0.202 C 
ATOM     22  C   UNL     1       8.310  -0.671   0.114  1.00  0.00     0.178 C 
ATOM     23  C   UNL     1       8.610   1.819   0.268  1.00  0.00     0.179 C 
ATOM     24  C   UNL     1       9.305   0.498  -0.102  1.00  0.00     0.177 C 
BRANCH  21  25
ATOM     25  O   UNL     1       6.601   3.105  -0.186  1.00  0.00    -0.385 OA
ATOM     26  H   UNL     1       6.396   3.053   0.784  1.00  0.00     0.211 HD
ENDBRANCH  21  25
BRANCH  22  27
ATOM     27  C   UNL     1       8.960  -2.005  -0.285  1.00  0.00     0.191 C 
BRANCH  27  28
ATOM     28  O   UNL     1       8.057  -3.062  -0.106  1.00  0.00    -0.394 OA
ATOM     29  H   UNL     1       8.051  -3.268   0.865  1.00  0.00     0.210 HD
ENDBRANCH  27  28
ENDBRANCH  22  27
BRANCH  23  30
ATOM     30  O   UNL     1       9.452   2.921   0.037  1.00  0.00    -0.387 OA
ATOM     31  H   UNL     1       9.665   2.940  -0.933  1.00  0.00     0.211 HD
ENDBRANCH  23  30
BRANCH  24  32
ATOM     32  O   UNL     1      10.483   0.327   0.647  1.00  0.00    -0.387 OA
ATOM     33  H   UNL     1      10.225   0.259   1.603  1.00  0.00     0.211 HD
ENDBRANCH  24  32
ENDBRANCH  18  19
ENDBRANCH  12  18
BRANCH  13  34
ATOM     34  O   UNL     1       3.723   2.435   0.477  1.00  0.00    -0.388 OA
ATOM     35  H   UNL     1       3.756   1.945   1.339  1.00  0.00     0.211 HD
ENDBRANCH  13  34
BRANCH  14  36
ATOM     36  O   UNL     1       0.935   2.350  -0.007  1.00  0.00    -0.389 OA
ATOM     37  H   UNL     1       0.908   2.780  -0.902  1.00  0.00     0.211 HD
ENDBRANCH  14  36
ENDBRANCH   7   9
ENDBRANCH   1   7
BRANCH   6  38
ATOM     38  O   UNL     1       0.449  -1.793   1.435  1.00  0.00    -0.388 OA
ATOM     39  H   UNL     1       0.525  -1.153   2.191  1.00  0.00     0.211 HD
ENDBRANCH   6  38
BRANCH   3  40
ATOM     40  C   UNL     1      -4.859  -0.299  -0.233  1.00  0.00     0.197 C 
BRANCH  40  41
ATOM     41  O   UNL     1      -5.786   0.001   0.792  1.00  0.00    -0.345 OA
BRANCH  41  42
ATOM     42  C   UNL     1      -7.046   0.365   0.234  1.00  0.00     0.282 C 
ATOM     43  O   UNL     1      -8.038  -0.524   0.714  1.00  0.00    -0.341 OA
ATOM     44  C   UNL     1      -7.381   1.819   0.656  1.00  0.00     0.202 C 
ATOM     45  C   UNL     1      -9.336  -0.306   0.141  1.00  0.00     0.178 C 
ATOM     46  C   UNL     1      -8.868   2.203   0.332  1.00  0.00     0.179 C 
ATOM     47  C   UNL     1      -9.545   1.106  -0.517  1.00  0.00     0.177 C 
BRANCH  44  48
ATOM     48  O   UNL     1      -6.480   2.724   0.068  1.00  0.00    -0.385 OA
ATOM     49  H   UNL     1      -6.592   2.657  -0.916  1.00  0.00     0.211 HD
ENDBRANCH  44  48
BRANCH  45  50
ATOM     50  C   UNL     1     -10.375  -0.613   1.236  1.00  0.00     0.191 C 
BRANCH  50  51
ATOM     51  O   UNL     1     -11.681  -0.557   0.724  1.00  0.00    -0.394 OA
ATOM     52  H   UNL     1     -12.053   0.330   0.970  1.00  0.00     0.210 HD
ENDBRANCH  50  51
ENDBRANCH  45  50
BRANCH  46  53
ATOM     53  O   UNL     1      -9.632   2.474   1.487  1.00  0.00    -0.387 OA
ATOM     54  H   UNL     1      -9.283   1.960   2.256  1.00  0.00     0.211 HD
ENDBRANCH  46  53
BRANCH  47  55
ATOM     55  O   UNL     1      -8.974   1.097  -1.804  1.00  0.00    -0.387 OA
ATOM     56  H   UNL     1      -9.332   1.884  -2.292  1.00  0.00     0.211 HD
ENDBRANCH  47  55
ENDBRANCH  41  42
ENDBRANCH  40  41
ENDBRANCH   3  40
BRANCH   5  57
ATOM     57  O   UNL     1      -1.733  -3.138   2.543  1.00  0.00    -0.387 OA
ATOM     58  H   UNL     1      -1.740  -3.844   1.845  1.00  0.00     0.211 HD
ENDBRANCH   5  57
BRANCH   4  59
ATOM     59  O   UNL     1      -4.314  -1.898   2.222  1.00  0.00    -0.386 OA
ATOM     60  H   UNL     1      -4.236  -1.069   2.765  1.00  0.00     0.211 HD
ENDBRANCH   4  59
TORSDOF 24
