REMARK SMILES C/C(=C\Cc1c(O)c(Cl)c(C)c(C=O)c1O)[C@H](O)C[C@@]1(C)[C@H](C)CCC(=O)[C@H]1C
REMARK SMILES IDX 1 1 2 2 3 3 17 4 18 5 19 7 20 8 22 9 28 10 24 11 26 12 25 13
REMARK SMILES IDX 27 14 21 15 23 16 29 17 4 18 5 19 6 20 15 21 8 22 12 23
REMARK SMILES IDX 10 24 9 25 11 26 7 27 16 29 13 31 14 32
REMARK H PARENT 18 6 7 28 16 30
ROOT
ATOM      1  C   UNL     1       1.634   0.561  -1.760  1.00  0.00     0.042 C 
ATOM      2  C   UNL     1       0.533  -0.180  -1.020  1.00  0.00    -0.049 C 
ATOM      3  C   UNL     1       0.747  -1.085  -0.023  1.00  0.00    -0.020 C 
ENDROOT
BRANCH   2   4
ATOM      4  C   UNL     1      -0.883   0.105  -1.575  1.00  0.00     0.140 C 
BRANCH   4   5
ATOM      5  O   UNL     1      -1.098   1.480  -1.768  1.00  0.00    -0.389 OA
ATOM      6  H   UNL     1      -0.660   1.969  -1.024  1.00  0.00     0.211 HD
ENDBRANCH   4   5
BRANCH   4   7
ATOM      7  C   UNL     1      -2.163  -0.583  -0.977  1.00  0.00     0.044 C 
BRANCH   7   8
ATOM      8  C   UNL     1      -2.913  -0.069   0.339  1.00  0.00    -0.018 C 
ATOM      9  C   UNL     1      -3.373   1.458   0.218  1.00  0.00    -0.007 C 
ATOM     10  C   UNL     1      -4.224  -0.942   0.554  1.00  0.00     0.059 C 
ATOM     11  C   UNL     1      -4.378   1.653  -0.952  1.00  0.00     0.012 C 
ATOM     12  C   UNL     1      -5.212  -0.639  -0.564  1.00  0.00     0.136 C 
ATOM     13  C   UNL     1      -5.630   0.786  -0.769  1.00  0.00     0.076 C 
ATOM     14  O   UNL     1      -5.634  -1.513  -1.307  1.00  0.00    -0.299 OA
ATOM     15  C   UNL     1      -1.984  -0.223   1.566  1.00  0.00     0.012 C 
ATOM     16  C   UNL     1      -3.968   2.069   1.514  1.00  0.00     0.008 C 
ATOM     17  C   UNL     1      -3.996  -2.466   0.689  1.00  0.00     0.016 C 
ENDBRANCH   7   8
ENDBRANCH   4   7
ENDBRANCH   2   4
BRANCH   3  18
ATOM     18  C   UNL     1       2.007  -1.550   0.702  1.00  0.00     0.071 C 
BRANCH  18  19
ATOM     19  C   UNL     1       3.310  -0.787   0.512  1.00  0.00     0.042 A 
ATOM     20  C   UNL     1       3.427   0.544   0.969  1.00  0.00     0.141 A 
ATOM     21  C   UNL     1       4.413  -1.417  -0.112  1.00  0.00     0.133 A 
ATOM     22  C   UNL     1       4.623   1.246   0.795  1.00  0.00     0.087 A 
ATOM     23  C   UNL     1       5.644  -0.708  -0.296  1.00  0.00     0.061 A 
ATOM     24  C   UNL     1       5.734   0.640   0.166  1.00  0.00    -0.014 A 
ATOM     25  Cl  UNL     1       4.679   2.912   1.392  1.00  0.00    -0.080 Cl
ATOM     26  C   UNL     1       7.021   1.427  -0.014  1.00  0.00     0.047 C 
BRANCH  20  27
ATOM     27  O   UNL     1       2.400   1.179   1.582  1.00  0.00    -0.506 OA
ATOM     28  H   UNL     1       1.537   0.783   1.759  1.00  0.00     0.293 HD
ENDBRANCH  20  27
BRANCH  21  29
ATOM     29  O   UNL     1       4.232  -2.696  -0.520  1.00  0.00    -0.507 OA
ATOM     30  H   UNL     1       4.859  -3.276  -0.959  1.00  0.00     0.293 HD
ENDBRANCH  21  29
BRANCH  23  31
ATOM     31  C   UNL     1       6.849  -1.319  -0.961  1.00  0.00     0.264 C 
ATOM     32  O   UNL     1       6.870  -2.459  -1.389  1.00  0.00    -0.298 OA
ENDBRANCH  23  31
ENDBRANCH  18  19
ENDBRANCH   3  18
TORSDOF 9
