REMARK SMILES CCCC[C]CCCC[C]CCCCCC(=O)OCC(COC(=O)CCCCC[C]C/C=C\[C]/C=C\CCCCC)OC(=O)CCC[C]C/C=C\C/C=C\C/C=C\C/C=C\CCCCC
REMARK SMILES IDX 42 1 43 2 44 3 45 4 46 5 47 6 48 7 49 8 50 9 51 10 52 11
REMARK SMILES IDX 53 12 54 13 55 14 56 15 57 16 58 17 59 18 60 19 61 20 62 21
REMARK SMILES IDX 63 22 64 23 65 24 20 25 21 26 22 27 23 28 24 29 25 30 26 31
REMARK SMILES IDX 27 32 28 33 29 34 30 35 31 36 32 37 33 38 34 39 35 40 36 41
REMARK SMILES IDX 37 42 38 43 39 44 40 45 41 46 19 47 18 48 16 49 17 50 15 51
REMARK SMILES IDX 14 52 13 53 12 54 11 55 10 56 9 57 8 58 7 59 6 60 5 61 4 62
REMARK SMILES IDX 3 63 2 64 1 65
REMARK H PARENT
ROOT
ATOM      1  O   UNL     1      16.500   5.196   0.000  1.00  0.00    -0.455 OA
ENDROOT
BRANCH   1   2
ATOM      2  C   UNL     1      15.538   4.719  -0.861  1.00  0.00     0.306 C 
ATOM      3  O   UNL     1      15.221   5.367  -1.846  1.00  0.00    -0.252 OA
BRANCH   2   4
ATOM      4  C   UNL     1      14.876   3.366  -0.605  1.00  0.00     0.123 C 
BRANCH   4   5
ATOM      5  C   UNL     1      13.332   3.457  -0.450  1.00  0.00     0.012 C 
BRANCH   5   6
ATOM      6  C   UNL     1      12.634   2.070  -0.352  1.00  0.00     0.009 C 
BRANCH   6   7
ATOM      7  C   UNL     1      11.090   2.231  -0.321  1.00  0.00    -0.013 C 
BRANCH   7   8
ATOM      8  C   UNL     1      10.263   1.045  -0.885  1.00  0.00     0.035 C 
BRANCH   8   9
ATOM      9  C   UNL     1       9.931  -0.052   0.117  1.00  0.00    -0.030 C 
ATOM     10  C   UNL     1       8.750  -0.655   0.490  1.00  0.00    -0.027 C 
BRANCH  10  11
ATOM     11  C   UNL     1       7.239  -0.551   0.149  1.00  0.00     0.054 C 
BRANCH  11  12
ATOM     12  C   UNL     1       6.724   0.528  -0.765  1.00  0.00    -0.027 C 
ATOM     13  C   UNL     1       5.451   0.760  -1.183  1.00  0.00    -0.027 C 
BRANCH  13  14
ATOM     14  C   UNL     1       4.075   0.115  -0.967  1.00  0.00     0.054 C 
BRANCH  14  15
ATOM     15  C   UNL     1       3.834  -1.103  -0.100  1.00  0.00    -0.027 C 
ATOM     16  C   UNL     1       2.584  -1.629   0.102  1.00  0.00    -0.027 C 
BRANCH  16  17
ATOM     17  C   UNL     1       1.273  -1.097  -0.502  1.00  0.00     0.054 C 
BRANCH  17  18
ATOM     18  C   UNL     1       0.377  -0.518   0.572  1.00  0.00    -0.027 C 
ATOM     19  C   UNL     1      -0.966  -0.644   0.768  1.00  0.00    -0.031 C 
BRANCH  19  20
ATOM     20  C   UNL     1      -2.057  -1.399   0.001  1.00  0.00     0.027 C 
BRANCH  20  21
ATOM     21  C   UNL     1      -2.004  -2.920   0.161  1.00  0.00     0.004 C 
BRANCH  21  22
ATOM     22  C   UNL     1      -3.331  -3.707  -0.198  1.00  0.00     0.000 C 
BRANCH  22  23
ATOM     23  C   UNL     1      -3.000  -5.196   0.000  1.00  0.00    -0.003 C 
ATOM     24  C   UNL     1      -3.750  -6.495   0.000  1.00  0.00     0.004 C 
ENDBRANCH  22  23
ENDBRANCH  21  22
ENDBRANCH  20  21
ENDBRANCH  19  20
ENDBRANCH  17  18
ENDBRANCH  16  17
ENDBRANCH  14  15
ENDBRANCH  13  14
ENDBRANCH  11  12
ENDBRANCH  10  11
ENDBRANCH   8   9
ENDBRANCH   7   8
ENDBRANCH   6   7
ENDBRANCH   5   6
ENDBRANCH   4   5
ENDBRANCH   2   4
ENDBRANCH   1   2
BRANCH   1  25
ATOM     25  C   UNL     1      17.250   6.495   0.000  1.00  0.00     0.251 C 
BRANCH  25  26
ATOM     26  C   UNL     1      18.000   7.794   0.000  1.00  0.00     0.281 C 
BRANCH  26  27
ATOM     27  O   UNL     1      19.023   8.647  -0.639  1.00  0.00    -0.462 OA
BRANCH  27  28
ATOM     28  C   UNL     1      20.250   9.093   0.000  1.00  0.00     0.305 C 
ATOM     29  O   UNL     1      20.781   8.285   0.747  1.00  0.00    -0.252 OA
BRANCH  28  30
ATOM     30  C   UNL     1      21.000  10.392   0.000  1.00  0.00     0.123 C 
BRANCH  30  31
ATOM     31  C   UNL     1      21.750  11.691   0.000  1.00  0.00     0.012 C 
BRANCH  31  32
ATOM     32  C   UNL     1      22.095  13.325  -0.183  1.00  0.00     0.001 C 
BRANCH  32  33
ATOM     33  C   UNL     1      23.634  13.957   0.171  1.00  0.00     0.001 C 
BRANCH  33  34
ATOM     34  C   UNL     1      24.000  15.588   0.000  1.00  0.00     0.008 C 
BRANCH  34  35
ATOM     35  C   UNL     1      24.750  16.887   0.000  1.00  0.00    -0.013 C 
BRANCH  35  36
ATOM     36  C   UNL     1      25.500  18.186   0.000  1.00  0.00     0.035 C 
BRANCH  36  37
ATOM     37  C   UNL     1      26.123  19.599   0.000  1.00  0.00    -0.030 C 
ATOM     38  C   UNL     1      25.500  20.785   0.000  1.00  0.00    -0.018 C 
BRANCH  38  39
ATOM     39  C   UNL     1      24.000  20.785   0.000  1.00  0.00     0.034 C 
BRANCH  39  40
ATOM     40  C   UNL     1      22.500  20.785   0.000  1.00  0.00    -0.018 C 
ATOM     41  C   UNL     1      22.011  22.092   0.000  1.00  0.00    -0.030 C 
BRANCH  41  42
ATOM     42  C   UNL     1      22.644  23.598   0.029  1.00  0.00     0.027 C 
BRANCH  42  43
ATOM     43  C   UNL     1      24.089  24.361   0.282  1.00  0.00     0.004 C 
BRANCH  43  44
ATOM     44  C   UNL     1      24.000  25.981   0.000  1.00  0.00     0.000 C 
BRANCH  44  45
ATOM     45  C   UNL     1      24.750  27.280   0.000  1.00  0.00    -0.003 C 
ATOM     46  C   UNL     1      25.500  28.579   0.000  1.00  0.00     0.004 C 
ENDBRANCH  44  45
ENDBRANCH  43  44
ENDBRANCH  42  43
ENDBRANCH  41  42
ENDBRANCH  39  40
ENDBRANCH  38  39
ENDBRANCH  36  37
ENDBRANCH  35  36
ENDBRANCH  34  35
ENDBRANCH  33  34
ENDBRANCH  32  33
ENDBRANCH  31  32
ENDBRANCH  30  31
ENDBRANCH  28  30
ENDBRANCH  27  28
ENDBRANCH  26  27
ENDBRANCH  25  26
BRANCH  25  47
ATOM     47  C   UNL     1      15.777   7.372   0.357  1.00  0.00     0.281 C 
BRANCH  47  48
ATOM     48  O   UNL     1      15.080   8.325  -0.509  1.00  0.00    -0.462 OA
BRANCH  48  49
ATOM     49  C   UNL     1      14.462   9.565  -0.127  1.00  0.00     0.305 C 
ATOM     50  O   UNL     1      14.891  10.112   0.876  1.00  0.00    -0.252 OA
BRANCH  49  51
ATOM     51  C   UNL     1      13.276  10.381  -0.916  1.00  0.00     0.123 C 
BRANCH  51  52
ATOM     52  C   UNL     1      12.054  10.995   0.000  1.00  0.00     0.012 C 
BRANCH  52  53
ATOM     53  C   UNL     1      10.755  11.745   0.000  1.00  0.00     0.001 C 
BRANCH  53  54
ATOM     54  C   UNL     1       9.456  12.495   0.000  1.00  0.00     0.001 C 
BRANCH  54  55
ATOM     55  C   UNL     1       7.796  12.556   0.303  1.00  0.00     0.008 C 
BRANCH  55  56
ATOM     56  C   UNL     1       6.845  13.892  -0.169  1.00  0.00    -0.017 C 
BRANCH  56  57
ATOM     57  C   UNL     1       5.269  14.325   0.299  1.00  0.00     0.008 C 
BRANCH  57  58
ATOM     58  C   UNL     1       4.304  15.510  -0.447  1.00  0.00     0.001 C 
BRANCH  58  59
ATOM     59  C   UNL     1       2.785  16.032   0.112  1.00  0.00     0.001 C 
BRANCH  59  60
ATOM     60  C   UNL     1       1.789  17.168  -0.669  1.00  0.00     0.008 C 
BRANCH  60  61
ATOM     61  C   UNL     1       0.297  17.735  -0.084  1.00  0.00    -0.017 C 
BRANCH  61  62
ATOM     62  C   UNL     1      -0.805  18.831  -0.791  1.00  0.00     0.008 C 
BRANCH  62  63
ATOM     63  C   UNL     1      -2.236  19.245   0.000  1.00  0.00     0.000 C 
BRANCH  63  64
ATOM     64  C   UNL     1      -3.535  19.995   0.000  1.00  0.00    -0.003 C 
ATOM     65  C   UNL     1      -4.834  20.745   0.000  1.00  0.00     0.004 C 
ENDBRANCH  63  64
ENDBRANCH  62  63
ENDBRANCH  61  62
ENDBRANCH  60  61
ENDBRANCH  59  60
ENDBRANCH  58  59
ENDBRANCH  57  58
ENDBRANCH  56  57
ENDBRANCH  55  56
ENDBRANCH  54  55
ENDBRANCH  53  54
ENDBRANCH  52  53
ENDBRANCH  51  52
ENDBRANCH  49  51
ENDBRANCH  48  49
ENDBRANCH  47  48
ENDBRANCH  25  47
ENDBRANCH   1  25
TORSDOF 52
