REMARK SMILES CC(=O)N[C@@H]1[C@H](O[C@H]2[C@H](O[C@@H](C)C(=O)N[C@@H](C)C(=O)N[C@@H](CCC(=O)N[C@H](CCCCN)C(=O)N[C@@H](C)C(=O)N[C@@H](C)C(=O)O)C(N)=O)[C@H](NC(C)=O)[C@@H](O[P@](=O)(O)O[P@](=O)(O)OC/C=C(\C)CC/C=C(\C)CC/C=C(\C)CC/C=C(\C)CC/C=C(\C)CC/C=C(\C)CC/C=C(\C)CC/C=C(\C)CC/C=C(\C)CC/C=C(\C)CCC=C(C)C)O[C@H]2CO)O[C@H](CO)[C@H](O)[C@@H]1O
REMARK SMILES IDX 70 1 71 2 72 3 69 4 68 5 66 6 65 7 67 8 64 9 63 10 60 11
REMARK SMILES IDX 61 12 59 13 56 14 57 15 55 16 54 17 8 18 120 19 9 20 119 21
REMARK SMILES IDX 49 22 7 23 6 24 5 25 129 26 123 27 127 28 124 29 4 30 2 31
REMARK SMILES IDX 3 32 1 33 130 35 128 37 125 39 126 40 121 42 122 43 10 45
REMARK SMILES IDX 11 46 12 47 13 48 14 49 15 50 16 52 17 53 18 54 19 55 20 56
REMARK SMILES IDX 21 58 22 59 23 60 24 61 25 62 26 63 27 65 28 66 29 67 30 68
REMARK SMILES IDX 31 69 32 70 33 73 34 74 35 75 36 77 37 78 38 79 39 80 40 81
REMARK SMILES IDX 41 83 42 84 43 85 44 86 45 87 46 89 47 90 48 91 50 94 51 95
REMARK SMILES IDX 53 96 52 98 58 99 62 101 73 103 74 104 75 105 76 106 77 107
REMARK SMILES IDX 78 108 79 109 80 110 81 111 82 112 83 113 84 114 85 115
REMARK SMILES IDX 86 116 87 117 88 118 89 119 90 120 91 121 92 122 93 123
REMARK SMILES IDX 94 124 95 125 96 126 97 127 98 128 99 129 100 130 101 131
REMARK SMILES IDX 102 132 103 133 104 134 105 135 106 136 107 137 108 138
REMARK SMILES IDX 109 139 110 140 111 141 112 142 113 143 114 144 115 145
REMARK SMILES IDX 116 146 117 147 118 148
REMARK H PARENT 4 34 130 36 128 38 126 41 122 44 15 51 20 57 26 64 32 71 32 72
REMARK H PARENT 35 76 40 82 45 88 47 92 47 93 50 97 58 100 62 102
ROOT
ATOM      1  C   UNL     1      -9.078 -18.627   0.001  1.00  0.00    -0.028 C 
ATOM      2  C   UNL     1      -9.161 -20.023  -0.000  1.00  0.00    -0.077 C 
ATOM      3  C   UNL     1      -7.752 -20.536   0.000  1.00  0.00     0.039 C 
ENDROOT
BRANCH   1   4
ATOM      4  C   UNL     1      -7.604 -17.929   0.006  1.00  0.00     0.032 C 
BRANCH   4   5
ATOM      5  C   UNL     1      -7.403 -16.399  -0.003  1.00  0.00     0.034 C 
BRANCH   5   6
ATOM      6  C   UNL     1      -5.974 -15.653   0.000  1.00  0.00    -0.075 C 
ATOM      7  C   UNL     1      -6.207 -14.305  -0.040  1.00  0.00     0.001 C 
ATOM      8  C   UNL     1      -4.565 -16.166   0.000  1.00  0.00     0.039 C 
BRANCH   7   9
ATOM      9  C   UNL     1      -5.332 -13.073  -0.063  1.00  0.00     0.201 C 
BRANCH   9  10
ATOM     10  O   UNL     1      -3.925 -13.253   0.113  1.00  0.00    -0.283 OA
BRANCH  10  11
ATOM     11  P   UNL     1      -3.030 -11.748   0.599  1.00  0.00     0.481 P 
ATOM     12  O   UNL     1      -3.895 -11.072  -0.504  1.00  0.00    -0.228 OA
BRANCH  11  13
ATOM     13  O   UNL     1      -3.935 -10.539   1.521  1.00  0.00    -0.185 OA
BRANCH  13  14
ATOM     14  P   UNL     1      -3.235  -8.946   1.244  1.00  0.00     0.483 P 
ATOM     15  O   UNL     1      -4.764  -8.782   1.009  1.00  0.00    -0.228 OA
BRANCH  14  16
ATOM     16  O   UNL     1      -3.629  -7.474   2.162  1.00  0.00    -0.254 OA
BRANCH  16  17
ATOM     17  C   UNL     1      -3.567  -6.317   1.323  1.00  0.00     0.287 C 
ATOM     18  C   UNL     1      -4.622  -3.473   0.552  1.00  0.00     0.184 C 
ATOM     19  C   UNL     1      -4.873  -4.896   0.044  1.00  0.00     0.178 C 
ATOM     20  C   UNL     1      -3.064  -3.421   1.143  1.00  0.00     0.178 C 
ATOM     21  O   UNL     1      -4.850  -5.767   1.172  1.00  0.00    -0.341 OA
ATOM     22  C   UNL     1      -2.528  -5.269   1.870  1.00  0.00     0.170 C 
BRANCH  18  23
ATOM     23  O   UNL     1      -5.777  -3.158   1.404  1.00  0.00    -0.341 OA
BRANCH  23  24
ATOM     24  C   UNL     1      -6.530  -1.944   1.078  1.00  0.00     0.276 C 
ATOM     25  C   UNL     1      -8.031  -1.921   0.356  1.00  0.00     0.169 C 
ATOM     26  C   UNL     1      -8.633  -0.483   0.536  1.00  0.00     0.173 C 
ATOM     27  O   UNL     1      -6.568  -1.133   2.237  1.00  0.00    -0.342 OA
ATOM     28  C   UNL     1      -7.509   0.557   0.636  1.00  0.00     0.176 C 
ATOM     29  C   UNL     1      -6.641   0.266   1.916  1.00  0.00     0.178 C 
BRANCH  25  30
ATOM     30  N   UNL     1      -9.104  -2.935   0.644  1.00  0.00    -0.346 N 
ATOM     31  C   UNL     1     -10.367  -2.995   0.000  1.00  0.00     0.217 C 
ATOM     32  O   UNL     1     -10.722  -2.092  -0.746  1.00  0.00    -0.275 OA
ATOM     33  C   UNL     1     -11.117  -4.294   0.000  1.00  0.00     0.114 C 
ATOM     34  H   UNL     1      -8.855  -3.702   1.284  1.00  0.00     0.164 HD
ENDBRANCH  25  30
BRANCH  26  35
ATOM     35  O   UNL     1      -9.427  -0.443   1.694  1.00  0.00    -0.388 OA
ATOM     36  H   UNL     1     -10.064   0.310   1.583  1.00  0.00     0.211 HD
ENDBRANCH  26  35
BRANCH  28  37
ATOM     37  O   UNL     1      -8.024   1.863   0.628  1.00  0.00    -0.388 OA
ATOM     38  H   UNL     1      -7.279   2.460   0.353  1.00  0.00     0.211 HD
ENDBRANCH  28  37
BRANCH  29  39
ATOM     39  C   UNL     1      -7.159   1.007   3.163  1.00  0.00     0.191 C 
BRANCH  39  40
ATOM     40  O   UNL     1      -6.283   0.814   4.242  1.00  0.00    -0.394 OA
ATOM     41  H   UNL     1      -6.516  -0.061   4.647  1.00  0.00     0.210 HD
ENDBRANCH  39  40
ENDBRANCH  29  39
ENDBRANCH  23  24
ENDBRANCH  18  23
BRANCH  19  42
ATOM     42  C   UNL     1      -6.178  -5.118  -0.728  1.00  0.00     0.191 C 
BRANCH  42  43
ATOM     43  O   UNL     1      -7.275  -5.061   0.131  1.00  0.00    -0.394 OA
ATOM     44  H   UNL     1      -8.039  -5.438  -0.377  1.00  0.00     0.210 HD
ENDBRANCH  42  43
ENDBRANCH  19  42
BRANCH  20  45
ATOM     45  O   UNL     1      -2.159  -2.482   0.000  1.00  0.00    -0.360 OA
BRANCH  45  46
ATOM     46  C   UNL     1      -0.750  -2.995   0.000  1.00  0.00     0.204 C 
ATOM     47  C   UNL     1      -1.263  -4.404   0.000  1.00  0.00     0.049 C 
BRANCH  46  48
ATOM     48  C   UNL     1       0.659  -3.508   0.000  1.00  0.00     0.249 C 
ATOM     49  O   UNL     1       1.087  -4.497  -0.566  1.00  0.00    -0.272 OA
ATOM     50  N   UNL     1       1.742  -2.546   0.075  1.00  0.00    -0.342 N 
ATOM     51  H   UNL     1       2.713  -2.875  -0.048  1.00  0.00     0.164 HD
BRANCH  50  52
ATOM     52  C   UNL     1       1.548  -1.066   0.000  1.00  0.00     0.168 C 
ATOM     53  C   UNL     1       0.071  -1.327   0.000  1.00  0.00     0.041 C 
BRANCH  52  54
ATOM     54  C   UNL     1       2.292  -0.275   1.157  1.00  0.00     0.242 C 
ATOM     55  O   UNL     1       3.358   0.201   0.793  1.00  0.00    -0.273 OA
ATOM     56  N   UNL     1       1.922  -0.019   2.489  1.00  0.00    -0.343 N 
ATOM     57  H   UNL     1       2.655   0.504   2.997  1.00  0.00     0.164 HD
BRANCH  56  58
ATOM     58  C   UNL     1       0.796  -0.367   3.417  1.00  0.00     0.171 C 
BRANCH  58  59
ATOM     59  C   UNL     1      -0.631   0.320   3.202  1.00  0.00     0.045 C 
BRANCH  59  60
ATOM     60  C   UNL     1      -0.861   1.866   3.313  1.00  0.00     0.102 C 
BRANCH  60  61
ATOM     61  C   UNL     1       0.232   2.679   2.707  1.00  0.00     0.220 C 
ATOM     62  O   UNL     1       1.334   2.486   3.200  1.00  0.00    -0.275 OA
ATOM     63  N   UNL     1       0.149   3.655   1.748  1.00  0.00    -0.344 N 
ATOM     64  H   UNL     1       1.106   4.017   1.598  1.00  0.00     0.164 HD
BRANCH  63  65
ATOM     65  C   UNL     1      -0.930   4.381   0.998  1.00  0.00     0.171 C 
BRANCH  65  66
ATOM     66  C   UNL     1      -1.913   3.600  -0.000  1.00  0.00     0.035 C 
BRANCH  66  67
ATOM     67  C   UNL     1      -1.652   2.122   0.000  1.00  0.00     0.004 C 
BRANCH  67  68
ATOM     68  C   UNL     1      -1.392   0.645   0.000  1.00  0.00     0.015 C 
BRANCH  68  69
ATOM     69  C   UNL     1      -2.812   0.149   0.520  1.00  0.00     0.077 C 
BRANCH  69  70
ATOM     70  N   UNL     1      -3.802  -0.043  -0.548  1.00  0.00    -0.330 NA
ATOM     71  H   UNL     1      -3.425  -0.684  -1.283  1.00  0.00     0.118 HD
ATOM     72  H   UNL     1      -4.095   0.856  -0.989  1.00  0.00     0.118 HD
ENDBRANCH  69  70
ENDBRANCH  68  69
ENDBRANCH  67  68
ENDBRANCH  66  67
ENDBRANCH  65  66
BRANCH  65  73
ATOM     73  C   UNL     1      -0.098   5.372   0.140  1.00  0.00     0.243 C 
ATOM     74  O   UNL     1       0.825   4.843  -0.475  1.00  0.00    -0.273 OA
ATOM     75  N   UNL     1      -0.183   6.747   0.000  1.00  0.00    -0.343 N 
ATOM     76  H   UNL     1       0.669   7.100  -0.475  1.00  0.00     0.164 HD
BRANCH  75  77
ATOM     77  C   UNL     1      -1.147   7.896   0.000  1.00  0.00     0.168 C 
ATOM     78  C   UNL     1      -2.296   6.932   0.000  1.00  0.00     0.041 C 
BRANCH  77  79
ATOM     79  C   UNL     1      -2.111   9.045   0.000  1.00  0.00     0.242 C 
ATOM     80  O   UNL     1      -1.665  10.185   0.012  1.00  0.00    -0.273 OA
ATOM     81  N   UNL     1      -3.490   8.856   0.051  1.00  0.00    -0.341 N 
ATOM     82  H   UNL     1      -4.044   9.731   0.117  1.00  0.00     0.164 HD
BRANCH  81  83
ATOM     83  C   UNL     1      -4.102   7.375   0.000  1.00  0.00     0.189 C 
ATOM     84  C   UNL     1      -5.511   7.888   0.000  1.00  0.00     0.043 C 
BRANCH  83  85
ATOM     85  C   UNL     1      -4.397   6.860  -1.550  1.00  0.00     0.325 C 
ATOM     86  O   UNL     1      -3.961   7.493  -2.501  1.00  0.00    -0.250 OA
BRANCH  85  87
ATOM     87  O   UNL     1      -5.069   5.710  -1.775  1.00  0.00    -0.480 OA
ATOM     88  H   UNL     1      -5.400   5.174  -1.041  1.00  0.00     0.296 HD
ENDBRANCH  85  87
ENDBRANCH  83  85
ENDBRANCH  81  83
ENDBRANCH  77  79
ENDBRANCH  75  77
ENDBRANCH  65  73
ENDBRANCH  63  65
ENDBRANCH  60  61
ENDBRANCH  59  60
ENDBRANCH  58  59
BRANCH  58  89
ATOM     89  C   UNL     1       0.695  -1.877   3.589  1.00  0.00     0.240 C 
ATOM     90  N   UNL     1      -0.124  -2.420   4.522  1.00  0.00    -0.368 N 
ATOM     91  O   UNL     1       1.391  -2.619   2.914  1.00  0.00    -0.273 OA
ATOM     92  H   UNL     1      -0.699  -1.833   5.142  1.00  0.00     0.159 HD
ATOM     93  H   UNL     1      -0.171  -3.443   4.640  1.00  0.00     0.159 HD
ENDBRANCH  58  89
ENDBRANCH  56  58
ENDBRANCH  52  54
ENDBRANCH  50  52
ENDBRANCH  46  48
ENDBRANCH  45  46
ENDBRANCH  20  45
BRANCH  22  94
ATOM     94  N   UNL     1      -1.059  -6.158   1.569  1.00  0.00    -0.346 N 
ATOM     95  C   UNL     1      -0.489  -6.400   0.000  1.00  0.00     0.217 C 
ATOM     96  O   UNL     1      -1.127  -7.038  -0.899  1.00  0.00    -0.275 OA
ATOM     97  H   UNL     1      -0.393  -6.174   2.355  1.00  0.00     0.164 HD
ATOM     98  C   UNL     1       0.920  -6.913   0.000  1.00  0.00     0.114 C 
ENDBRANCH  22  94
ENDBRANCH  16  17
ENDBRANCH  14  16
BRANCH  14  99
ATOM     99  O   UNL     1      -2.975  -9.320   2.918  1.00  0.00    -0.302 OA
ATOM    100  H   UNL     1      -1.992  -9.428   2.998  1.00  0.00     0.223 HD
ENDBRANCH  14  99
ENDBRANCH  13  14
ENDBRANCH  11  13
BRANCH  11 101
ATOM    101  O   UNL     1      -3.796 -12.353   2.042  1.00  0.00    -0.302 OA
ATOM    102  H   UNL     1      -3.050 -12.703   2.596  1.00  0.00     0.223 HD
ENDBRANCH  11 101
ENDBRANCH  10  11
ENDBRANCH   9  10
ENDBRANCH   7   9
ENDBRANCH   5   6
ENDBRANCH   4   5
ENDBRANCH   1   4
BRANCH   2 103
ATOM    103  C   UNL     1     -10.188 -21.332  -0.002  1.00  0.00     0.034 C 
BRANCH 103 104
ATOM    104  C   UNL     1     -11.773 -21.553  -0.005  1.00  0.00     0.032 C 
BRANCH 104 105
ATOM    105  C   UNL     1     -12.582 -22.984  -0.004  1.00  0.00    -0.028 C 
ATOM    106  C   UNL     1     -12.348 -24.392   0.000  1.00  0.00    -0.077 C 
ATOM    107  C   UNL     1     -10.938 -24.905   0.000  1.00  0.00     0.039 C 
BRANCH 106 108
ATOM    108  C   UNL     1     -13.497 -25.357   0.000  1.00  0.00     0.034 C 
BRANCH 108 109
ATOM    109  C   UNL     1     -14.646 -26.321   0.000  1.00  0.00     0.032 C 
BRANCH 109 110
ATOM    110  C   UNL     1     -15.765 -27.436   0.001  1.00  0.00    -0.028 C 
ATOM    111  C   UNL     1     -15.535 -28.762   0.000  1.00  0.00    -0.077 C 
ATOM    112  C   UNL     1     -14.125 -29.275   0.000  1.00  0.00     0.039 C 
BRANCH 111 113
ATOM    113  C   UNL     1     -16.461 -30.116   0.003  1.00  0.00     0.034 C 
BRANCH 113 114
ATOM    114  C   UNL     1     -18.032 -30.303   0.013  1.00  0.00     0.032 C 
BRANCH 114 115
ATOM    115  C   UNL     1     -18.863 -31.703   0.008  1.00  0.00    -0.028 C 
ATOM    116  C   UNL     1     -18.721 -33.132   0.000  1.00  0.00    -0.077 C 
ATOM    117  C   UNL     1     -17.312 -33.645   0.000  1.00  0.00     0.039 C 
BRANCH 116 118
ATOM    118  C   UNL     1     -20.152 -33.854  -0.001  1.00  0.00     0.034 C 
BRANCH 118 119
ATOM    119  C   UNL     1     -20.328 -35.391  -0.009  1.00  0.00     0.032 C 
BRANCH 119 120
ATOM    120  C   UNL     1     -21.793 -36.095  -0.018  1.00  0.00    -0.028 C 
ATOM    121  C   UNL     1     -21.908 -37.502   0.000  1.00  0.00    -0.077 C 
ATOM    122  C   UNL     1     -20.498 -38.015  -0.000  1.00  0.00     0.039 C 
BRANCH 121 123
ATOM    123  C   UNL     1     -23.057 -38.466   0.000  1.00  0.00     0.034 C 
BRANCH 123 124
ATOM    124  C   UNL     1     -24.206 -39.430   0.000  1.00  0.00     0.032 C 
BRANCH 124 125
ATOM    125  C   UNL     1     -25.293 -40.516  -0.153  1.00  0.00    -0.028 C 
ATOM    126  C   UNL     1     -25.095 -41.871  -0.000  1.00  0.00    -0.077 C 
ATOM    127  C   UNL     1     -23.685 -42.385   0.000  1.00  0.00     0.039 C 
BRANCH 126 128
ATOM    128  C   UNL     1     -26.244 -42.836   0.000  1.00  0.00     0.034 C 
BRANCH 128 129
ATOM    129  C   UNL     1     -27.393 -43.800   0.000  1.00  0.00     0.032 C 
BRANCH 129 130
ATOM    130  C   UNL     1     -28.542 -44.764   0.000  1.00  0.00    -0.028 C 
ATOM    131  C   UNL     1     -28.282 -46.241   0.000  1.00  0.00    -0.077 C 
ATOM    132  C   UNL     1     -26.872 -46.754   0.000  1.00  0.00     0.039 C 
BRANCH 131 133
ATOM    133  C   UNL     1     -29.430 -47.205   0.000  1.00  0.00     0.034 C 
BRANCH 133 134
ATOM    134  C   UNL     1     -30.580 -48.170   0.000  1.00  0.00     0.032 C 
BRANCH 134 135
ATOM    135  C   UNL     1     -31.729 -49.134   0.000  1.00  0.00    -0.028 C 
ATOM    136  C   UNL     1     -31.468 -50.611   0.000  1.00  0.00    -0.077 C 
ATOM    137  C   UNL     1     -30.059 -51.124   0.000  1.00  0.00     0.039 C 
BRANCH 136 138
ATOM    138  C   UNL     1     -32.479 -51.929  -0.024  1.00  0.00     0.034 C 
BRANCH 138 139
ATOM    139  C   UNL     1     -34.057 -52.133  -0.041  1.00  0.00     0.032 C 
BRANCH 139 140
ATOM    140  C   UNL     1     -34.867 -53.555  -0.031  1.00  0.00    -0.028 C 
ATOM    141  C   UNL     1     -34.655 -54.981   0.000  1.00  0.00    -0.077 C 
ATOM    142  C   UNL     1     -33.245 -55.494   0.000  1.00  0.00     0.039 C 
BRANCH 141 143
ATOM    143  C   UNL     1     -35.804 -55.945   0.000  1.00  0.00     0.034 C 
BRANCH 143 144
ATOM    144  C   UNL     1     -36.953 -56.909   0.000  1.00  0.00     0.032 C 
BRANCH 144 145
ATOM    145  C   UNL     1     -38.208 -57.798  -0.001  1.00  0.00    -0.028 C 
ATOM    146  C   UNL     1     -39.512 -57.360   0.000  1.00  0.00    -0.080 C 
ATOM    147  C   UNL     1     -40.661 -58.324   0.000  1.00  0.00     0.039 C 
ATOM    148  C   UNL     1     -39.772 -55.883   0.000  1.00  0.00     0.039 C 
ENDBRANCH 144 145
ENDBRANCH 143 144
ENDBRANCH 141 143
ENDBRANCH 139 140
ENDBRANCH 138 139
ENDBRANCH 136 138
ENDBRANCH 134 135
ENDBRANCH 133 134
ENDBRANCH 131 133
ENDBRANCH 129 130
ENDBRANCH 128 129
ENDBRANCH 126 128
ENDBRANCH 124 125
ENDBRANCH 123 124
ENDBRANCH 121 123
ENDBRANCH 119 120
ENDBRANCH 118 119
ENDBRANCH 116 118
ENDBRANCH 114 115
ENDBRANCH 113 114
ENDBRANCH 111 113
ENDBRANCH 109 110
ENDBRANCH 108 109
ENDBRANCH 106 108
ENDBRANCH 104 105
ENDBRANCH 103 104
ENDBRANCH   2 103
TORSDOF 71
