REMARK SMILES CC(=O)O[C@H](C[C@@]12[C@H]3[C@H](C(C)C)CC[C@]1(C)[C@H]1CC[C@]4(CCC[C@@H]42)N3C1)C(=O)[C@]1(C)CO[C@]2(C)CC[C@H]1O2
REMARK SMILES IDX 5 1 4 2 2 3 3 4 1 5 6 6 7 7 8 8 15 9 24 10 9 11 25 12 14 13
REMARK SMILES IDX 17 14 23 15 20 16 13 17 26 18 18 19 22 20 19 21 21 22 16 23
REMARK SMILES IDX 10 24 11 25 12 26 27 27 28 28 29 29 31 30 37 31 32 32 36 33
REMARK SMILES IDX 38 34 33 35 35 36 30 37 34 38
REMARK H PARENT
ROOT
ATOM      1  C   UNL     1      -3.266  -1.406  -1.559  1.00  0.00     0.244 C 
ENDROOT
BRANCH   1   2
ATOM      2  O   UNL     1      -2.277  -2.287  -1.223  1.00  0.00    -0.454 OA
BRANCH   2   3
ATOM      3  C   UNL     1      -2.115  -2.885   0.000  1.00  0.00     0.303 C 
ATOM      4  O   UNL     1      -2.541  -2.429   1.053  1.00  0.00    -0.253 OA
ATOM      5  C   UNL     1      -0.816  -3.635   0.000  1.00  0.00     0.139 C 
ENDBRANCH   2   3
ENDBRANCH   1   2
BRANCH   1   6
ATOM      6  C   UNL     1      -2.557   0.224  -1.689  1.00  0.00     0.063 C 
BRANCH   6   7
ATOM      7  C   UNL     1      -2.049   1.678  -0.765  1.00  0.00     0.000 C 
ATOM      8  C   UNL     1      -1.375   3.212  -0.498  1.00  0.00     0.067 C 
ATOM      9  C   UNL     1      -3.406   2.120   0.000  1.00  0.00    -0.021 C 
ATOM     10  C   UNL     1      -0.727   1.038  -0.130  1.00  0.00     0.018 C 
ATOM     11  C   UNL     1      -2.206   4.665  -0.890  1.00  0.00     0.009 C 
ATOM     12  N   UNL     1      -0.883   3.177   0.927  1.00  0.00    -0.293 NA
ATOM     13  C   UNL     1      -4.288   3.227  -0.776  1.00  0.00     0.008 C 
ATOM     14  C   UNL     1      -3.059   2.308   1.611  1.00  0.00     0.010 C 
ATOM     15  C   UNL     1       0.504   1.038  -1.061  1.00  0.00     0.006 C 
ATOM     16  C   UNL     1      -0.300   1.828   1.081  1.00  0.00     0.025 C 
ATOM     17  C   UNL     1      -3.820   4.657  -0.687  1.00  0.00     0.006 C 
ATOM     18  C   UNL     1      -2.029   3.405   1.901  1.00  0.00     0.089 C 
ATOM     19  C   UNL     1      -2.401   1.030   2.281  1.00  0.00     0.007 C 
ATOM     20  C   UNL     1       1.625   0.854  -0.050  1.00  0.00     0.002 C 
ATOM     21  C   UNL     1      -0.837   1.078   2.329  1.00  0.00     0.023 C 
ATOM     22  C   UNL     1       1.247   1.902   0.988  1.00  0.00     0.023 C 
ATOM     23  C   UNL     1      -4.287   0.907   0.000  1.00  0.00     0.012 C 
BRANCH  11  24
ATOM     24  C   UNL     1      -1.747   6.044   0.000  1.00  0.00    -0.013 C 
ATOM     25  C   UNL     1      -1.852   7.540   0.000  1.00  0.00     0.008 C 
ATOM     26  C   UNL     1      -0.251   6.148   0.000  1.00  0.00     0.008 C 
ENDBRANCH  11  24
ENDBRANCH   6   7
ENDBRANCH   1   6
BRANCH   1  27
ATOM     27  C   UNL     1      -4.514  -2.164  -0.797  1.00  0.00     0.184 C 
ATOM     28  O   UNL     1      -4.739  -1.892   0.367  1.00  0.00    -0.295 OA
BRANCH  27  29
ATOM     29  C   UNL     1      -4.984  -3.663  -0.969  1.00  0.00     0.080 C 
ATOM     30  C   UNL     1      -5.423  -4.393   0.434  1.00  0.00     0.181 C 
ATOM     31  C   UNL     1      -4.111  -4.737  -1.742  1.00  0.00     0.137 C 
ATOM     32  O   UNL     1      -4.461  -5.304   1.004  1.00  0.00    -0.349 OA
ATOM     33  C   UNL     1      -2.640  -5.141  -1.639  1.00  0.00     0.039 C 
ATOM     34  O   UNL     1      -4.628  -5.926  -1.268  1.00  0.00    -0.346 OA
ATOM     35  C   UNL     1      -3.935  -6.187   0.000  1.00  0.00     0.166 C 
ATOM     36  C   UNL     1      -2.498  -5.902  -0.306  1.00  0.00     0.068 C 
ATOM     37  C   UNL     1      -6.305  -3.494  -1.763  1.00  0.00     0.025 C 
ATOM     38  C   UNL     1      -4.195  -7.664   0.000  1.00  0.00     0.075 C 
ENDBRANCH  27  29
ENDBRANCH   1  27
TORSDOF 7
