REMARK SMILES CC(=O)Oc1ccc(OC(C)=O)c2c1C[C@]1(C)CCC(=O)C(C)=C1C2=O
REMARK SMILES IDX 5 1 6 2 7 3 8 4 13 5 14 6 15 7 16 8 17 9 18 10 19 11 20 12
REMARK SMILES IDX 21 13 22 14 23 15 24 16 25 17 26 18 4 19 2 20 3 21 1 22 9 23
REMARK SMILES IDX 10 24 12 25 11 26
REMARK H PARENT
ROOT
ATOM      1  C   UNL     1      -2.182   1.524   0.404  1.00  0.00     0.135 A 
ATOM      2  C   UNL     1      -3.366   0.871   0.743  1.00  0.00     0.051 A 
ATOM      3  C   UNL     1      -3.442  -0.516   0.717  1.00  0.00     0.052 A 
ATOM      4  C   UNL     1      -2.330  -1.284   0.365  1.00  0.00     0.142 A 
ATOM      5  C   UNL     1      -1.095  -0.649   0.061  1.00  0.00     0.072 A 
ATOM      6  C   UNL     1      -1.028   0.765   0.074  1.00  0.00     0.011 A 
ATOM      7  C   UNL     1       0.272   1.433  -0.312  1.00  0.00     0.052 C 
ATOM      8  C   UNL     1       1.523   0.707   0.238  1.00  0.00     0.001 C 
ATOM      9  C   UNL     1       1.540   0.752   1.782  1.00  0.00     0.017 C 
ATOM     10  C   UNL     1       2.752   1.444  -0.350  1.00  0.00     0.020 C 
ATOM     11  C   UNL     1       4.072   0.749  -0.053  1.00  0.00     0.081 C 
ATOM     12  C   UNL     1       3.990  -0.700  -0.427  1.00  0.00     0.159 C 
ATOM     13  O   UNL     1       5.035  -1.325  -0.534  1.00  0.00    -0.295 OA
ATOM     14  C   UNL     1       2.672  -1.407  -0.551  1.00  0.00    -0.000 C 
ATOM     15  C   UNL     1       2.699  -2.860  -0.990  1.00  0.00     0.049 C 
ATOM     16  C   UNL     1       1.499  -0.756  -0.234  1.00  0.00     0.013 C 
ATOM     17  C   UNL     1       0.147  -1.433  -0.238  1.00  0.00     0.194 C 
ATOM     18  O   UNL     1       0.063  -2.637  -0.413  1.00  0.00    -0.289 OA
ENDROOT
BRANCH   1  19
ATOM     19  O   UNL     1      -2.200   2.880   0.379  1.00  0.00    -0.426 OA
BRANCH  19  20
ATOM     20  C   UNL     1      -1.952   3.628  -0.731  1.00  0.00     0.308 C 
ATOM     21  O   UNL     1      -1.802   3.100  -1.824  1.00  0.00    -0.252 OA
ATOM     22  C   UNL     1      -1.907   5.117  -0.619  1.00  0.00     0.139 C 
ENDBRANCH  19  20
ENDBRANCH   1  19
BRANCH   4  23
ATOM     23  O   UNL     1      -2.474  -2.629   0.341  1.00  0.00    -0.426 OA
BRANCH  23  24
ATOM     24  C   UNL     1      -2.631  -3.342  -0.805  1.00  0.00     0.308 C 
ATOM     25  O   UNL     1      -2.696  -2.779  -1.892  1.00  0.00    -0.252 OA
ATOM     26  C   UNL     1      -2.720  -4.832  -0.746  1.00  0.00     0.139 C 
ENDBRANCH  23  24
ENDBRANCH   4  23
TORSDOF 4
