REMARK SMILES C#CO[C@]1(O)CC[C@H]2[C@@H]3CCc4cc(O)ccc4[C@@H]3CC[C@@]21C
REMARK SMILES IDX 4 1 6 2 7 3 8 4 9 5 10 6 11 7 12 8 13 9 14 10 16 11 17 12
REMARK SMILES IDX 18 13 19 14 20 15 21 16 22 17 23 18 3 19 2 20 1 21 5 22
REMARK SMILES IDX 15 24
REMARK H PARENT 5 23 15 25
ROOT
ATOM      1  C   UNL     1       3.127  -0.004   0.411  1.00  0.00     0.224 C 
ATOM      2  C   UNL     1       3.341   1.083  -0.690  1.00  0.00     0.081 C 
ATOM      3  C   UNL     1       1.940   1.400  -1.266  1.00  0.00     0.011 C 
ATOM      4  C   UNL     1       1.000   0.449  -0.516  1.00  0.00     0.005 C 
ATOM      5  C   UNL     1      -0.321   0.004  -1.190  1.00  0.00     0.001 C 
ATOM      6  C   UNL     1      -1.202   1.166  -1.706  1.00  0.00     0.009 C 
ATOM      7  C   UNL     1      -1.974   1.791  -0.558  1.00  0.00     0.036 C 
ATOM      8  C   UNL     1      -2.923   0.756  -0.022  1.00  0.00    -0.041 A 
ATOM      9  C   UNL     1      -4.242   1.112   0.304  1.00  0.00     0.050 A 
ATOM     10  C   UNL     1      -5.125   0.157   0.826  1.00  0.00     0.115 A 
ATOM     11  C   UNL     1      -4.691  -1.156   1.018  1.00  0.00     0.046 A 
ATOM     12  C   UNL     1      -3.386  -1.522   0.682  1.00  0.00     0.008 A 
ATOM     13  C   UNL     1      -2.490  -0.578   0.150  1.00  0.00    -0.041 A 
ATOM     14  C   UNL     1      -1.086  -1.025  -0.249  1.00  0.00     0.023 C 
ATOM     15  C   UNL     1      -0.312  -1.341   1.072  1.00  0.00     0.009 C 
ATOM     16  C   UNL     1       1.167  -1.717   0.857  1.00  0.00     0.014 C 
ATOM     17  C   UNL     1       1.892  -0.766  -0.156  1.00  0.00     0.037 C 
ATOM     18  C   UNL     1       2.280  -1.629  -1.406  1.00  0.00     0.019 C 
ENDROOT
BRANCH   1  19
ATOM     19  O   UNL     1       2.767   0.588   1.658  1.00  0.00    -0.412 OA
ATOM     20  C   UNL     1       3.829   1.254   2.174  1.00  0.00     0.109 C 
ATOM     21  C   UNL     1       4.775   1.848   2.629  1.00  0.00     0.051 C 
ENDBRANCH   1  19
BRANCH   1  22
ATOM     22  O   UNL     1       4.221  -0.884   0.575  1.00  0.00    -0.355 OA
ATOM     23  H   UNL     1       5.056  -0.360   0.460  1.00  0.00     0.215 HD
ENDBRANCH   1  22
BRANCH  10  24
ATOM     24  O   UNL     1      -6.390   0.492   1.150  1.00  0.00    -0.508 OA
ATOM     25  H   UNL     1      -6.731   1.391   1.034  1.00  0.00     0.293 HD
ENDBRANCH  10  24
TORSDOF 3
