REMARK SMILES C/C=C/C=C/C=C/C(=O)O[C@@H]1C=C2CO[C@H](OC)[C@]2(O)[C@@]2(C)CCCC(C)(C)[C@H]12
REMARK SMILES IDX 8 1 9 2 7 3 6 4 5 5 4 6 3 7 2 8 1 9 10 10 11 11 12 12 29 13
REMARK SMILES IDX 13 14 26 15 21 16 14 17 19 18 25 19 23 20 15 21 16 22 24 23
REMARK SMILES IDX 27 24 28 25 22 26 20 27 17 29 18 30
REMARK H PARENT 20 28
ROOT
ATOM      1  C   UNL     1       2.510   1.484   0.318  1.00  0.00     0.331 C 
ATOM      2  O   UNL     1       2.765   2.555  -0.216  1.00  0.00    -0.247 OA
ENDROOT
BRANCH   1   3
ATOM      3  C   UNL     1       3.643   0.711   0.864  1.00  0.00     0.093 C 
ATOM      4  C   UNL     1       3.515  -0.477   1.469  1.00  0.00     0.007 C 
BRANCH   4   5
ATOM      5  C   UNL     1       4.723  -1.179   1.953  1.00  0.00     0.000 C 
ATOM      6  C   UNL     1       4.651  -2.370   2.561  1.00  0.00    -0.000 C 
BRANCH   6   7
ATOM      7  C   UNL     1       5.881  -3.047   3.020  1.00  0.00    -0.005 C 
ATOM      8  C   UNL     1       5.833  -4.235   3.637  1.00  0.00    -0.030 C 
ATOM      9  C   UNL     1       7.089  -4.912   4.093  1.00  0.00     0.035 C 
ENDBRANCH   6   7
ENDBRANCH   4   5
ENDBRANCH   1   3
BRANCH   1  10
ATOM     10  O   UNL     1       1.220   1.028   0.379  1.00  0.00    -0.455 OA
BRANCH  10  11
ATOM     11  C   UNL     1       0.170   1.626  -0.306  1.00  0.00     0.204 C 
ATOM     12  C   UNL     1      -0.593   2.571   0.606  1.00  0.00     0.022 C 
ATOM     13  C   UNL     1      -0.744   0.649  -1.176  1.00  0.00     0.049 C 
ATOM     14  C   UNL     1      -1.850   2.935   0.301  1.00  0.00    -0.008 C 
ATOM     15  C   UNL     1      -0.238  -0.822  -1.493  1.00  0.00    -0.028 C 
ATOM     16  C   UNL     1      -2.302   0.836  -0.887  1.00  0.00     0.013 C 
ATOM     17  C   UNL     1      -2.716   3.823   1.095  1.00  0.00     0.198 C 
ATOM     18  C   UNL     1      -2.550   2.421  -0.879  1.00  0.00     0.144 C 
ATOM     19  C   UNL     1      -1.187  -1.434  -2.571  1.00  0.00     0.007 C 
ATOM     20  C   UNL     1      -3.096   0.139  -2.030  1.00  0.00     0.011 C 
ATOM     21  O   UNL     1      -3.916   3.998   0.373  1.00  0.00    -0.345 OA
ATOM     22  C   UNL     1      -3.973   3.020  -0.656  1.00  0.00     0.286 C 
ATOM     23  C   UNL     1      -2.680  -1.335  -2.219  1.00  0.00     0.001 C 
ATOM     24  C   UNL     1       1.178  -0.783  -2.125  1.00  0.00     0.011 C 
ATOM     25  C   UNL     1      -0.144  -1.762  -0.263  1.00  0.00     0.011 C 
ATOM     26  C   UNL     1      -2.735   0.210   0.490  1.00  0.00     0.015 C 
BRANCH  18  27
ATOM     27  O   UNL     1      -1.958   3.050  -1.998  1.00  0.00    -0.379 OA
ATOM     28  H   UNL     1      -2.492   2.817  -2.800  1.00  0.00     0.212 HD
ENDBRANCH  18  27
BRANCH  22  29
ATOM     29  O   UNL     1      -4.935   2.044  -0.311  1.00  0.00    -0.353 OA
ATOM     30  C   UNL     1      -6.218   2.444  -0.745  1.00  0.00     0.198 C 
ENDBRANCH  22  29
ENDBRANCH  10  11
ENDBRANCH   1  10
TORSDOF 7
