REMARK SMILES COC(=O)[C@H]1C[C@]23CC[C@@]14Nc1ccccc1[C@@]41CCN(CC[C@@H]2O)[C@H]31
REMARK SMILES IDX 5 1 6 2 7 3 8 4 9 5 10 6 11 7 12 8 13 9 14 10 15 11 16 12
REMARK SMILES IDX 17 13 18 14 19 15 20 16 21 17 22 18 23 19 24 20 26 21 3 23
REMARK SMILES IDX 4 24 2 25 1 26 25 27
REMARK H PARENT 11 22 25 28
ROOT
ATOM      1  C   UNL     1       1.623  -0.805  -0.861  1.00  0.00     0.126 C 
ATOM      2  C   UNL     1       0.931  -2.021  -0.066  1.00  0.00     0.029 C 
ATOM      3  C   UNL     1      -0.422  -1.525   0.636  1.00  0.00     0.014 C 
ATOM      4  C   UNL     1       0.018  -0.627   1.813  1.00  0.00     0.014 C 
ATOM      5  C   UNL     1       1.122   0.345   1.332  1.00  0.00     0.031 C 
ATOM      6  C   UNL     1       1.055   0.528  -0.258  1.00  0.00     0.062 C 
ATOM      7  N   UNL     1       1.627   1.815  -0.578  1.00  0.00    -0.378 N 
ATOM      8  C   UNL     1       0.607   2.703  -0.137  1.00  0.00     0.038 A 
ATOM      9  C   UNL     1       0.774   4.022   0.281  1.00  0.00     0.026 A 
ATOM     10  C   UNL     1      -0.344   4.703   0.792  1.00  0.00     0.002 A 
ATOM     11  C   UNL     1      -1.596   4.060   0.883  1.00  0.00     0.000 A 
ATOM     12  C   UNL     1      -1.751   2.732   0.455  1.00  0.00     0.006 A 
ATOM     13  C   UNL     1      -0.632   2.066  -0.050  1.00  0.00    -0.015 A 
ATOM     14  C   UNL     1      -0.450   0.705  -0.687  1.00  0.00     0.039 C 
ATOM     15  C   UNL     1      -1.133   0.889  -2.063  1.00  0.00     0.031 C 
ATOM     16  C   UNL     1      -2.605   0.420  -1.720  1.00  0.00     0.086 C 
ATOM     17  N   UNL     1      -2.513  -0.471  -0.519  1.00  0.00    -0.299 NA
ATOM     18  C   UNL     1      -3.241  -1.774  -0.575  1.00  0.00     0.087 C 
ATOM     19  C   UNL     1      -2.373  -3.012  -0.133  1.00  0.00     0.048 C 
ATOM     20  C   UNL     1      -1.431  -2.656   1.054  1.00  0.00     0.123 C 
ATOM     21  C   UNL     1      -1.092  -0.655  -0.438  1.00  0.00     0.078 C 
ATOM     22  H   UNL     1       2.627   2.048  -0.486  1.00  0.00     0.161 HD
ENDROOT
BRANCH   1  23
ATOM     23  C   UNL     1       3.129  -0.932  -0.889  1.00  0.00     0.311 C 
ATOM     24  O   UNL     1       3.697  -1.027  -1.969  1.00  0.00    -0.252 OA
BRANCH  23  25
ATOM     25  O   UNL     1       3.847  -0.949   0.263  1.00  0.00    -0.469 OA
ATOM     26  C   UNL     1       5.220  -1.058   0.308  1.00  0.00     0.282 C 
ENDBRANCH  23  25
ENDBRANCH   1  23
BRANCH  20  27
ATOM     27  O   UNL     1      -2.213  -2.295   2.172  1.00  0.00    -0.392 OA
ATOM     28  H   UNL     1      -2.667  -1.435   1.982  1.00  0.00     0.210 HD
ENDBRANCH  20  27
TORSDOF 3
