REMARK SMILES COc1ccc2cc1-c1cc(ccc1O)CC[C@H]1C[C@H]3CCC[C@H](C[C@@H](OC(C)=O)CC2)N3CO1
REMARK SMILES IDX 18 1 19 2 20 3 21 4 22 5 23 6 24 7 33 8 34 9 35 10 17 11
REMARK SMILES IDX 16 12 11 13 9 14 10 15 14 16 13 17 12 18 8 19 3 20 4 21 5 22
REMARK SMILES IDX 7 23 6 24 2 25 1 26 32 27 15 29 25 31 26 32 27 33 28 34
REMARK SMILES IDX 30 35 29 36 31 37
REMARK H PARENT 15 30
REMARK Flexibility Score:  149.900
ROOT
ATOM      1  C   UNL     1      -0.912  -3.165  -0.417  1.00  0.00     0.122 C 
ATOM      2  C   UNL     1      -2.340  -3.632  -0.171  1.00  0.00     0.051 C 
ATOM      3  C   UNL     1      -3.297  -2.426   0.137  1.00  0.00     0.061 C 
ATOM      4  C   UNL     1      -3.854  -2.531   1.565  1.00  0.00     0.019 C 
ATOM      5  C   UNL     1      -4.986  -1.511   1.780  1.00  0.00     0.003 C 
ATOM      6  C   UNL     1      -4.835  -0.261   0.891  1.00  0.00     0.019 C 
ATOM      7  C   UNL     1      -3.352   0.071   0.686  1.00  0.00     0.062 C 
ATOM      8  N   UNL     1      -2.680  -1.057  -0.056  1.00  0.00    -0.275 NA
ATOM      9  C   UNL     1      -1.214  -0.998   0.144  1.00  0.00     0.248 C 
ATOM     10  O   UNL     1      -0.664  -2.210   0.561  1.00  0.00    -0.363 OA
ENDROOT
BRANCH   1  11
ATOM     11  C   UNL     1       0.149  -4.263  -0.260  1.00  0.00     0.037 C 
BRANCH  11  12
ATOM     12  C   UNL     1       1.436  -4.067  -1.099  1.00  0.00     0.038 C 
BRANCH  12  13
ATOM     13  C   UNL     1       2.347  -2.832  -1.095  1.00  0.00    -0.047 A 
ATOM     14  C   UNL     1       3.110  -0.550  -0.490  1.00  0.00     0.027 A 
ATOM     15  C   UNL     1       2.211  -1.640  -0.334  1.00  0.00     0.016 A 
ATOM     16  C   UNL     1       4.163  -0.688  -1.436  1.00  0.00     0.123 A 
ATOM     17  C   UNL     1       4.312  -1.872  -2.157  1.00  0.00     0.047 A 
ATOM     18  C   UNL     1       3.421  -2.920  -1.990  1.00  0.00     0.007 A 
BRANCH  14  19
ATOM     19  C   UNL     1       2.923   0.745   0.282  1.00  0.00     0.028 A 
ATOM     20  C   UNL     1       4.034   1.472   0.787  1.00  0.00     0.126 A 
ATOM     21  C   UNL     1       3.825   2.711   1.417  1.00  0.00     0.047 A 
ATOM     22  C   UNL     1       2.546   3.228   1.566  1.00  0.00     0.007 A 
ATOM     23  C   UNL     1       1.620   1.276   0.492  1.00  0.00     0.016 A 
ATOM     24  C   UNL     1       1.417   2.523   1.128  1.00  0.00    -0.047 A 
BRANCH  20  25
ATOM     25  O   UNL     1       5.284   0.943   0.694  1.00  0.00    -0.496 OA
ATOM     26  C   UNL     1       6.452   1.495   1.180  1.00  0.00     0.278 C 
ENDBRANCH  20  25
BRANCH  24  27
ATOM     27  C   UNL     1       0.070   3.197   1.411  1.00  0.00     0.039 CG0
ATOM     28  G   UNL     1      -1.265   2.423   1.305  1.00  0.00     0.000 G0
ENDBRANCH  24  27
ENDBRANCH  14  19
BRANCH  16  29
ATOM     29  O   UNL     1       5.008   0.334  -1.698  1.00  0.00    -0.507 OA
ATOM     30  H   UNL     1       5.722   0.266  -2.348  1.00  0.00     0.293 HD
ENDBRANCH  16  29
ENDBRANCH  12  13
ENDBRANCH  11  12
ENDBRANCH   1  11
BRANCH   7  31
ATOM     31  C   UNL     1      -3.219   1.442  -0.052  1.00  0.00     0.064 C 
BRANCH  31  32
ATOM     32  C   UNL     1      -1.820   2.132  -0.114  1.00  0.00     0.178 C 
BRANCH  32  33
ATOM     33  O   UNL     1      -2.000   3.344  -0.763  1.00  0.00    -0.462 OA
BRANCH  33  34
ATOM     34  C   UNL     1      -1.431   3.728  -1.936  1.00  0.00     0.302 C 
ATOM     35  O   UNL     1      -0.634   3.006  -2.519  1.00  0.00    -0.253 OA
ATOM     36  C   UNL     1      -1.800   5.050  -2.526  1.00  0.00     0.139 C 
ENDBRANCH  33  34
ENDBRANCH  32  33
BRANCH  32  37
ATOM     37  C   UNL     1      -1.265   2.423   1.305  1.00  0.00     0.050 CG0
ATOM     38  G   UNL     1       0.070   3.197   1.411  1.00  0.00     0.000 G0
ENDBRANCH  32  37
ENDBRANCH  31  32
ENDBRANCH   7  31
TORSDOF 4
