REMARK SMILES C=C1[C@@H](O)C[C@H]2C[C@]3(O)CCC(C)(C)[C@@H]3[C@@]12O
REMARK SMILES IDX 1 1 2 2 3 3 5 4 6 5 7 6 8 7 10 8 11 9 12 10 13 11 14 12
REMARK SMILES IDX 15 13 16 14 4 15 17 17 9 19
REMARK H PARENT 4 16 17 18 9 20
ROOT
ATOM      1  C   UNL     1       1.796   2.518  -0.238  1.00  0.00     0.013 C 
ATOM      2  C   UNL     1       1.835   1.206   0.015  1.00  0.00    -0.017 C 
ATOM      3  C   UNL     1       2.891   0.532   0.862  1.00  0.00     0.143 C 
ATOM      4  C   UNL     1       2.331  -0.887   1.047  1.00  0.00     0.043 C 
ATOM      5  C   UNL     1       1.625  -1.121  -0.289  1.00  0.00     0.031 C 
ATOM      6  C   UNL     1       0.519  -2.158  -0.368  1.00  0.00     0.042 C 
ATOM      7  C   UNL     1      -0.675  -1.522   0.376  1.00  0.00     0.072 C 
ATOM      8  C   UNL     1      -2.035  -1.791  -0.312  1.00  0.00     0.036 C 
ATOM      9  C   UNL     1      -2.273  -0.543  -1.163  1.00  0.00     0.010 C 
ATOM     10  C   UNL     1      -1.786   0.604  -0.253  1.00  0.00    -0.027 C 
ATOM     11  C   UNL     1      -2.766   0.837   0.934  1.00  0.00     0.011 C 
ATOM     12  C   UNL     1      -1.684   1.952  -0.997  1.00  0.00     0.011 C 
ATOM     13  C   UNL     1      -0.446   0.026   0.292  1.00  0.00     0.063 C 
ATOM     14  C   UNL     1       0.875   0.181  -0.547  1.00  0.00     0.097 C 
ENDROOT
BRANCH   3  15
ATOM     15  O   UNL     1       3.104   1.159   2.103  1.00  0.00    -0.389 OA
ATOM     16  H   UNL     1       2.215   1.338   2.510  1.00  0.00     0.211 HD
ENDBRANCH   3  15
BRANCH  14  17
ATOM     17  O   UNL     1       0.648   0.300  -1.932  1.00  0.00    -0.385 OA
ATOM     18  H   UNL     1       1.516   0.499  -2.373  1.00  0.00     0.211 HD
ENDBRANCH  14  17
BRANCH   7  19
ATOM     19  O   UNL     1      -0.692  -1.938   1.720  1.00  0.00    -0.389 OA
ATOM     20  H   UNL     1      -0.888  -2.912   1.723  1.00  0.00     0.211 HD
ENDBRANCH   7  19
TORSDOF 3
