REMARK SMILES Cc1c(OCC(=O)OC(C)C)ccc2c3c(c(=O)oc12)CCC3
REMARK SMILES IDX 6 1 7 2 5 3 4 4 3 5 2 6 20 7 12 8 14 9 19 10 13 11 15 12
REMARK SMILES IDX 17 13 16 14 23 15 18 16 21 17 22 18 1 19 8 20 9 21 10 22
REMARK SMILES IDX 11 23
REMARK H PARENT
ROOT
ATOM      1  C   UNL     1       3.114   0.459   0.823  1.00  0.00     0.344 C 
ATOM      2  O   UNL     1       2.592  -0.648   0.858  1.00  0.00    -0.248 OA
ENDROOT
BRANCH   1   3
ATOM      3  C   UNL     1       2.422   1.651   1.434  1.00  0.00     0.351 C 
BRANCH   3   4
ATOM      4  O   UNL     1       1.183   1.327   1.964  1.00  0.00    -0.481 OA
BRANCH   4   5
ATOM      5  C   UNL     1       0.080   0.915   1.275  1.00  0.00     0.126 A 
ATOM      6  C   UNL     1      -1.088   0.563   1.992  1.00  0.00     0.034 A 
ATOM      7  C   UNL     1      -2.231   0.123   1.295  1.00  0.00     0.145 A 
ATOM      8  C   UNL     1       0.076   0.828  -0.134  1.00  0.00     0.047 A 
ATOM      9  C   UNL     1      -2.207   0.037  -0.119  1.00  0.00     0.022 A 
ATOM     10  O   UNL     1      -3.333  -0.234   1.969  1.00  0.00    -0.422 OA
ATOM     11  C   UNL     1      -1.053   0.390  -0.823  1.00  0.00     0.016 A 
ATOM     12  C   UNL     1      -3.369  -0.408  -0.759  1.00  0.00    -0.027 A 
ATOM     13  C   UNL     1      -4.437  -0.683   1.370  1.00  0.00     0.339 A 
ATOM     14  C   UNL     1      -4.473  -0.765  -0.022  1.00  0.00     0.042 A 
ATOM     15  C   UNL     1      -3.597  -0.668  -2.210  1.00  0.00     0.037 C 
ATOM     16  O   UNL     1      -5.397  -1.021   2.038  1.00  0.00    -0.246 OA
ATOM     17  C   UNL     1      -5.555  -1.303  -0.892  1.00  0.00     0.044 C 
ATOM     18  C   UNL     1      -5.124  -0.767  -2.260  1.00  0.00     0.010 C 
ATOM     19  C   UNL     1      -1.134   0.640   3.498  1.00  0.00     0.052 C 
ENDBRANCH   4   5
ENDBRANCH   3   4
ENDBRANCH   1   3
BRANCH   1  20
ATOM     20  O   UNL     1       4.316   0.644   0.217  1.00  0.00    -0.460 OA
BRANCH  20  21
ATOM     21  C   UNL     1       5.023  -0.322  -0.481  1.00  0.00     0.170 C 
ATOM     22  C   UNL     1       6.385  -0.527   0.180  1.00  0.00     0.052 C 
ATOM     23  C   UNL     1       5.186   0.136  -1.930  1.00  0.00     0.052 C 
ENDBRANCH  20  21
ENDBRANCH   1  20
TORSDOF 5
