REMARK SMILES CC(C)C[C@](C)(O)CNCN[C@H]1C#CC[C@@H](CO)Oc2cc(ccc2O)[C@@H]2Oc3c(c4c(c5c3CC[C@@H](CO)O5)-c3ccc(O)c5c3[C@H](C4)[C@H](c3ccc4[nH]ccc4c3)C([C]NCCCc3ccccc3)=C5)C[C@]12OCN[C@@H]1CCC[C@]2(CCC[C@H]2C(=O)CCCO)C1
REMARK SMILES IDX 27 1 28 2 29 3 30 4 73 5 74 6 31 7 32 8 41 9 42 10 43 11
REMARK SMILES IDX 44 12 46 13 47 14 48 15 49 16 50 17 60 18 72 19 33 20 34 21
REMARK SMILES IDX 35 22 36 23 37 24 40 25 12 26 13 27 11 28 10 30 9 31 8 33
REMARK SMILES IDX 5 34 6 35 4 36 2 37 1 38 3 39 7 40 14 42 15 43 75 45 76 46
REMARK SMILES IDX 77 47 78 49 79 50 93 51 80 52 82 53 81 54 83 55 86 56 84 57
REMARK SMILES IDX 85 58 87 59 88 60 89 61 90 62 91 63 92 64 22 66 21 67 23 68
REMARK SMILES IDX 20 69 24 70 25 71 19 72 16 73 17 75 18 76 26 78 51 80 52 81
REMARK SMILES IDX 59 82 53 83 58 84 54 85 57 86 55 87 56 88 38 90 39 91 61 93
REMARK SMILES IDX 62 94 63 96 64 97 65 98 66 99 67 100 71 101 68 102 70 103
REMARK SMILES IDX 69 104 45 105
REMARK H PARENT 11 29 9 32 7 41 77 48 92 65 18 77 26 79 55 89 39 92 62 95
REMARK H PARENT 45 106
REMARK Flexibility Score:  179.900
ROOT
ATOM      1  C   UNL     1       1.294   0.796  -0.264  1.00  0.00     0.239 C 
ATOM      2  O   UNL     1       1.666   2.101   0.019  1.00  0.00    -0.482 OA
ATOM      3  C   UNL     1       0.976   3.250  -0.118  1.00  0.00     0.130 A 
ATOM      4  C   UNL     1      -0.140   3.327  -0.944  1.00  0.00     0.002 A 
ATOM      5  C   UNL     1      -0.324   2.054  -1.808  1.00  0.00     0.082 C 
ATOM      6  C   UNL     1      -0.110   0.650  -1.066  1.00  0.00     0.141 C 
ATOM      7  C   UNL     1      -0.930   4.558  -0.915  1.00  0.00    -0.029 A 
ATOM      8  C   UNL     1      -0.589   5.623  -0.009  1.00  0.00     0.028 A 
ATOM      9  C   UNL     1      -1.671   6.660   0.395  1.00  0.00    -0.010 A 
ATOM     10  C   UNL     1      -1.448   7.741   1.275  1.00  0.00     0.013 A 
ATOM     11  C   UNL     1      -2.516   8.377   1.916  1.00  0.00     0.047 A 
ATOM     12  C   UNL     1      -3.833   7.910   1.777  1.00  0.00     0.123 A 
ATOM     13  C   UNL     1      -4.120   6.854   0.896  1.00  0.00     0.020 A 
ATOM     14  C   UNL     1      -3.031   6.332   0.117  1.00  0.00    -0.025 A 
ATOM     15  C   UNL     1      -3.309   5.258  -0.831  1.00  0.00     0.037 C 
ATOM     16  C   UNL     1      -2.163   4.835  -1.766  1.00  0.00     0.046 C 
ATOM     17  C   UNL     1      -4.796   5.399  -1.415  1.00  0.00     0.055 C 
ATOM     18  C   UNL     1      -6.000   5.196   0.000  1.00  0.00    -0.037 C 
ATOM     19  C   UNL     1      -5.542   6.233   0.889  1.00  0.00     0.014 C 
ATOM     20  C   UNL     1       0.645   5.525   0.690  1.00  0.00     0.134 A 
ATOM     21  C   UNL     1       1.400   4.343   0.632  1.00  0.00     0.037 A 
ATOM     22  C   UNL     1       2.649   4.252   1.479  1.00  0.00     0.047 C 
ATOM     23  C   UNL     1       3.361   5.580   1.368  1.00  0.00     0.053 C 
ATOM     24  C   UNL     1       2.423   6.668   1.940  1.00  0.00     0.199 C 
ATOM     25  O   UNL     1       1.116   6.538   1.464  1.00  0.00    -0.487 OA
ENDROOT
BRANCH   6  26
ATOM     26  C   UNL     1      -1.429   0.415  -0.130  1.00  0.00     0.168 C 
ATOM     27  C   UNL     1      -1.549  -0.997   0.292  1.00  0.00    -0.081 C 
BRANCH  26  28
ATOM     28  N   UNL     1      -2.756   0.980  -0.628  1.00  0.00    -0.289 NA
ATOM     29  H   UNL     1      -3.101   1.659   0.092  1.00  0.00     0.125 HD
BRANCH  28  30
ATOM     30  C   UNL     1      -3.894   0.042  -0.901  1.00  0.00     0.166 C 
BRANCH  30  31
ATOM     31  N   UNL     1      -5.230   0.725  -1.080  1.00  0.00    -0.302 NA
ATOM     32  H   UNL     1      -5.757   0.159  -1.780  1.00  0.00     0.124 HD
BRANCH  31  33
ATOM     33  C   UNL     1      -6.072   0.820   0.168  1.00  0.00     0.117 C 
BRANCH  33  34
ATOM     34  C   UNL     1      -7.738   1.047   0.000  1.00  0.00     0.075 C 
ATOM     35  C   UNL     1      -7.880  -0.447   0.000  1.00  0.00     0.043 C 
BRANCH  34  36
ATOM     36  C   UNL     1      -7.995   2.394  -0.613  1.00  0.00     0.039 C 
BRANCH  36  37
ATOM     37  C   UNL     1      -7.453   4.033   0.000  1.00  0.00    -0.015 C 
ATOM     38  C   UNL     1      -7.856   4.178  -1.998  1.00  0.00     0.007 C 
ATOM     39  C   UNL     1      -5.959   3.890   0.000  1.00  0.00     0.007 C 
ENDBRANCH  36  37
ENDBRANCH  34  36
BRANCH  34  40
ATOM     40  O   UNL     1      -8.186   1.263   1.323  1.00  0.00    -0.389 OA
ATOM     41  H   UNL     1      -9.181   1.325   1.316  1.00  0.00     0.211 HD
ENDBRANCH  34  40
ENDBRANCH  33  34
ENDBRANCH  31  33
ENDBRANCH  30  31
ENDBRANCH  28  30
ENDBRANCH  26  28
BRANCH  27  42
ATOM     42  C   UNL     1      -1.576  -2.153   0.664  1.00  0.00    -0.098 C 
ATOM     43  C   UNL     1      -1.406  -3.561   1.055  1.00  0.00     0.137 CG0
ATOM     44  G   UNL     1      -0.544  -3.832   2.329  1.00  0.00     0.000 G0
ENDBRANCH  27  42
ENDBRANCH   6  26
BRANCH   6  45
ATOM     45  O   UNL     1       0.024  -0.348  -2.153  1.00  0.00    -0.353 OA
BRANCH  45  46
ATOM     46  C   UNL     1       0.765  -1.634  -2.127  1.00  0.00     0.246 C 
BRANCH  46  47
ATOM     47  N   UNL     1       2.239  -1.582  -1.788  1.00  0.00    -0.292 NA
ATOM     48  H   UNL     1       2.720  -0.955  -2.474  1.00  0.00     0.125 HD
BRANCH  47  49
ATOM     49  C   UNL     1       3.154  -2.779  -1.518  1.00  0.00     0.056 C 
ATOM     50  C   UNL     1       2.449  -3.994  -0.874  1.00  0.00     0.019 C 
ATOM     51  C   UNL     1       4.306  -2.302  -0.556  1.00  0.00     0.026 C 
ATOM     52  C   UNL     1       3.455  -5.035  -0.315  1.00  0.00     0.002 C 
ATOM     53  C   UNL     1       5.264  -3.322   0.289  1.00  0.00    -0.019 C 
ATOM     54  C   UNL     1       4.309  -4.422   0.822  1.00  0.00     0.008 C 
ATOM     55  C   UNL     1       5.812  -2.388   1.413  1.00  0.00     0.008 C 
ATOM     56  C   UNL     1       6.722  -3.916  -0.260  1.00  0.00     0.062 C 
ATOM     57  C   UNL     1       6.962  -1.641   0.725  1.00  0.00     0.001 C 
ATOM     58  C   UNL     1       7.360  -2.517  -0.477  1.00  0.00     0.012 C 
BRANCH  56  59
ATOM     59  C   UNL     1       8.003  -4.900  -0.000  1.00  0.00     0.136 C 
ATOM     60  O   UNL     1       9.102  -4.379   0.185  1.00  0.00    -0.299 OA
BRANCH  59  61
ATOM     61  C   UNL     1       8.084  -6.398  -0.000  1.00  0.00     0.078 C 
BRANCH  61  62
ATOM     62  C   UNL     1       8.165  -7.896   0.000  1.00  0.00     0.036 C 
BRANCH  62  63
ATOM     63  C   UNL     1       7.392  -8.494   1.184  1.00  0.00     0.156 C 
BRANCH  63  64
ATOM     64  O   UNL     1       7.532  -9.889   1.201  1.00  0.00    -0.396 OA
ATOM     65  H   UNL     1       6.923 -10.243   0.501  1.00  0.00     0.210 HD
ENDBRANCH  63  64
ENDBRANCH  62  63
ENDBRANCH  61  62
ENDBRANCH  59  61
ENDBRANCH  56  59
ENDBRANCH  47  49
ENDBRANCH  46  47
ENDBRANCH  45  46
ENDBRANCH   6  45
BRANCH   1  66
ATOM     66  C   UNL     1       1.488  -0.031   1.039  1.00  0.00    -0.001 A 
ATOM     67  C   UNL     1       1.160  -1.380   1.105  1.00  0.00     0.058 A 
ATOM     68  C   UNL     1       2.013   0.537   2.225  1.00  0.00     0.012 A 
ATOM     69  C   UNL     1       1.239  -2.148   2.259  1.00  0.00     0.161 A 
ATOM     70  C   UNL     1       2.181  -0.234   3.387  1.00  0.00     0.050 A 
ATOM     71  C   UNL     1       1.786  -1.577   3.413  1.00  0.00     0.157 A 
BRANCH  69  72
ATOM     72  O   UNL     1       0.795  -3.433   2.252  1.00  0.00    -0.483 OA
BRANCH  72  73
ATOM     73  C   UNL     1      -0.544  -3.832   2.329  1.00  0.00     0.210 CG0
ATOM     74  G   UNL     1      -1.406  -3.561   1.055  1.00  0.00     0.000 G0
BRANCH  73  75
ATOM     75  C   UNL     1      -0.559  -5.349   2.582  1.00  0.00     0.202 C 
BRANCH  75  76
ATOM     76  O   UNL     1       0.152  -5.649   3.750  1.00  0.00    -0.392 OA
ATOM     77  H   UNL     1       0.169  -6.640   3.812  1.00  0.00     0.210 HD
ENDBRANCH  75  76
ENDBRANCH  73  75
ENDBRANCH  72  73
ENDBRANCH  69  72
BRANCH  71  78
ATOM     78  O   UNL     1       1.938  -2.294   4.546  1.00  0.00    -0.504 OA
ATOM     79  H   UNL     1       1.700  -3.230   4.606  1.00  0.00     0.293 HD
ENDBRANCH  71  78
ENDBRANCH   1  66
BRANCH  17  80
ATOM     80  C   UNL     1      -5.103   5.886  -2.858  1.00  0.00    -0.039 A 
ATOM     81  C   UNL     1      -5.147   7.250  -3.239  1.00  0.00     0.006 A 
ATOM     82  C   UNL     1      -5.306   4.901  -3.896  1.00  0.00     0.014 A 
ATOM     83  C   UNL     1      -5.392   7.613  -4.594  1.00  0.00     0.027 A 
ATOM     84  C   UNL     1      -5.556   5.290  -5.185  1.00  0.00    -0.000 A 
ATOM     85  C   UNL     1      -5.597   6.597  -5.538  1.00  0.00     0.045 A 
ATOM     86  C   UNL     1      -5.792   4.525  -6.303  1.00  0.00     0.028 A 
ATOM     87  N   UNL     1      -5.846   6.703  -6.859  1.00  0.00    -0.361 N 
ATOM     88  C   UNL     1      -5.969   5.437  -7.330  1.00  0.00     0.083 A 
ATOM     89  H   UNL     1      -5.930   7.578  -7.420  1.00  0.00     0.166 HD
ENDBRANCH  17  80
BRANCH  24  90
ATOM     90  C   UNL     1       2.962   8.056   1.584  1.00  0.00     0.201 C 
BRANCH  90  91
ATOM     91  O   UNL     1       4.256   8.217   2.102  1.00  0.00    -0.393 OA
ATOM     92  H   UNL     1       4.733   8.839   1.492  1.00  0.00     0.210 HD
ENDBRANCH  90  91
ENDBRANCH  24  90
BRANCH  18  93
ATOM     93  C   UNL     1      -7.500   5.196   0.000  1.00  0.00     0.090 C 
BRANCH  93  94
ATOM     94  N   UNL     1      -9.000   5.196   0.000  1.00  0.00    -0.304 NA
ATOM     95  H   UNL     1      -9.530   4.569   0.686  1.00  0.00     0.123 HD
BRANCH  94  96
ATOM     96  C   UNL     1      -9.750   6.495   0.000  1.00  0.00     0.082 C 
BRANCH  96  97
ATOM     97  C   UNL     1     -10.500   7.794   0.000  1.00  0.00     0.020 C 
BRANCH  97  98
ATOM     98  C   UNL     1      -9.653   8.981   0.509  1.00  0.00     0.037 C 
BRANCH  98  99
ATOM     99  C   UNL     1     -10.337  10.336   0.421  1.00  0.00    -0.048 A 
ATOM    100  C   UNL     1      -9.611  11.469   0.830  1.00  0.00     0.004 A 
ATOM    101  C   UNL     1     -11.657  10.515  -0.053  1.00  0.00     0.004 A 
ATOM    102  C   UNL     1     -10.183  12.743   0.769  1.00  0.00     0.000 A 
ATOM    103  C   UNL     1     -12.223  11.792  -0.111  1.00  0.00     0.000 A 
ATOM    104  C   UNL     1     -11.487  12.905   0.299  1.00  0.00     0.000 A 
ENDBRANCH  98  99
ENDBRANCH  97  98
ENDBRANCH  96  97
ENDBRANCH  94  96
ENDBRANCH  93  94
ENDBRANCH  18  93
BRANCH  12 105
ATOM    105  O   UNL     1      -4.820   8.467   2.510  1.00  0.00    -0.507 OA
ATOM    106  H   UNL     1      -4.656   9.189   3.133  1.00  0.00     0.293 HD
ENDBRANCH  12 105
TORSDOF 30
