REMARK SMILES C=C[C@@H](O)CC#N
REMARK SMILES IDX 3 1 2 2 1 3 4 4 5 6 6 7 7 8
REMARK H PARENT 4 5
ROOT
ATOM      1  C   UNL     1       0.106  -0.046  -0.598  1.00  0.00     0.150 C 
ENDROOT
BRANCH   1   2
ATOM      2  C   UNL     1      -1.104  -0.688   0.038  1.00  0.00    -0.003 C 
ATOM      3  C   UNL     1      -2.349  -0.266  -0.201  1.00  0.00     0.007 C 
ENDBRANCH   1   2
BRANCH   1   4
ATOM      4  O   UNL     1      -0.135   1.301  -0.933  1.00  0.00    -0.388 OA
ATOM      5  H   UNL     1      -0.281   1.799  -0.086  1.00  0.00     0.211 HD
ENDBRANCH   1   4
BRANCH   1   6
ATOM      6  C   UNL     1       1.321  -0.170   0.332  1.00  0.00     0.156 C 
ATOM      7  C   UNL     1       2.506   0.436  -0.285  1.00  0.00     0.065 C 
ATOM      8  N   UNL     1       3.435   0.923  -0.772  1.00  0.00    -0.198 NA
ENDBRANCH   1   6
TORSDOF 3
