REMARK SMILES CC(C)=CC[C@H](CC/C(C)=C/C=C/C(C)=C/C=C/C(C)=C/C=C/C=C(C)/C=C/C=C(C)/C=C/C=C(C)/C=C/[C@H]([C@H]1CC(C)(C)OO1)C(C)(C)O)C(C)(C)O
REMARK SMILES IDX 19 1 20 2 21 3 18 4 17 5 16 6 14 7 15 8 13 9 12 10 11 11
REMARK SMILES IDX 9 12 10 13 8 14 7 15 6 16 5 17 4 18 2 19 1 20 3 21 51 22
REMARK SMILES IDX 52 23 53 24 54 25 22 27 23 28 24 29 25 30 26 31 27 32 28 33
REMARK SMILES IDX 29 34 30 35 31 36 32 37 33 38 34 39 35 40 36 41 37 42 38 43
REMARK SMILES IDX 39 44 40 45 41 46 46 47 42 48 45 49 43 50 44 51 47 52 48 53
REMARK SMILES IDX 49 54 50 55
REMARK H PARENT 54 26 50 56
ROOT
ATOM      1  C   UNL     1       2.792   5.244  -1.583  1.00  0.00    -0.051 C 
ATOM      2  C   UNL     1       2.353   4.556  -2.871  1.00  0.00     0.044 C 
ATOM      3  C   UNL     1       1.869   5.644  -0.674  1.00  0.00     0.003 C 
ENDROOT
BRANCH   1   4
ATOM      4  C   UNL     1       4.245   5.382  -1.238  1.00  0.00     0.003 C 
ATOM      5  C   UNL     1       5.128   4.483  -1.709  1.00  0.00     0.001 C 
BRANCH   5   6
ATOM      6  C   UNL     1       6.556   4.394  -1.297  1.00  0.00     0.003 C 
ATOM      7  C   UNL     1       7.255   3.241  -1.477  1.00  0.00    -0.051 C 
ATOM      8  C   UNL     1       6.590   2.036  -2.142  1.00  0.00     0.044 C 
BRANCH   7   9
ATOM      9  C   UNL     1       8.667   3.115  -0.992  1.00  0.00     0.003 C 
ATOM     10  C   UNL     1       9.107   1.919  -0.560  1.00  0.00     0.000 C 
BRANCH  10  11
ATOM     11  C   UNL     1      10.487   1.597  -0.113  1.00  0.00    -0.001 C 
ATOM     12  C   UNL     1      10.756   0.426   0.522  1.00  0.00    -0.073 C 
ATOM     13  C   UNL     1       9.633  -0.520   0.918  1.00  0.00     0.039 C 
BRANCH  12  14
ATOM     14  C   UNL     1      12.172   0.010   0.878  1.00  0.00     0.031 C 
BRANCH  14  15
ATOM     15  C   UNL     1      12.503  -1.305   0.126  1.00  0.00     0.011 C 
BRANCH  15  16
ATOM     16  C   UNL     1      13.830  -2.038   0.483  1.00  0.00     0.024 C 
BRANCH  16  17
ATOM     17  C   UNL     1      15.032  -1.193  -0.036  1.00  0.00     0.033 C 
BRANCH  17  18
ATOM     18  C   UNL     1      16.378  -1.882  -0.034  1.00  0.00    -0.028 C 
ATOM     19  C   UNL     1      16.757  -2.916  -0.827  1.00  0.00    -0.080 C 
ATOM     20  C   UNL     1      15.864  -3.528  -1.882  1.00  0.00     0.039 C 
ATOM     21  C   UNL     1      18.155  -3.457  -0.661  1.00  0.00     0.039 C 
ENDBRANCH  17  18
ENDBRANCH  16  17
BRANCH  16  22
ATOM     22  C   UNL     1      13.920  -2.516   1.997  1.00  0.00     0.062 C 
ATOM     23  C   UNL     1      15.070  -3.530   2.236  1.00  0.00     0.042 C 
ATOM     24  C   UNL     1      12.631  -3.255   2.420  1.00  0.00     0.042 C 
BRANCH  22  25
ATOM     25  O   UNL     1      14.076  -1.416   2.863  1.00  0.00    -0.390 OA
ATOM     26  H   UNL     1      14.999  -1.070   2.764  1.00  0.00     0.211 HD
ENDBRANCH  22  25
ENDBRANCH  16  22
ENDBRANCH  15  16
ENDBRANCH  14  15
ENDBRANCH  12  14
ENDBRANCH  10  11
ENDBRANCH   7   9
ENDBRANCH   5   6
ENDBRANCH   1   4
BRANCH   3  27
ATOM     27  C   UNL     1       0.425   5.330  -0.844  1.00  0.00     0.000 C 
ATOM     28  C   UNL     1      -0.469   5.448   0.150  1.00  0.00     0.000 C 
BRANCH  28  29
ATOM     29  C   UNL     1      -1.819   4.861  -0.067  1.00  0.00     0.003 C 
ATOM     30  C   UNL     1      -2.795   4.687   0.856  1.00  0.00    -0.051 C 
ATOM     31  C   UNL     1      -2.695   5.173   2.285  1.00  0.00     0.044 C 
BRANCH  30  32
ATOM     32  C   UNL     1      -3.981   3.891   0.413  1.00  0.00     0.003 C 
ATOM     33  C   UNL     1      -4.964   3.460   1.223  1.00  0.00     0.001 C 
BRANCH  33  34
ATOM     34  C   UNL     1      -6.015   2.569   0.658  1.00  0.00     0.003 C 
ATOM     35  C   UNL     1      -7.021   1.963   1.335  1.00  0.00    -0.051 C 
ATOM     36  C   UNL     1      -7.250   2.136   2.823  1.00  0.00     0.044 C 
BRANCH  35  37
ATOM     37  C   UNL     1      -7.924   1.070   0.544  1.00  0.00     0.003 C 
ATOM     38  C   UNL     1      -8.964   0.393   1.060  1.00  0.00     0.001 C 
BRANCH  38  39
ATOM     39  C   UNL     1      -9.803  -0.457   0.172  1.00  0.00     0.003 C 
ATOM     40  C   UNL     1     -10.922  -1.133   0.530  1.00  0.00    -0.051 C 
ATOM     41  C   UNL     1     -11.487  -1.131   1.938  1.00  0.00     0.044 C 
BRANCH  40  42
ATOM     42  C   UNL     1     -11.636  -1.891  -0.546  1.00  0.00    -0.001 C 
ATOM     43  C   UNL     1     -12.832  -2.478  -0.368  1.00  0.00    -0.018 C 
BRANCH  43  44
ATOM     44  C   UNL     1     -13.559  -3.186  -1.497  1.00  0.00     0.075 C 
BRANCH  44  45
ATOM     45  C   UNL     1     -14.797  -2.343  -1.927  1.00  0.00     0.169 C 
ATOM     46  C   UNL     1     -15.839  -2.082  -0.849  1.00  0.00     0.074 C 
ATOM     47  O   UNL     1     -14.405  -1.069  -2.384  1.00  0.00    -0.232 OA
ATOM     48  C   UNL     1     -15.941  -0.570  -0.943  1.00  0.00     0.101 C 
ATOM     49  O   UNL     1     -15.471  -0.283  -2.230  1.00  0.00    -0.230 OA
ATOM     50  C   UNL     1     -15.050   0.157   0.089  1.00  0.00     0.045 C 
ATOM     51  C   UNL     1     -17.392  -0.100  -0.775  1.00  0.00     0.045 C 
ENDBRANCH  44  45
BRANCH  44  52
ATOM     52  C   UNL     1     -13.871  -4.685  -1.132  1.00  0.00     0.068 C 
ATOM     53  C   UNL     1     -12.556  -5.450  -0.836  1.00  0.00     0.042 C 
ATOM     54  C   UNL     1     -14.562  -5.412  -2.303  1.00  0.00     0.042 C 
BRANCH  52  55
ATOM     55  O   UNL     1     -14.735  -4.767  -0.021  1.00  0.00    -0.390 OA
ATOM     56  H   UNL     1     -14.219  -4.557   0.800  1.00  0.00     0.211 HD
ENDBRANCH  52  55
ENDBRANCH  44  52
ENDBRANCH  43  44
ENDBRANCH  40  42
ENDBRANCH  38  39
ENDBRANCH  35  37
ENDBRANCH  33  34
ENDBRANCH  30  32
ENDBRANCH  28  29
ENDBRANCH   3  27
TORSDOF 22
