REMARK SMILES CC(=O)N[C@@H]1CC(=O)[C@]23C(=O)N[C@H](Cc4c[nH]c5ccccc45)[C@@H]2C(C)=C(C)[C@H](O)[C@@H]3/C=C\C[C@H](C)/C=C(/C)[C@@H](O)[C@@H]1O
REMARK SMILES IDX 9 1 10 2 11 3 12 4 13 5 24 6 25 7 26 8 27 9 28 10 29 11
REMARK SMILES IDX 31 12 7 14 8 15 6 16 5 17 4 18 2 19 3 20 1 21 42 23 43 25
REMARK SMILES IDX 32 27 33 28 34 29 35 30 36 31 37 32 38 33 39 34 40 35 41 37
REMARK SMILES IDX 14 39 15 40 16 41 23 42 17 43 22 44 18 45 21 46 19 47 20 48
REMARK SMILES IDX 30 50
REMARK H PARENT 12 13 4 22 43 26 41 38 17 49 30 51
REMARK Flexibility Score:   41.900
ROOT
ATOM      1  C   UNL     1       0.656  -0.982   0.691  1.00  0.00     0.125 C 
ATOM      2  C   UNL     1       0.460   0.312   1.426  1.00  0.00     0.235 C 
ATOM      3  O   UNL     1      -0.614   0.699   1.848  1.00  0.00    -0.274 OA
ATOM      4  N   UNL     1       1.594   1.053   1.528  1.00  0.00    -0.351 N 
ATOM      5  C   UNL     1       2.742   0.367   0.970  1.00  0.00     0.095 C 
ATOM      6  C   UNL     1       2.195  -1.088   0.924  1.00  0.00     0.061 C 
ATOM      7  C   UNL     1       2.815  -2.330   0.290  1.00  0.00    -0.065 C 
ATOM      8  C   UNL     1       4.268  -2.302  -0.116  1.00  0.00     0.040 C 
ATOM      9  C   UNL     1       2.034  -3.466   0.138  1.00  0.00    -0.045 C 
ATOM     10  C   UNL     1       2.575  -4.737  -0.484  1.00  0.00     0.042 C 
ATOM     11  C   UNL     1       0.539  -3.539   0.590  1.00  0.00     0.148 C 
ATOM     12  C   UNL     1       0.101  -2.289   1.389  1.00  0.00     0.068 C 
ATOM     13  H   UNL     1       1.623   2.006   1.921  1.00  0.00     0.163 HD
ENDROOT
BRANCH   1  14
ATOM     14  C   UNL     1       0.411  -0.807  -0.850  1.00  0.00     0.151 C 
ATOM     15  O   UNL     1       1.385  -0.846  -1.589  1.00  0.00    -0.298 OA
BRANCH  14  16
ATOM     16  C   UNL     1      -0.887  -0.707  -1.613  1.00  0.00     0.104 C 
BRANCH  16  17
ATOM     17  C   UNL     1      -1.904   0.396  -1.264  1.00  0.00     0.121 C 
BRANCH  17  18
ATOM     18  N   UNL     1      -1.278   1.717  -1.286  1.00  0.00    -0.350 N 
ATOM     19  C   UNL     1      -1.446   2.660  -0.316  1.00  0.00     0.217 C 
ATOM     20  O   UNL     1      -2.150   2.443   0.659  1.00  0.00    -0.275 OA
ATOM     21  C   UNL     1      -0.797   4.004  -0.459  1.00  0.00     0.114 C 
ATOM     22  H   UNL     1      -0.735   1.978  -2.124  1.00  0.00     0.163 HD
ENDBRANCH  17  18
BRANCH  17  23
ATOM     23  C   UNL     1      -3.087   0.390  -2.307  1.00  0.00     0.170 CG0
ATOM     24  G   UNL     1      -4.496   0.848  -1.814  1.00  0.00     0.000 G0
BRANCH  23  25
ATOM     25  O   UNL     1      -3.201  -0.811  -3.037  1.00  0.00    -0.388 OA
ATOM     26  H   UNL     1      -3.410  -1.541  -2.401  1.00  0.00     0.211 HD
ENDBRANCH  23  25
ENDBRANCH  17  23
ENDBRANCH  16  17
ENDBRANCH  14  16
ENDBRANCH   1  14
BRANCH  12  27
ATOM     27  C   UNL     1      -1.224  -2.354   2.188  1.00  0.00    -0.023 C 
ATOM     28  C   UNL     1      -2.560  -2.368   1.975  1.00  0.00    -0.030 C 
BRANCH  28  29
ATOM     29  C   UNL     1      -3.408  -2.301   0.741  1.00  0.00     0.034 C 
BRANCH  29  30
ATOM     30  C   UNL     1      -4.417  -1.110   0.796  1.00  0.00     0.012 C 
ATOM     31  C   UNL     1      -5.304  -1.118   2.057  1.00  0.00     0.012 C 
BRANCH  30  32
ATOM     32  C   UNL     1      -5.353  -1.165  -0.387  1.00  0.00    -0.022 C 
ATOM     33  C   UNL     1      -5.440  -0.324  -1.452  1.00  0.00    -0.046 C 
ATOM     34  C   UNL     1      -6.552  -0.591  -2.448  1.00  0.00     0.042 C 
BRANCH  33  35
ATOM     35  C   UNL     1      -4.496   0.848  -1.814  1.00  0.00     0.170 CG0
ATOM     36  G   UNL     1      -3.087   0.390  -2.307  1.00  0.00     0.000 G0
BRANCH  35  37
ATOM     37  O   UNL     1      -4.431   1.892  -0.874  1.00  0.00    -0.386 OA
ATOM     38  H   UNL     1      -4.872   1.607  -0.035  1.00  0.00     0.211 HD
ENDBRANCH  35  37
ENDBRANCH  33  35
ENDBRANCH  30  32
ENDBRANCH  29  30
ENDBRANCH  28  29
ENDBRANCH  12  27
BRANCH   5  39
ATOM     39  C   UNL     1       3.180   1.046  -0.352  1.00  0.00     0.063 C 
BRANCH  39  40
ATOM     40  C   UNL     1       3.764   2.418  -0.142  1.00  0.00    -0.021 A 
ATOM     41  C   UNL     1       3.264   3.598  -0.685  1.00  0.00     0.087 A 
ATOM     42  C   UNL     1       4.890   2.783   0.578  1.00  0.00     0.003 A 
ATOM     43  N   UNL     1       4.027   4.647  -0.310  1.00  0.00    -0.361 N 
ATOM     44  C   UNL     1       5.814   2.036   1.313  1.00  0.00     0.010 A 
ATOM     45  C   UNL     1       5.011   4.147   0.455  1.00  0.00     0.046 A 
ATOM     46  C   UNL     1       6.870   2.724   1.938  1.00  0.00     0.001 A 
ATOM     47  C   UNL     1       6.047   4.853   1.061  1.00  0.00     0.026 A 
ATOM     48  C   UNL     1       6.985   4.126   1.814  1.00  0.00     0.002 A 
ATOM     49  H   UNL     1       3.882   5.647  -0.574  1.00  0.00     0.166 HD
ENDBRANCH  39  40
ENDBRANCH   5  39
BRANCH  11  50
ATOM     50  O   UNL     1      -0.335  -3.780  -0.486  1.00  0.00    -0.388 OA
ATOM     51  H   UNL     1       0.091  -3.469  -1.326  1.00  0.00     0.211 HD
ENDBRANCH  11  50
TORSDOF 6
