REMARK SMILES CO[C@H]1[C@@H](O)[C@@H](C)O[C@@H](O[C@H]2CC[C@@]3(C=O)[C@@H](CC[C@@H]4[C@@H]3CC[C@]3(C)[C@@H](C5=CC(=O)OC5)CC[C@]43O)C2)[C@@H]1O
REMARK SMILES IDX 10 1 9 2 3 3 4 4 38 5 6 6 8 7 7 8 2 9 1 10 5 11 39 13 11 15
REMARK SMILES IDX 12 16 37 17 13 18 17 19 14 20 18 21 21 22 19 23 20 24 22 25
REMARK SMILES IDX 35 26 23 27 34 28 24 29 33 30 26 31 25 32 15 33 16 34 36 35
REMARK SMILES IDX 27 37 28 38 32 39 29 40 31 41 30 42
REMARK H PARENT 5 12 39 14 36 36
ROOT
ATOM      1  O   UNL     1      -3.841   0.086  -0.766  1.00  0.00    -0.347 OA
ENDROOT
BRANCH   1   2
ATOM      2  C   UNL     1      -4.706  -0.866  -0.161  1.00  0.00     0.282 C 
ATOM      3  C   UNL     1      -6.795  -1.034   1.197  1.00  0.00     0.183 C 
ATOM      4  C   UNL     1      -7.631  -1.083  -0.110  1.00  0.00     0.175 C 
ATOM      5  C   UNL     1      -5.560  -0.174   0.954  1.00  0.00     0.202 C 
ATOM      6  C   UNL     1      -6.749  -1.002  -1.400  1.00  0.00     0.150 C 
ATOM      7  O   UNL     1      -5.456  -1.539  -1.181  1.00  0.00    -0.344 OA
ATOM      8  C   UNL     1      -6.649   0.381  -2.083  1.00  0.00     0.041 C 
BRANCH   3   9
ATOM      9  O   UNL     1      -7.575  -0.517   2.266  1.00  0.00    -0.376 OA
ATOM     10  C   UNL     1      -7.674  -1.451   3.317  1.00  0.00     0.195 C 
ENDBRANCH   3   9
BRANCH   4  11
ATOM     11  O   UNL     1      -8.656  -0.117  -0.144  1.00  0.00    -0.388 OA
ATOM     12  H   UNL     1      -8.253   0.762   0.079  1.00  0.00     0.211 HD
ENDBRANCH   4  11
BRANCH   5  13
ATOM     13  O   UNL     1      -4.809   0.009   2.129  1.00  0.00    -0.385 OA
ATOM     14  H   UNL     1      -4.567  -0.887   2.481  1.00  0.00     0.211 HD
ENDBRANCH   5  13
ENDBRANCH   1   2
BRANCH   1  15
ATOM     15  C   UNL     1      -2.463  -0.159  -0.533  1.00  0.00     0.122 C 
ATOM     16  C   UNL     1      -1.695   0.056  -1.845  1.00  0.00     0.033 C 
ATOM     17  C   UNL     1      -1.948   0.810   0.545  1.00  0.00     0.036 C 
ATOM     18  C   UNL     1      -0.175  -0.117  -1.629  1.00  0.00     0.018 C 
ATOM     19  C   UNL     1      -0.447   0.573   0.781  1.00  0.00     0.005 C 
ATOM     20  C   UNL     1       0.387   0.833  -0.518  1.00  0.00     0.032 C 
ATOM     21  C   UNL     1       0.076   1.398   1.973  1.00  0.00     0.005 C 
ATOM     22  C   UNL     1       1.888   0.473  -0.221  1.00  0.00     0.008 C 
ATOM     23  C   UNL     1       1.512   0.974   2.283  1.00  0.00     0.007 C 
ATOM     24  C   UNL     1       2.450   1.165   1.066  1.00  0.00     0.026 C 
ATOM     25  C   UNL     1       2.819   0.711  -1.454  1.00  0.00     0.006 C 
ATOM     26  C   UNL     1       3.909   0.659   1.399  1.00  0.00     0.074 C 
ATOM     27  C   UNL     1       4.192   1.309  -1.093  1.00  0.00     0.010 C 
ATOM     28  C   UNL     1       3.929  -0.823   1.908  1.00  0.00     0.037 C 
ATOM     29  C   UNL     1       4.872   0.642   0.130  1.00  0.00     0.003 C 
ATOM     30  C   UNL     1       5.217  -1.404   1.360  1.00  0.00     0.012 C 
ATOM     31  C   UNL     1       5.191  -0.874  -0.078  1.00  0.00     0.028 C 
ATOM     32  C   UNL     1       6.190   1.429   0.413  1.00  0.00     0.015 C 
BRANCH  20  33
ATOM     33  C   UNL     1       0.295   2.306  -0.941  1.00  0.00     0.231 C 
ATOM     34  O   UNL     1      -0.111   2.639  -2.043  1.00  0.00    -0.303 OA
ENDBRANCH  20  33
BRANCH  26  35
ATOM     35  O   UNL     1       4.413   1.521   2.402  1.00  0.00    -0.389 OA
ATOM     36  H   UNL     1       5.103   1.047   2.936  1.00  0.00     0.211 HD
ENDBRANCH  26  35
BRANCH  31  37
ATOM     37  C   UNL     1       6.413  -1.224  -0.918  1.00  0.00    -0.022 C 
ATOM     38  C   UNL     1       7.455  -1.934  -0.501  1.00  0.00     0.096 C 
ATOM     39  C   UNL     1       6.618  -0.850  -2.371  1.00  0.00     0.265 C 
ATOM     40  C   UNL     1       8.341  -2.041  -1.632  1.00  0.00     0.331 C 
ATOM     41  O   UNL     1       7.835  -1.414  -2.703  1.00  0.00    -0.458 OA
ATOM     42  O   UNL     1       9.408  -2.633  -1.637  1.00  0.00    -0.247 OA
ENDBRANCH  31  37
ENDBRANCH   1  15
TORSDOF 8
