REMARK SMILES COc1cc(NC(=S)N[C@H]2CO[C@H]3[C@@H]2OC[C@@H]3n2nnnc2Oc2ccc3c(c2)OCO3)cc(OC)c1
REMARK SMILES IDX 10 1 11 2 12 3 13 4 14 5 15 6 16 7 17 8 9 9 6 10 7 11 8 12
REMARK SMILES IDX 5 15 3 16 4 17 37 18 34 19 33 20 2 21 1 22 35 23 36 24 18 25
REMARK SMILES IDX 19 26 22 27 20 28 21 29 23 30 24 31 25 32 29 33 26 34 28 35
REMARK SMILES IDX 27 36 30 37 32 38 31 39
REMARK H PARENT 6 13 9 14
ROOT
ATOM      1  C   UNL     1       0.303  -1.003  -1.793  1.00  0.00     0.139 C 
ATOM      2  C   UNL     1       0.833   0.352  -2.197  1.00  0.00     0.188 C 
ATOM      3  O   UNL     1       1.896   0.554  -1.292  1.00  0.00    -0.371 OA
ATOM      4  C   UNL     1       1.357   0.176  -0.031  1.00  0.00     0.176 C 
ATOM      5  C   UNL     1       0.366  -0.965  -0.281  1.00  0.00     0.174 C 
ATOM      6  O   UNL     1       0.933  -2.180   0.192  1.00  0.00    -0.371 OA
ATOM      7  C   UNL     1       2.312  -1.908   0.336  1.00  0.00     0.191 C 
ATOM      8  C   UNL     1       2.385  -0.491   0.862  1.00  0.00     0.172 C 
ENDROOT
BRANCH   1   9
ATOM      9  N   UNL     1      -0.945  -1.509  -2.347  1.00  0.00    -0.355 N 
ATOM     10  N   UNL     1      -2.538   0.269  -1.540  1.00  0.00    -0.333 N 
ATOM     11  C   UNL     1      -2.281  -1.032  -2.105  1.00  0.00     0.171 C 
ATOM     12  S   UNL     1      -3.370  -1.838  -2.611  1.00  0.00    -0.041 S 
ATOM     13  H   UNL     1      -1.766   0.932  -1.501  1.00  0.00     0.169 HD
ATOM     14  H   UNL     1      -0.845  -2.382  -2.892  1.00  0.00     0.163 HD
BRANCH  10  15
ATOM     15  C   UNL     1      -3.829   0.815  -1.246  1.00  0.00     0.048 A 
ATOM     16  C   UNL     1      -5.330   2.736  -1.311  1.00  0.00     0.124 A 
ATOM     17  C   UNL     1      -4.074   2.166  -1.535  1.00  0.00     0.072 A 
ATOM     18  C   UNL     1      -6.349   1.949  -0.740  1.00  0.00     0.093 A 
ATOM     19  C   UNL     1      -6.115   0.612  -0.402  1.00  0.00     0.124 A 
ATOM     20  C   UNL     1      -4.854   0.044  -0.669  1.00  0.00     0.072 A 
BRANCH  16  21
ATOM     21  O   UNL     1      -5.520   4.032  -1.670  1.00  0.00    -0.497 OA
ATOM     22  C   UNL     1      -6.720   4.713  -1.626  1.00  0.00     0.278 C 
ENDBRANCH  16  21
BRANCH  19  23
ATOM     23  O   UNL     1      -7.123  -0.089   0.180  1.00  0.00    -0.497 OA
ATOM     24  C   UNL     1      -7.033  -1.380   0.659  1.00  0.00     0.278 C 
ENDBRANCH  19  23
ENDBRANCH  10  15
ENDBRANCH   1   9
BRANCH   8  25
ATOM     25  N   UNL     1       1.987  -0.498   2.287  1.00  0.00    -0.187 N 
ATOM     26  N   UNL     1       0.882   0.042   2.778  1.00  0.00    -0.042 NA
ATOM     27  C   UNL     1       2.604  -1.084   3.343  1.00  0.00     0.341 A 
ATOM     28  N   UNL     1       0.816  -0.212   4.078  1.00  0.00    -0.020 NA
ATOM     29  N   UNL     1       1.871  -0.922   4.456  1.00  0.00    -0.070 NA
BRANCH  27  30
ATOM     30  O   UNL     1       3.766  -1.789   3.315  1.00  0.00    -0.423 OA
BRANCH  30  31
ATOM     31  C   UNL     1       4.842  -1.500   2.544  1.00  0.00     0.135 A 
ATOM     32  C   UNL     1       5.566  -2.557   1.941  1.00  0.00     0.051 A 
ATOM     33  C   UNL     1       5.254  -0.162   2.337  1.00  0.00     0.097 A 
ATOM     34  C   UNL     1       6.666  -2.283   1.105  1.00  0.00     0.054 A 
ATOM     35  C   UNL     1       6.344   0.061   1.503  1.00  0.00     0.169 A 
ATOM     36  C   UNL     1       7.014  -0.948   0.912  1.00  0.00     0.166 A 
ATOM     37  O   UNL     1       6.888   1.226   1.143  1.00  0.00    -0.453 OA
ATOM     38  O   UNL     1       7.996  -0.444   0.161  1.00  0.00    -0.454 OA
ATOM     39  C   UNL     1       7.943   0.944   0.279  1.00  0.00     0.468 C 
ENDBRANCH  30  31
ENDBRANCH  27  30
ENDBRANCH   8  25
TORSDOF 7
