REMARK SMILES CC(C)=CCC[C@@](C)(O[C@@H]1O[C@H](CO[C@H]2O[C@H](CO)[C@@H](O)[C@H](O)[C@H]2O)[C@@H](O)[C@H](O)[C@H]1O)[C@H]1CC[C@@]2(C)[C@H]1[C@H](O)C[C@H]1[C@]3(C)CC[C@H](O)C(C)(C)[C@@H]3[C@H](O[C@@H]3O[C@H](CO)[C@@H](O)[C@H](O)[C@H]3O)C[C@]12C
REMARK SMILES IDX 9 1 7 2 8 3 6 4 5 5 4 6 2 7 1 8 3 9 32 10 33 11 37 12 34 13
REMARK SMILES IDX 35 14 38 15 66 16 40 17 65 18 41 19 52 20 42 21 51 22 44 23
REMARK SMILES IDX 48 24 45 25 46 26 36 27 67 28 43 29 49 30 50 31 39 32 53 34
REMARK SMILES IDX 54 35 55 36 63 37 56 38 61 39 59 40 64 41 57 43 58 44 62 46
REMARK SMILES IDX 60 48 47 50 10 52 11 53 30 54 12 55 28 56 26 57 31 58 13 60
REMARK SMILES IDX 14 61 15 62 16 63 24 64 17 65 22 66 20 67 25 68 18 70 19 71
REMARK SMILES IDX 23 73 21 75 29 77 27 79
REMARK H PARENT 39 33 64 42 58 45 62 47 60 49 47 51 31 59 25 69 19 72 23 74
REMARK H PARENT 21 76 29 78 27 80
ROOT
ATOM      1  O   UNL     1       3.221  -1.846   0.528  1.00  0.00    -0.343 OA
ENDROOT
BRANCH   1   2
ATOM      2  C   UNL     1       1.926  -2.467   0.617  1.00  0.00     0.072 C 
ATOM      3  C   UNL     1       1.624  -2.854   2.104  1.00  0.00     0.043 C 
BRANCH   2   4
ATOM      4  C   UNL     1       2.054  -3.840  -0.117  1.00  0.00     0.040 C 
BRANCH   4   5
ATOM      5  C   UNL     1       2.553  -3.810  -1.567  1.00  0.00     0.030 C 
BRANCH   5   6
ATOM      6  C   UNL     1       2.868  -5.132  -2.259  1.00  0.00    -0.028 C 
ATOM      7  C   UNL     1       2.727  -6.427  -1.860  1.00  0.00    -0.080 C 
ATOM      8  C   UNL     1       2.161  -6.878  -0.534  1.00  0.00     0.039 C 
ATOM      9  C   UNL     1       3.165  -7.496  -2.835  1.00  0.00     0.039 C 
ENDBRANCH   5   6
ENDBRANCH   4   5
ENDBRANCH   2   4
BRANCH   2  10
ATOM     10  C   UNL     1       0.795  -1.509   0.035  1.00  0.00     0.027 C 
ATOM     11  C   UNL     1       0.990  -0.709  -1.269  1.00  0.00     0.007 C 
ATOM     12  C   UNL     1      -0.754  -1.824   0.086  1.00  0.00     0.030 C 
ATOM     13  C   UNL     1      -0.379  -0.013  -1.431  1.00  0.00     0.008 C 
ATOM     14  C   UNL     1      -1.404  -1.150  -1.168  1.00  0.00    -0.021 C 
ATOM     15  C   UNL     1      -1.441  -3.157   0.392  1.00  0.00     0.118 C 
ATOM     16  C   UNL     1      -2.944  -0.724  -0.869  1.00  0.00    -0.021 C 
ATOM     17  C   UNL     1      -2.911  -2.821   0.718  1.00  0.00     0.036 C 
ATOM     18  C   UNL     1      -3.011   0.387   0.231  1.00  0.00     0.040 C 
ATOM     19  C   UNL     1      -3.775  -1.992  -0.332  1.00  0.00     0.004 C 
ATOM     20  C   UNL     1      -4.423   0.801   0.687  1.00  0.00     0.126 C 
ATOM     21  C   UNL     1      -5.254  -1.688   0.301  1.00  0.00    -0.023 C 
ATOM     22  C   UNL     1      -5.177  -0.454   1.323  1.00  0.00     0.033 C 
ATOM     23  C   UNL     1      -6.392  -1.361  -0.728  1.00  0.00     0.010 C 
ATOM     24  C   UNL     1      -6.564  -0.076   2.034  1.00  0.00    -0.004 C 
ATOM     25  C   UNL     1      -7.771  -1.107  -0.034  1.00  0.00     0.033 C 
ATOM     26  C   UNL     1      -7.726   0.050   0.989  1.00  0.00     0.120 C 
ATOM     27  C   UNL     1      -1.353  -2.082  -2.443  1.00  0.00     0.012 C 
ATOM     28  C   UNL     1      -3.519  -0.162  -2.209  1.00  0.00     0.012 C 
ATOM     29  C   UNL     1      -5.699  -3.049   0.956  1.00  0.00     0.012 C 
ATOM     30  C   UNL     1      -6.951  -1.105   3.138  1.00  0.00     0.014 C 
ATOM     31  C   UNL     1      -6.442   1.257   2.831  1.00  0.00     0.014 C 
BRANCH  15  32
ATOM     32  O   UNL     1      -1.317  -4.096  -0.644  1.00  0.00    -0.393 OA
ATOM     33  H   UNL     1      -1.633  -4.970  -0.290  1.00  0.00     0.210 HD
ENDBRANCH  15  32
BRANCH  20  34
ATOM     34  O   UNL     1      -5.135   1.436  -0.376  1.00  0.00    -0.346 OA
BRANCH  34  35
ATOM     35  C   UNL     1      -5.121   2.872  -0.376  1.00  0.00     0.282 C 
ATOM     36  O   UNL     1      -6.465   3.348  -0.560  1.00  0.00    -0.341 OA
ATOM     37  C   UNL     1      -4.087   3.466  -1.398  1.00  0.00     0.202 C 
ATOM     38  C   UNL     1      -6.800   3.742  -1.885  1.00  0.00     0.178 C 
ATOM     39  C   UNL     1      -4.509   4.905  -1.710  1.00  0.00     0.179 C 
ATOM     40  C   UNL     1      -5.902   4.914  -2.378  1.00  0.00     0.177 C 
BRANCH  37  41
ATOM     41  O   UNL     1      -2.777   3.432  -0.893  1.00  0.00    -0.385 OA
ATOM     42  H   UNL     1      -2.745   4.005  -0.083  1.00  0.00     0.211 HD
ENDBRANCH  37  41
BRANCH  38  43
ATOM     43  C   UNL     1      -6.870   2.537  -2.861  1.00  0.00     0.191 C 
BRANCH  43  44
ATOM     44  O   UNL     1      -7.823   1.615  -2.414  1.00  0.00    -0.394 OA
ATOM     45  H   UNL     1      -7.823   0.872  -3.072  1.00  0.00     0.210 HD
ENDBRANCH  43  44
ENDBRANCH  38  43
BRANCH  39  46
ATOM     46  O   UNL     1      -3.568   5.593  -2.495  1.00  0.00    -0.387 OA
ATOM     47  H   UNL     1      -3.451   5.078  -3.336  1.00  0.00     0.211 HD
ENDBRANCH  39  46
BRANCH  40  48
ATOM     48  O   UNL     1      -6.510   6.163  -2.161  1.00  0.00    -0.387 OA
ATOM     49  H   UNL     1      -6.755   6.215  -1.201  1.00  0.00     0.211 HD
ENDBRANCH  40  48
ENDBRANCH  34  35
ENDBRANCH  20  34
BRANCH  26  50
ATOM     50  O   UNL     1      -7.621   1.247   0.285  1.00  0.00    -0.393 OA
ATOM     51  H   UNL     1      -8.541   1.586   0.121  1.00  0.00     0.210 HD
ENDBRANCH  26  50
ENDBRANCH   2  10
ENDBRANCH   1   2
BRANCH   1  52
ATOM     52  C   UNL     1       3.432  -0.680   1.327  1.00  0.00     0.282 C 
ATOM     53  O   UNL     1       3.631   0.425   0.440  1.00  0.00    -0.341 OA
ATOM     54  C   UNL     1       4.661  -0.897   2.241  1.00  0.00     0.202 C 
ATOM     55  C   UNL     1       4.315   1.563   0.981  1.00  0.00     0.178 C 
ATOM     56  C   UNL     1       4.872   0.333   3.165  1.00  0.00     0.179 C 
ATOM     57  C   UNL     1       4.283   1.624   2.541  1.00  0.00     0.177 C 
BRANCH  54  58
ATOM     58  O   UNL     1       4.593  -2.081   2.992  1.00  0.00    -0.385 OA
ATOM     59  H   UNL     1       3.860  -1.975   3.652  1.00  0.00     0.211 HD
ENDBRANCH  54  58
BRANCH  55  60
ATOM     60  C   UNL     1       5.716   1.681   0.354  1.00  0.00     0.198 C 
BRANCH  60  61
ATOM     61  O   UNL     1       6.332   2.878   0.791  1.00  0.00    -0.347 OA
BRANCH  61  62
ATOM     62  C   UNL     1       7.669   2.969   0.323  1.00  0.00     0.282 C 
ATOM     63  O   UNL     1       7.957   4.317   0.006  1.00  0.00    -0.341 OA
ATOM     64  C   UNL     1       8.655   2.444   1.408  1.00  0.00     0.202 C 
ATOM     65  C   UNL     1       9.248   4.487  -0.598  1.00  0.00     0.178 C 
ATOM     66  C   UNL     1      10.110   2.901   1.130  1.00  0.00     0.179 C 
ATOM     67  C   UNL     1      10.257   3.307  -0.344  1.00  0.00     0.177 C 
BRANCH  64  68
ATOM     68  O   UNL     1       8.277   2.830   2.707  1.00  0.00    -0.385 OA
ATOM     69  H   UNL     1       8.162   3.817   2.702  1.00  0.00     0.211 HD
ENDBRANCH  64  68
BRANCH  65  70
ATOM     70  C   UNL     1       9.085   4.793  -2.094  1.00  0.00     0.191 C 
BRANCH  70  71
ATOM     71  O   UNL     1      10.316   5.100  -2.690  1.00  0.00    -0.394 OA
ATOM     72  H   UNL     1      10.555   6.017  -2.391  1.00  0.00     0.210 HD
ENDBRANCH  70  71
ENDBRANCH  65  70
BRANCH  66  73
ATOM     73  O   UNL     1      11.037   1.922   1.525  1.00  0.00    -0.387 OA
ATOM     74  H   UNL     1      10.918   1.142   0.923  1.00  0.00     0.211 HD
ENDBRANCH  66  73
BRANCH  67  75
ATOM     75  O   UNL     1      11.577   3.677  -0.655  1.00  0.00    -0.387 OA
ATOM     76  H   UNL     1      11.831   4.427  -0.057  1.00  0.00     0.211 HD
ENDBRANCH  67  75
ENDBRANCH  61  62
ENDBRANCH  60  61
ENDBRANCH  55  60
BRANCH  56  77
ATOM     77  O   UNL     1       6.218   0.457   3.548  1.00  0.00    -0.387 OA
ATOM     78  H   UNL     1       6.751   0.638   2.738  1.00  0.00     0.211 HD
ENDBRANCH  56  77
BRANCH  57  79
ATOM     79  O   UNL     1       2.939   1.719   2.975  1.00  0.00    -0.387 OA
ATOM     80  H   UNL     1       2.439   2.337   2.382  1.00  0.00     0.211 HD
ENDBRANCH  57  79
ENDBRANCH   1  52
TORSDOF 26
