REMARK SMILES O=c1c(O[C@@H]2O[C@@H](CO)[C@@H](O)[C@H](O)[C@@H]2O)c(-c2ccc(O)cc2)oc2cc(O)c([C@@H]3O[C@H](CO)[C@@H](O)[C@H](O)[C@H]3O)c(O)c12
REMARK SMILES IDX 1 1 2 2 3 3 16 4 24 5 25 6 26 7 27 8 29 9 41 10 43 11 4 12
REMARK SMILES IDX 5 13 6 14 14 15 7 16 12 17 10 18 15 19 8 21 9 22 13 24 11 26
REMARK SMILES IDX 17 28 18 29 23 30 19 31 22 32 20 33 21 34 42 36 30 38 31 39
REMARK SMILES IDX 39 40 32 41 37 42 35 43 40 44 33 46 34 47 38 49 36 51 28 53
REMARK H PARENT 15 20 9 23 13 25 11 27 21 35 42 37 40 45 34 48 38 50 36 52
REMARK H PARENT 28 54
ROOT
ATOM      1  O   UNL     1      -0.332   1.265  -0.555  1.00  0.00    -0.285 OA
ATOM      2  C   UNL     1      -0.262   0.054  -0.439  1.00  0.00     0.239 A 
ATOM      3  C   UNL     1      -1.450  -0.696  -0.426  1.00  0.00     0.214 A 
ATOM      4  C   UNL     1      -1.370  -2.105  -0.292  1.00  0.00     0.180 A 
ATOM      5  O   UNL     1      -0.167  -2.664  -0.177  1.00  0.00    -0.452 OA
ATOM      6  C   UNL     1       0.978  -1.990  -0.189  1.00  0.00     0.146 A 
ATOM      7  C   UNL     1       2.170  -2.692  -0.076  1.00  0.00     0.094 A 
ATOM      8  C   UNL     1       3.397  -2.026  -0.067  1.00  0.00     0.128 A 
ATOM      9  C   UNL     1       3.458  -0.613  -0.169  1.00  0.00     0.068 A 
ATOM     10  C   UNL     1       2.226   0.113  -0.304  1.00  0.00     0.140 A 
ATOM     11  C   UNL     1       0.988  -0.590  -0.313  1.00  0.00     0.111 A 
ENDROOT
BRANCH   3  12
ATOM     12  O   UNL     1      -2.641  -0.058  -0.503  1.00  0.00    -0.454 OA
BRANCH  12  13
ATOM     13  C   UNL     1      -3.174   0.680   0.539  1.00  0.00     0.339 C 
ATOM     14  O   UNL     1      -4.389   0.043   0.952  1.00  0.00    -0.332 OA
ATOM     15  C   UNL     1      -3.331   2.164   0.116  1.00  0.00     0.214 C 
ATOM     16  C   UNL     1      -5.493   0.915   1.175  1.00  0.00     0.179 C 
ATOM     17  C   UNL     1      -3.931   2.941   1.308  1.00  0.00     0.180 C 
ATOM     18  C   UNL     1      -5.087   2.162   2.006  1.00  0.00     0.177 C 
BRANCH  15  19
ATOM     19  O   UNL     1      -4.161   2.263  -1.015  1.00  0.00    -0.384 OA
ATOM     20  H   UNL     1      -3.600   2.049  -1.806  1.00  0.00     0.211 HD
ENDBRANCH  15  19
BRANCH  16  21
ATOM     21  C   UNL     1      -6.635   0.121   1.829  1.00  0.00     0.191 C 
BRANCH  21  22
ATOM     22  O   UNL     1      -6.248  -0.426   3.061  1.00  0.00    -0.394 OA
ATOM     23  H   UNL     1      -5.750  -1.260   2.858  1.00  0.00     0.210 HD
ENDBRANCH  21  22
ENDBRANCH  16  21
BRANCH  17  24
ATOM     24  O   UNL     1      -4.312   4.241   0.932  1.00  0.00    -0.387 OA
ATOM     25  H   UNL     1      -5.107   4.161   0.344  1.00  0.00     0.211 HD
ENDBRANCH  17  24
BRANCH  18  26
ATOM     26  O   UNL     1      -4.711   1.800   3.316  1.00  0.00    -0.387 OA
ATOM     27  H   UNL     1      -3.949   1.167   3.255  1.00  0.00     0.211 HD
ENDBRANCH  18  26
ENDBRANCH  12  13
ENDBRANCH   3  12
BRANCH   4  28
ATOM     28  C   UNL     1      -2.556  -3.026  -0.213  1.00  0.00     0.021 A 
ATOM     29  C   UNL     1      -3.872  -2.664  -0.590  1.00  0.00     0.016 A 
ATOM     30  C   UNL     1      -2.352  -4.335   0.276  1.00  0.00     0.016 A 
ATOM     31  C   UNL     1      -4.931  -3.567  -0.460  1.00  0.00     0.047 A 
ATOM     32  C   UNL     1      -3.416  -5.232   0.408  1.00  0.00     0.047 A 
ATOM     33  C   UNL     1      -4.707  -4.852   0.045  1.00  0.00     0.115 A 
BRANCH  33  34
ATOM     34  O   UNL     1      -5.724  -5.726   0.184  1.00  0.00    -0.508 OA
ATOM     35  H   UNL     1      -6.635  -5.497  -0.051  1.00  0.00     0.293 HD
ENDBRANCH  33  34
ENDBRANCH   4  28
BRANCH  10  36
ATOM     36  O   UNL     1       2.174   1.460  -0.444  1.00  0.00    -0.506 OA
ATOM     37  H   UNL     1       2.905   2.068  -0.574  1.00  0.00     0.293 HD
ENDBRANCH  10  36
BRANCH   9  38
ATOM     38  C   UNL     1       4.859   0.025  -0.084  1.00  0.00     0.188 C 
ATOM     39  O   UNL     1       4.772   1.369   0.392  1.00  0.00    -0.362 OA
ATOM     40  C   UNL     1       5.657  -0.171  -1.424  1.00  0.00     0.179 C 
ATOM     41  C   UNL     1       5.783   2.210  -0.122  1.00  0.00     0.176 C 
ATOM     42  C   UNL     1       5.316   0.996  -2.368  1.00  0.00     0.177 C 
ATOM     43  C   UNL     1       5.656   2.350  -1.674  1.00  0.00     0.177 C 
BRANCH  40  44
ATOM     44  O   UNL     1       7.039  -0.181  -1.161  1.00  0.00    -0.387 OA
ATOM     45  H   UNL     1       7.488  -0.488  -1.992  1.00  0.00     0.211 HD
ENDBRANCH  40  44
BRANCH  41  46
ATOM     46  C   UNL     1       5.696   3.573   0.579  1.00  0.00     0.191 C 
BRANCH  46  47
ATOM     47  O   UNL     1       6.716   4.434   0.152  1.00  0.00    -0.394 OA
ATOM     48  H   UNL     1       7.543   4.147   0.619  1.00  0.00     0.210 HD
ENDBRANCH  46  47
ENDBRANCH  41  46
BRANCH  42  49
ATOM     49  O   UNL     1       3.945   0.960  -2.673  1.00  0.00    -0.387 OA
ATOM     50  H   UNL     1       3.810   0.212  -3.313  1.00  0.00     0.211 HD
ENDBRANCH  42  49
BRANCH  43  51
ATOM     51  O   UNL     1       6.834   2.909  -2.202  1.00  0.00    -0.388 OA
ATOM     52  H   UNL     1       7.572   2.267  -2.039  1.00  0.00     0.211 HD
ENDBRANCH  43  51
ENDBRANCH   9  38
BRANCH   8  53
ATOM     53  O   UNL     1       4.533  -2.748   0.060  1.00  0.00    -0.507 OA
ATOM     54  H   UNL     1       4.530  -3.713   0.139  1.00  0.00     0.293 HD
ENDBRANCH   8  53
TORSDOF 17
