REMARK SMILES COc1cc(O)c2c(c1)C(=O)c1c(cc3c(c1O)-c1c(cc(C)c(C(=O)N[C@H](CO)C(=O)O)c1O)[C@H](O[C@H]1O[C@@H](C)[C@H](N)[C@@H](O[C@H]4OC[C@H](O)[C@@H](O)[C@@H]4O)[C@@H]1O)[C@H]3O)C2=O
REMARK SMILES IDX 3 1 4 2 5 3 7 4 59 5 60 6 13 7 12 8 10 9 11 10 8 11 9 12
REMARK SMILES IDX 17 13 16 14 15 15 14 16 57 17 36 18 20 19 19 20 34 21 24 22
REMARK SMILES IDX 22 23 23 24 21 25 2 26 1 27 6 28 18 30 58 32 35 34 37 36
REMARK SMILES IDX 38 37 39 38 55 39 40 40 44 41 42 42 41 43 56 44 45 46 46 47
REMARK SMILES IDX 47 48 53 49 48 50 51 51 49 52 54 53 52 55 50 57 43 59 25 62
REMARK SMILES IDX 26 63 27 64 28 66 29 67 30 68 31 70 32 71 33 72
REMARK H PARENT 6 29 18 31 58 33 35 35 56 45 54 54 52 56 50 58 43 60 43 61
REMARK H PARENT 27 65 30 69 33 73
ROOT
ATOM      1  C   UNL     1      -7.432  -5.776   1.472  1.00  0.00     0.123 A 
ATOM      2  C   UNL     1      -7.662  -5.856   0.090  1.00  0.00     0.093 A 
ATOM      3  C   UNL     1      -7.044  -4.955  -0.791  1.00  0.00     0.131 A 
ATOM      4  C   UNL     1      -6.178  -3.952  -0.290  1.00  0.00     0.076 A 
ATOM      5  C   UNL     1      -5.515  -2.967  -1.187  1.00  0.00     0.198 C 
ATOM      6  O   UNL     1      -5.711  -3.014  -2.393  1.00  0.00    -0.288 OA
ATOM      7  C   UNL     1      -4.610  -1.919  -0.633  1.00  0.00     0.038 A 
ATOM      8  C   UNL     1      -4.348  -1.843   0.753  1.00  0.00     0.076 A 
ATOM      9  C   UNL     1      -5.031  -2.841   1.650  1.00  0.00     0.198 C 
ATOM     10  O   UNL     1      -4.892  -2.799   2.860  1.00  0.00    -0.288 OA
ATOM     11  C   UNL     1      -5.941  -3.878   1.094  1.00  0.00     0.041 A 
ATOM     12  C   UNL     1      -6.573  -4.790   1.960  1.00  0.00     0.059 A 
ATOM     13  C   UNL     1      -3.444  -0.837   1.230  1.00  0.00     0.135 A 
ATOM     14  C   UNL     1      -2.889   0.125   0.335  1.00  0.00     0.034 A 
ATOM     15  C   UNL     1      -3.149  -0.006  -1.049  1.00  0.00    -0.004 A 
ATOM     16  C   UNL     1      -3.996  -1.019  -1.512  1.00  0.00     0.020 A 
ATOM     17  C   UNL     1      -2.448   0.940  -2.018  1.00  0.00     0.179 C 
ATOM     18  C   UNL     1      -0.975   1.044  -1.582  1.00  0.00     0.185 C 
ATOM     19  C   UNL     1      -0.969   1.654  -0.186  1.00  0.00    -0.004 A 
ATOM     20  C   UNL     1      -1.929   1.225   0.768  1.00  0.00     0.034 A 
ATOM     21  C   UNL     1      -1.939   1.865   2.049  1.00  0.00     0.136 A 
ATOM     22  C   UNL     1      -0.929   2.796   2.404  1.00  0.00     0.085 A 
ATOM     23  C   UNL     1       0.017   3.198   1.428  1.00  0.00    -0.034 A 
ATOM     24  C   UNL     1       1.062   4.270   1.643  1.00  0.00     0.045 C 
ATOM     25  C   UNL     1      -0.038   2.644   0.151  1.00  0.00     0.011 A 
ENDROOT
BRANCH   1  26
ATOM     26  O   UNL     1      -8.013  -6.619   2.365  1.00  0.00    -0.497 OA
ATOM     27  C   UNL     1      -8.888  -7.641   2.060  1.00  0.00     0.278 C 
ENDBRANCH   1  26
BRANCH   3  28
ATOM     28  O   UNL     1      -7.286  -5.056  -2.116  1.00  0.00    -0.507 OA
ATOM     29  H   UNL     1      -7.869  -5.734  -2.487  1.00  0.00     0.293 HD
ENDBRANCH   3  28
BRANCH  13  30
ATOM     30  O   UNL     1      -3.022  -0.810   2.515  1.00  0.00    -0.506 OA
ATOM     31  H   UNL     1      -3.206  -1.433   3.223  1.00  0.00     0.293 HD
ENDBRANCH  13  30
BRANCH  17  32
ATOM     32  O   UNL     1      -2.562   0.524  -3.358  1.00  0.00    -0.385 OA
ATOM     33  H   UNL     1      -2.042  -0.316  -3.457  1.00  0.00     0.211 HD
ENDBRANCH  17  32
BRANCH  21  34
ATOM     34  O   UNL     1      -2.919   1.645   2.953  1.00  0.00    -0.506 OA
ATOM     35  H   UNL     1      -3.794   1.309   2.722  1.00  0.00     0.293 HD
ENDBRANCH  21  34
BRANCH  18  36
ATOM     36  O   UNL     1      -0.258   1.863  -2.499  1.00  0.00    -0.339 OA
BRANCH  36  37
ATOM     37  C   UNL     1       0.803   1.187  -3.161  1.00  0.00     0.282 C 
ATOM     38  O   UNL     1       0.966   1.816  -4.423  1.00  0.00    -0.345 OA
ATOM     39  C   UNL     1       2.110   1.325  -2.334  1.00  0.00     0.201 C 
ATOM     40  C   UNL     1       1.992   1.199  -5.188  1.00  0.00     0.138 C 
ATOM     41  C   UNL     1       3.307   0.744  -3.103  1.00  0.00     0.174 C 
ATOM     42  C   UNL     1       3.363   1.401  -4.497  1.00  0.00     0.112 C 
ATOM     43  C   UNL     1       1.979   1.825  -6.584  1.00  0.00     0.040 C 
BRANCH  39  44
ATOM     44  O   UNL     1       1.992   0.712  -1.075  1.00  0.00    -0.385 OA
ATOM     45  H   UNL     1       1.835  -0.256  -1.227  1.00  0.00     0.211 HD
ENDBRANCH  39  44
BRANCH  41  46
ATOM     46  O   UNL     1       4.500   1.022  -2.379  1.00  0.00    -0.342 OA
BRANCH  46  47
ATOM     47  C   UNL     1       5.261  -0.136  -2.062  1.00  0.00     0.282 C 
ATOM     48  O   UNL     1       6.430  -0.187  -2.892  1.00  0.00    -0.347 OA
ATOM     49  C   UNL     1       5.540  -0.166  -0.520  1.00  0.00     0.202 C 
ATOM     50  C   UNL     1       7.604   0.176  -2.196  1.00  0.00     0.198 C 
ATOM     51  C   UNL     1       6.632  -1.222  -0.280  1.00  0.00     0.179 C 
ATOM     52  C   UNL     1       7.918  -0.827  -1.056  1.00  0.00     0.171 C 
BRANCH  49  53
ATOM     53  O   UNL     1       4.368  -0.441   0.206  1.00  0.00    -0.385 OA
ATOM     54  H   UNL     1       4.056  -1.347  -0.052  1.00  0.00     0.211 HD
ENDBRANCH  49  53
BRANCH  51  55
ATOM     55  O   UNL     1       6.901  -1.440   1.081  1.00  0.00    -0.387 OA
ATOM     56  H   UNL     1       7.142  -0.562   1.478  1.00  0.00     0.211 HD
ENDBRANCH  51  55
BRANCH  52  57
ATOM     57  O   UNL     1       8.567  -1.979  -1.530  1.00  0.00    -0.388 OA
ATOM     58  H   UNL     1       8.012  -2.352  -2.265  1.00  0.00     0.211 HD
ENDBRANCH  52  57
ENDBRANCH  46  47
ENDBRANCH  41  46
BRANCH  42  59
ATOM     59  N   UNL     1       4.442   0.829  -5.306  1.00  0.00    -0.323 NA
ATOM     60  H   UNL     1       4.349  -0.212  -5.355  1.00  0.00     0.119 HD
ATOM     61  H   UNL     1       5.367   1.073  -4.886  1.00  0.00     0.119 HD
ENDBRANCH  42  59
ENDBRANCH  36  37
ENDBRANCH  18  36
BRANCH  22  62
ATOM     62  C   UNL     1      -0.882   3.297   3.815  1.00  0.00     0.256 C 
ATOM     63  O   UNL     1      -1.923   3.525   4.417  1.00  0.00    -0.269 OA
ATOM     64  N   UNL     1       0.311   3.348   4.475  1.00  0.00    -0.337 N 
ATOM     65  H   UNL     1       1.167   3.044   3.985  1.00  0.00     0.164 HD
BRANCH  64  66
ATOM     66  C   UNL     1       0.448   3.699   5.880  1.00  0.00     0.218 C 
BRANCH  66  67
ATOM     67  C   UNL     1       1.475   4.839   6.004  1.00  0.00     0.193 C 
BRANCH  67  68
ATOM     68  O   UNL     1       1.640   5.239   7.339  1.00  0.00    -0.394 OA
ATOM     69  H   UNL     1       0.829   5.756   7.582  1.00  0.00     0.210 HD
ENDBRANCH  67  68
ENDBRANCH  66  67
BRANCH  66  70
ATOM     70  C   UNL     1       0.875   2.485   6.694  1.00  0.00     0.328 C 
ATOM     71  O   UNL     1       1.027   2.600   7.900  1.00  0.00    -0.250 OA
BRANCH  70  72
ATOM     72  O   UNL     1       1.060   1.264   6.137  1.00  0.00    -0.480 OA
ATOM     73  H   UNL     1       0.929   1.075   5.199  1.00  0.00     0.296 HD
ENDBRANCH  70  72
ENDBRANCH  66  70
ENDBRANCH  64  66
ENDBRANCH  22  62
TORSDOF 20
