REMARK SMILES C[C@H]1O[C@H](OC[C@@H]2O[C@@H](Oc3c(-c4ccc(O)c(O)c4)oc4cc(O)cc(O)c4c3=O)[C@@H](O)[C@H](O)[C@H]2O)[C@@H](O)[C@@H](O)[C@@H]1O
REMARK SMILES IDX 7 1 8 2 9 3 32 4 34 5 36 6 6 7 5 8 4 9 2 10 3 11 42 12 40 13
REMARK SMILES IDX 38 14 1 15 43 16 41 18 39 20 37 22 10 24 11 25 12 26 30 27
REMARK SMILES IDX 21 28 29 29 31 30 22 31 27 32 23 33 26 34 24 35 13 36 14 37
REMARK SMILES IDX 20 38 15 39 18 40 16 41 19 42 17 44 28 46 25 48 35 50 33 52
REMARK H PARENT 43 17 41 19 39 21 37 23 19 43 17 45 28 47 25 49 35 51 33 53
ROOT
ATOM      1  C   UNL     1       1.378   1.060   0.643  1.00  0.00     0.180 C 
ATOM      2  O   UNL     1       0.167   0.766  -0.052  1.00  0.00    -0.332 OA
ATOM      3  C   UNL     1      -0.843   0.100   0.717  1.00  0.00     0.339 C 
ATOM      4  C   UNL     1      -0.317  -0.514   2.048  1.00  0.00     0.214 C 
ATOM      5  C   UNL     1       0.337   0.601   2.909  1.00  0.00     0.180 C 
ATOM      6  C   UNL     1       1.046   1.667   2.026  1.00  0.00     0.177 C 
ENDROOT
BRANCH   1   7
ATOM      7  C   UNL     1       2.236   1.978  -0.246  1.00  0.00     0.198 C 
BRANCH   7   8
ATOM      8  O   UNL     1       3.562   2.086   0.253  1.00  0.00    -0.347 OA
BRANCH   8   9
ATOM      9  C   UNL     1       4.370   1.006  -0.209  1.00  0.00     0.281 C 
ATOM     10  C   UNL     1       5.809   0.344  -1.980  1.00  0.00     0.150 C 
ATOM     11  O   UNL     1       4.976   1.374  -1.446  1.00  0.00    -0.344 OA
ATOM     12  C   UNL     1       6.931  -0.066  -0.977  1.00  0.00     0.174 C 
ATOM     13  C   UNL     1       6.338  -0.472   0.382  1.00  0.00     0.179 C 
ATOM     14  C   UNL     1       5.436   0.686   0.868  1.00  0.00     0.202 C 
ATOM     15  C   UNL     1       4.992  -0.835  -2.554  1.00  0.00     0.041 C 
BRANCH  12  16
ATOM     16  O   UNL     1       7.862   0.981  -0.799  1.00  0.00    -0.388 OA
ATOM     17  H   UNL     1       7.387   1.851  -0.811  1.00  0.00     0.211 HD
ENDBRANCH  12  16
BRANCH  13  18
ATOM     18  O   UNL     1       5.616  -1.671   0.222  1.00  0.00    -0.387 OA
ATOM     19  H   UNL     1       5.151  -1.876   1.071  1.00  0.00     0.211 HD
ENDBRANCH  13  18
BRANCH  14  20
ATOM     20  O   UNL     1       4.869   0.388   2.121  1.00  0.00    -0.385 OA
ATOM     21  H   UNL     1       4.059  -0.166   1.980  1.00  0.00     0.211 HD
ENDBRANCH  14  20
ENDBRANCH   8   9
ENDBRANCH   7   8
ENDBRANCH   1   7
BRANCH   6  22
ATOM     22  O   UNL     1       2.144   2.240   2.688  1.00  0.00    -0.387 OA
ATOM     23  H   UNL     1       2.753   1.504   2.947  1.00  0.00     0.211 HD
ENDBRANCH   6  22
BRANCH   3  24
ATOM     24  O   UNL     1      -1.389  -0.910  -0.063  1.00  0.00    -0.454 OA
BRANCH  24  25
ATOM     25  C   UNL     1      -2.711  -1.198  -0.121  1.00  0.00     0.214 A 
ATOM     26  C   UNL     1      -3.648  -0.467  -0.904  1.00  0.00     0.180 A 
ATOM     27  C   UNL     1      -3.175  -2.274   0.653  1.00  0.00     0.239 A 
ATOM     28  O   UNL     1      -4.930  -0.815  -0.857  1.00  0.00    -0.452 OA
ATOM     29  C   UNL     1      -4.540  -2.604   0.658  1.00  0.00     0.111 A 
ATOM     30  O   UNL     1      -2.379  -2.912   1.321  1.00  0.00    -0.285 OA
ATOM     31  C   UNL     1      -5.405  -1.824  -0.133  1.00  0.00     0.146 A 
ATOM     32  C   UNL     1      -5.077  -3.677   1.414  1.00  0.00     0.134 A 
ATOM     33  C   UNL     1      -6.773  -2.103  -0.175  1.00  0.00     0.094 A 
ATOM     34  C   UNL     1      -6.453  -3.945   1.360  1.00  0.00     0.093 A 
ATOM     35  C   UNL     1      -7.301  -3.168   0.568  1.00  0.00     0.123 A 
BRANCH  26  36
ATOM     36  C   UNL     1      -3.308   0.667  -1.832  1.00  0.00     0.025 A 
ATOM     37  C   UNL     1      -2.004   0.933  -2.297  1.00  0.00     0.016 A 
ATOM     38  C   UNL     1      -4.354   1.494  -2.294  1.00  0.00     0.062 A 
ATOM     39  C   UNL     1      -1.756   1.998  -3.167  1.00  0.00     0.051 A 
ATOM     40  C   UNL     1      -4.110   2.561  -3.166  1.00  0.00     0.158 A 
ATOM     41  C   UNL     1      -2.802   2.819  -3.603  1.00  0.00     0.157 A 
BRANCH  40  42
ATOM     42  O   UNL     1      -5.147   3.324  -3.572  1.00  0.00    -0.504 OA
ATOM     43  H   UNL     1      -5.043   4.072  -4.177  1.00  0.00     0.293 HD
ENDBRANCH  40  42
BRANCH  41  44
ATOM     44  O   UNL     1      -2.558   3.846  -4.445  1.00  0.00    -0.504 OA
ATOM     45  H   UNL     1      -1.669   4.048  -4.768  1.00  0.00     0.293 HD
ENDBRANCH  41  44
ENDBRANCH  26  36
BRANCH  32  46
ATOM     46  O   UNL     1      -4.281  -4.444   2.189  1.00  0.00    -0.507 OA
ATOM     47  H   UNL     1      -4.623  -5.180   2.718  1.00  0.00     0.293 HD
ENDBRANCH  32  46
BRANCH  35  48
ATOM     48  O   UNL     1      -8.618  -3.450   0.529  1.00  0.00    -0.508 OA
ATOM     49  H   UNL     1      -9.237  -2.938  -0.011  1.00  0.00     0.293 HD
ENDBRANCH  35  48
ENDBRANCH  24  25
ENDBRANCH   3  24
BRANCH   5  50
ATOM     50  O   UNL     1      -0.578   1.223   3.775  1.00  0.00    -0.387 OA
ATOM     51  H   UNL     1      -1.343   1.543   3.227  1.00  0.00     0.211 HD
ENDBRANCH   5  50
BRANCH   4  52
ATOM     52  O   UNL     1       0.658  -1.499   1.777  1.00  0.00    -0.384 OA
ATOM     53  H   UNL     1       0.267  -2.171   1.163  1.00  0.00     0.211 HD
ENDBRANCH   4  52
TORSDOF 16
