REMARK SMILES CCCCCCC(=O)O[C@@H]1[C@@H](O)[C@H](C)O[C@@H](O)[C@@H]1OC(=O)/C(=C/c1ccc(O)c(OC)c1)C[C@H](CCO)c1cccc(CCO)c1
REMARK SMILES IDX 19 1 18 2 10 3 11 4 13 5 16 6 15 7 14 8 9 9 7 10 8 11 6 12
REMARK SMILES IDX 5 13 4 14 3 15 2 16 1 17 12 18 17 20 20 22 21 23 22 24 23 25
REMARK SMILES IDX 33 26 34 27 35 28 36 29 37 30 38 32 39 33 46 34 40 35 42 36
REMARK SMILES IDX 41 37 43 38 44 39 45 40 24 42 25 43 32 44 26 45 29 46 27 47
REMARK SMILES IDX 30 48 31 49 28 50
REMARK H PARENT 12 19 17 21 37 31 45 41 28 51
ROOT
ATOM      1  O   UNL     1       1.539  -1.306   0.409  1.00  0.00    -0.449 OA
ENDROOT
BRANCH   1   2
ATOM      2  C   UNL     1       2.918  -1.231   0.428  1.00  0.00     0.276 C 
ATOM      3  C   UNL     1       3.493  -1.716  -0.909  1.00  0.00     0.253 C 
ATOM      4  C   UNL     1       2.792  -3.040  -1.245  1.00  0.00     0.188 C 
ATOM      5  C   UNL     1       3.029  -4.059  -0.080  1.00  0.00     0.151 C 
ATOM      6  C   UNL     1       3.351  -2.249   1.488  1.00  0.00     0.292 C 
ATOM      7  O   UNL     1       2.787  -3.538   1.232  1.00  0.00    -0.343 OA
ATOM      8  C   UNL     1       2.088  -5.252  -0.258  1.00  0.00     0.042 C 
BRANCH   3   9
ATOM      9  O   UNL     1       3.338  -0.737  -1.886  1.00  0.00    -0.455 OA
BRANCH   9  10
ATOM     10  C   UNL     1       4.410  -0.115  -2.472  1.00  0.00     0.306 C 
ATOM     11  O   UNL     1       5.536  -0.575  -2.340  1.00  0.00    -0.252 OA
BRANCH  10  12
ATOM     12  C   UNL     1       4.218   1.171  -3.236  1.00  0.00     0.123 C 
BRANCH  12  13
ATOM     13  C   UNL     1       5.556   1.873  -3.598  1.00  0.00     0.012 C 
BRANCH  13  14
ATOM     14  C   UNL     1       6.378   2.349  -2.371  1.00  0.00     0.001 C 
BRANCH  14  15
ATOM     15  C   UNL     1       5.699   3.424  -1.499  1.00  0.00    -0.000 C 
BRANCH  15  16
ATOM     16  C   UNL     1       5.504   4.752  -2.245  1.00  0.00    -0.003 C 
ATOM     17  C   UNL     1       4.865   5.803  -1.342  1.00  0.00     0.004 C 
ENDBRANCH  15  16
ENDBRANCH  14  15
ENDBRANCH  13  14
ENDBRANCH  12  13
ENDBRANCH  10  12
ENDBRANCH   9  10
ENDBRANCH   3   9
BRANCH   4  18
ATOM     18  O   UNL     1       3.230  -3.561  -2.477  1.00  0.00    -0.386 OA
ATOM     19  H   UNL     1       4.207  -3.707  -2.409  1.00  0.00     0.211 HD
ENDBRANCH   4  18
BRANCH   6  20
ATOM     20  O   UNL     1       4.748  -2.280   1.681  1.00  0.00    -0.365 OA
ATOM     21  H   UNL     1       5.134  -3.043   1.185  1.00  0.00     0.214 HD
ENDBRANCH   6  20
ENDBRANCH   1   2
BRANCH   1  22
ATOM     22  C   UNL     1       0.580  -0.380   0.584  1.00  0.00     0.334 C 
ATOM     23  O   UNL     1       0.810   0.802   0.375  1.00  0.00    -0.247 OA
BRANCH  22  24
ATOM     24  C   UNL     1      -0.749  -0.848   1.102  1.00  0.00     0.038 C 
ATOM     25  C   UNL     1      -0.853  -2.152   1.487  1.00  0.00     0.019 C 
BRANCH  24  26
ATOM     26  C   UNL     1      -1.927   0.127   1.136  1.00  0.00     0.051 C 
BRANCH  26  27
ATOM     27  C   UNL     1      -3.211  -0.385   0.392  1.00  0.00     0.026 C 
BRANCH  27  28
ATOM     28  C   UNL     1      -3.001  -1.159  -0.947  1.00  0.00     0.037 C 
BRANCH  28  29
ATOM     29  C   UNL     1      -2.407  -0.424  -2.153  1.00  0.00     0.156 C 
BRANCH  29  30
ATOM     30  O   UNL     1      -1.092  -0.020  -1.907  1.00  0.00    -0.396 OA
ATOM     31  H   UNL     1      -1.101   0.964  -1.781  1.00  0.00     0.210 HD
ENDBRANCH  29  30
ENDBRANCH  28  29
ENDBRANCH  27  28
BRANCH  27  32
ATOM     32  C   UNL     1      -4.231   0.731   0.239  1.00  0.00    -0.044 A 
ATOM     33  C   UNL     1      -5.509   0.617   0.817  1.00  0.00     0.004 A 
ATOM     34  C   UNL     1      -3.919   1.897  -0.481  1.00  0.00     0.007 A 
ATOM     35  C   UNL     1      -6.445   1.646   0.675  1.00  0.00     0.001 A 
ATOM     36  C   UNL     1      -4.848   2.933  -0.622  1.00  0.00    -0.045 A 
ATOM     37  C   UNL     1      -6.116   2.803  -0.036  1.00  0.00     0.004 A 
BRANCH  36  38
ATOM     38  C   UNL     1      -4.471   4.172  -1.391  1.00  0.00     0.063 C 
BRANCH  38  39
ATOM     39  C   UNL     1      -4.294   5.372  -0.458  1.00  0.00     0.161 C 
BRANCH  39  40
ATOM     40  O   UNL     1      -3.214   5.163   0.415  1.00  0.00    -0.396 OA
ATOM     41  H   UNL     1      -3.529   4.545   1.125  1.00  0.00     0.210 HD
ENDBRANCH  39  40
ENDBRANCH  38  39
ENDBRANCH  36  38
ENDBRANCH  27  32
ENDBRANCH  26  27
ENDBRANCH  24  26
BRANCH  25  42
ATOM     42  C   UNL     1      -2.025  -2.790   2.117  1.00  0.00    -0.021 A 
ATOM     43  C   UNL     1      -2.532  -3.987   1.599  1.00  0.00     0.012 A 
ATOM     44  C   UNL     1      -2.598  -2.237   3.271  1.00  0.00     0.058 A 
ATOM     45  C   UNL     1      -3.636  -4.598   2.195  1.00  0.00     0.051 A 
ATOM     46  C   UNL     1      -3.686  -2.869   3.905  1.00  0.00     0.161 A 
ATOM     47  C   UNL     1      -4.215  -4.043   3.347  1.00  0.00     0.157 A 
BRANCH  46  48
ATOM     48  O   UNL     1      -4.226  -2.393   5.058  1.00  0.00    -0.493 OA
ATOM     49  C   UNL     1      -3.713  -1.359   5.815  1.00  0.00     0.278 C 
ENDBRANCH  46  48
BRANCH  47  50
ATOM     50  O   UNL     1      -5.272  -4.642   3.935  1.00  0.00    -0.504 OA
ATOM     51  H   UNL     1      -5.670  -5.449   3.579  1.00  0.00     0.293 HD
ENDBRANCH  47  50
ENDBRANCH  25  42
ENDBRANCH  22  24
ENDBRANCH   1  22
TORSDOF 24
