REMARK SMILES CCC[C]CC[C]CCCCCCCCCCCCC(=O)O[C@H](COC(=O)CCCCCCC)COC(=O)CCCCCCCCCC[C]CC[C]CCCC(C)C
REMARK SMILES IDX 23 1 22 2 20 3 21 4 19 5 18 6 17 7 16 8 15 9 14 10 13 11
REMARK SMILES IDX 12 12 11 13 10 14 9 15 8 16 7 17 6 18 5 19 4 20 3 21 2 22
REMARK SMILES IDX 1 23 24 24 25 25 26 26 27 27 28 28 29 29 30 30 31 31 32 32
REMARK SMILES IDX 33 33 34 34 35 35 36 36 37 37 38 38 39 39 40 40 41 41 42 42
REMARK SMILES IDX 43 43 44 44 45 45 46 46 47 47 48 48 49 49 50 50 51 51 52 52
REMARK SMILES IDX 53 53 54 54 55 55 56 56 57 57 58 58
REMARK H PARENT
ROOT
ATOM      1  C   UNL     1      -1.299  -2.250   0.000  1.00  0.00     0.251 C 
ENDROOT
BRANCH   1   2
ATOM      2  O   UNL     1      -0.089  -1.524  -0.495  1.00  0.00    -0.455 OA
BRANCH   2   3
ATOM      3  C   UNL     1       0.855  -0.689   0.206  1.00  0.00     0.306 C 
ATOM      4  O   UNL     1       0.989  -0.883   1.405  1.00  0.00    -0.252 OA
BRANCH   3   5
ATOM      5  C   UNL     1       1.507   0.694  -0.360  1.00  0.00     0.123 C 
BRANCH   5   6
ATOM      6  C   UNL     1       3.036   1.192   0.010  1.00  0.00     0.012 C 
BRANCH   6   7
ATOM      7  C   UNL     1       3.618   2.712  -0.364  1.00  0.00     0.001 C 
BRANCH   7   8
ATOM      8  C   UNL     1       5.196   3.000   0.000  1.00  0.00     0.000 C 
BRANCH   8   9
ATOM      9  C   UNL     1       6.495   3.750   0.000  1.00  0.00     0.000 C 
BRANCH   9  10
ATOM     10  C   UNL     1       7.794   4.500   0.000  1.00  0.00     0.000 C 
BRANCH  10  11
ATOM     11  C   UNL     1       9.093   5.250   0.000  1.00  0.00     0.000 C 
BRANCH  11  12
ATOM     12  C   UNL     1      10.392   6.000   0.000  1.00  0.00     0.000 C 
BRANCH  12  13
ATOM     13  C   UNL     1      11.691   6.750   0.000  1.00  0.00     0.000 C 
BRANCH  13  14
ATOM     14  C   UNL     1      13.335   7.073   0.120  1.00  0.00     0.000 C 
BRANCH  14  15
ATOM     15  C   UNL     1      13.949   8.644  -0.107  1.00  0.00     0.001 C 
BRANCH  15  16
ATOM     16  C   UNL     1      15.588   9.000   0.000  1.00  0.00     0.008 C 
BRANCH  16  17
ATOM     17  C   UNL     1      16.887   9.750   0.000  1.00  0.00    -0.017 C 
BRANCH  17  18
ATOM     18  C   UNL     1      18.186  10.500   0.000  1.00  0.00     0.009 C 
BRANCH  18  19
ATOM     19  C   UNL     1      19.486  11.250   0.000  1.00  0.00     0.009 C 
BRANCH  19  20
ATOM     20  C   UNL     1      20.785  12.000   0.000  1.00  0.00    -0.017 C 
BRANCH  20  21
ATOM     21  C   UNL     1      22.084  12.750   0.000  1.00  0.00     0.008 C 
BRANCH  21  22
ATOM     22  C   UNL     1      23.383  13.500   0.000  1.00  0.00    -0.003 C 
ATOM     23  C   UNL     1      24.682  14.250   0.000  1.00  0.00     0.004 C 
ENDBRANCH  21  22
ENDBRANCH  20  21
ENDBRANCH  19  20
ENDBRANCH  18  19
ENDBRANCH  17  18
ENDBRANCH  16  17
ENDBRANCH  15  16
ENDBRANCH  14  15
ENDBRANCH  13  14
ENDBRANCH  12  13
ENDBRANCH  11  12
ENDBRANCH  10  11
ENDBRANCH   9  10
ENDBRANCH   8   9
ENDBRANCH   7   8
ENDBRANCH   6   7
ENDBRANCH   5   6
ENDBRANCH   3   5
ENDBRANCH   2   3
ENDBRANCH   1   2
BRANCH   1  24
ATOM     24  C   UNL     1      -2.049  -0.951  -0.000  1.00  0.00     0.281 C 
BRANCH  24  25
ATOM     25  O   UNL     1      -3.396  -0.553   0.443  1.00  0.00    -0.462 OA
BRANCH  25  26
ATOM     26  C   UNL     1      -4.045   0.687   0.028  1.00  0.00     0.305 C 
ATOM     27  O   UNL     1      -3.679   1.160  -1.038  1.00  0.00    -0.252 OA
BRANCH  26  28
ATOM     28  C   UNL     1      -5.195   1.596   0.796  1.00  0.00     0.123 C 
BRANCH  28  29
ATOM     29  C   UNL     1      -5.799   2.946   0.000  1.00  0.00     0.012 C 
BRANCH  29  30
ATOM     30  C   UNL     1      -6.549   4.245   0.000  1.00  0.00     0.001 C 
BRANCH  30  31
ATOM     31  C   UNL     1      -7.299   5.544   0.000  1.00  0.00     0.000 C 
BRANCH  31  32
ATOM     32  C   UNL     1      -8.049   6.843   0.000  1.00  0.00    -0.000 C 
BRANCH  32  33
ATOM     33  C   UNL     1      -8.799   8.142   0.000  1.00  0.00    -0.003 C 
ATOM     34  C   UNL     1      -9.549   9.441   0.000  1.00  0.00     0.004 C 
ENDBRANCH  32  33
ENDBRANCH  31  32
ENDBRANCH  30  31
ENDBRANCH  29  30
ENDBRANCH  28  29
ENDBRANCH  26  28
ENDBRANCH  25  26
ENDBRANCH  24  25
ENDBRANCH   1  24
BRANCH   1  35
ATOM     35  C   UNL     1      -0.549  -3.549   0.000  1.00  0.00     0.281 C 
BRANCH  35  36
ATOM     36  O   UNL     1       0.756  -3.997   0.528  1.00  0.00    -0.462 OA
BRANCH  36  37
ATOM     37  C   UNL     1       1.425  -5.218   0.095  1.00  0.00     0.305 C 
ATOM     38  O   UNL     1       1.001  -5.730  -0.930  1.00  0.00    -0.252 OA
BRANCH  37  39
ATOM     39  C   UNL     1       2.675  -6.060   0.788  1.00  0.00     0.123 C 
BRANCH  39  40
ATOM     40  C   UNL     1       3.201  -7.446   0.000  1.00  0.00     0.012 C 
BRANCH  40  41
ATOM     41  C   UNL     1       3.951  -8.745   0.000  1.00  0.00     0.001 C 
BRANCH  41  42
ATOM     42  C   UNL     1       4.701 -10.044   0.000  1.00  0.00     0.000 C 
BRANCH  42  43
ATOM     43  C   UNL     1       5.451 -11.343   0.000  1.00  0.00     0.000 C 
BRANCH  43  44
ATOM     44  C   UNL     1       6.201 -12.642   0.000  1.00  0.00     0.000 C 
BRANCH  44  45
ATOM     45  C   UNL     1       6.951 -13.941   0.000  1.00  0.00     0.000 C 
BRANCH  45  46
ATOM     46  C   UNL     1       7.403 -15.512  -0.389  1.00  0.00     0.000 C 
BRANCH  46  47
ATOM     47  C   UNL     1       8.733 -16.264   0.359  1.00  0.00     0.001 C 
BRANCH  47  48
ATOM     48  C   UNL     1       9.201 -17.838   0.000  1.00  0.00     0.008 C 
BRANCH  48  49
ATOM     49  C   UNL     1       9.951 -19.137   0.000  1.00  0.00    -0.017 C 
BRANCH  49  50
ATOM     50  C   UNL     1      10.701 -20.436   0.000  1.00  0.00     0.009 C 
BRANCH  50  51
ATOM     51  C   UNL     1      11.451 -21.736   0.000  1.00  0.00     0.009 C 
BRANCH  51  52
ATOM     52  C   UNL     1      12.201 -23.035   0.000  1.00  0.00    -0.017 C 
BRANCH  52  53
ATOM     53  C   UNL     1      12.951 -24.334   0.000  1.00  0.00     0.008 C 
BRANCH  53  54
ATOM     54  C   UNL     1      13.441 -25.873   0.383  1.00  0.00     0.001 C 
BRANCH  54  55
ATOM     55  C   UNL     1      14.747 -26.646  -0.397  1.00  0.00     0.003 C 
BRANCH  55  56
ATOM     56  C   UNL     1      15.201 -28.231   0.000  1.00  0.00    -0.017 C 
ATOM     57  C   UNL     1      15.951 -29.530   0.000  1.00  0.00     0.007 C 
ATOM     58  C   UNL     1      13.902 -28.981   0.000  1.00  0.00     0.007 C 
ENDBRANCH  55  56
ENDBRANCH  54  55
ENDBRANCH  53  54
ENDBRANCH  52  53
ENDBRANCH  51  52
ENDBRANCH  50  51
ENDBRANCH  49  50
ENDBRANCH  48  49
ENDBRANCH  47  48
ENDBRANCH  46  47
ENDBRANCH  45  46
ENDBRANCH  44  45
ENDBRANCH  43  44
ENDBRANCH  42  43
ENDBRANCH  41  42
ENDBRANCH  40  41
ENDBRANCH  39  40
ENDBRANCH  37  39
ENDBRANCH  36  37
ENDBRANCH  35  36
ENDBRANCH   1  35
TORSDOF 50
