REMARK SMILES O=Cc1ccc(O[C@H]2O[C@@H](CO)[C@@H](O)[C@@H](O)[C@@H]2O)cc1
REMARK SMILES IDX 8 1 9 2 10 3 13 4 15 5 17 6 7 7 6 8 3 9 4 10 20 11 5 12
REMARK SMILES IDX 19 13 2 14 1 15 18 16 11 18 12 19 16 21 14 23
REMARK H PARENT 18 17 12 20 16 22 14 24
ROOT
ATOM      1  C   UNL     1      -0.499   0.077  -0.142  1.00  0.00     0.339 C 
ATOM      2  O   UNL     1      -1.241   1.163   0.398  1.00  0.00    -0.332 OA
ATOM      3  C   UNL     1      -2.474   0.709   0.944  1.00  0.00     0.179 C 
ATOM      4  C   UNL     1      -3.388   0.142  -0.176  1.00  0.00     0.177 C 
ATOM      5  C   UNL     1      -2.646  -1.020  -0.867  1.00  0.00     0.180 C 
ATOM      6  C   UNL     1      -1.254  -0.552  -1.337  1.00  0.00     0.214 C 
ENDROOT
BRANCH   1   7
ATOM      7  O   UNL     1       0.715   0.563  -0.599  1.00  0.00    -0.462 OA
BRANCH   7   8
ATOM      8  C   UNL     1       1.980   0.191  -0.258  1.00  0.00     0.123 A 
ATOM      9  C   UNL     1       4.662  -0.477   0.327  1.00  0.00     0.015 A 
ATOM     10  C   UNL     1       4.366   0.548  -0.585  1.00  0.00     0.015 A 
ATOM     11  C   UNL     1       3.611  -1.165   0.946  1.00  0.00     0.015 A 
ATOM     12  C   UNL     1       3.038   0.875  -0.871  1.00  0.00     0.047 A 
ATOM     13  C   UNL     1       2.281  -0.840   0.660  1.00  0.00     0.047 A 
BRANCH   9  14
ATOM     14  C   UNL     1       6.058  -0.844   0.643  1.00  0.00     0.260 C 
ATOM     15  O   UNL     1       6.997  -0.265   0.120  1.00  0.00    -0.298 OA
ENDBRANCH   9  14
ENDBRANCH   7   8
ENDBRANCH   1   7
BRANCH   6  16
ATOM     16  O   UNL     1      -0.526  -1.617  -1.897  1.00  0.00    -0.384 OA
ATOM     17  H   UNL     1      -0.352  -2.276  -1.176  1.00  0.00     0.211 HD
ENDBRANCH   6  16
BRANCH   3  18
ATOM     18  C   UNL     1      -3.159   1.868   1.680  1.00  0.00     0.191 C 
BRANCH  18  19
ATOM     19  O   UNL     1      -2.327   2.366   2.693  1.00  0.00    -0.394 OA
ATOM     20  H   UNL     1      -2.344   1.699   3.428  1.00  0.00     0.210 HD
ENDBRANCH  18  19
ENDBRANCH   3  18
BRANCH   5  21
ATOM     21  O   UNL     1      -3.402  -1.568  -1.917  1.00  0.00    -0.387 OA
ATOM     22  H   UNL     1      -3.465  -0.885  -2.634  1.00  0.00     0.211 HD
ENDBRANCH   5  21
BRANCH   4  23
ATOM     23  O   UNL     1      -3.766   1.134  -1.105  1.00  0.00    -0.387 OA
ATOM     24  H   UNL     1      -2.969   1.673  -1.345  1.00  0.00     0.211 HD
ENDBRANCH   4  23
TORSDOF 8
