REMARK SMILES CCCCCCCCCCCCCCCCCCCCC(=O)OC[C@@H](O)COC(=O)CCCCCCCCCCCCC
REMARK SMILES IDX 21 1 22 2 20 3 19 4 18 5 17 6 16 7 15 8 14 9 13 10 12 11
REMARK SMILES IDX 11 12 10 13 9 14 8 15 7 16 6 17 5 18 4 19 3 20 2 21 1 22
REMARK SMILES IDX 23 23 24 24 25 25 26 26 27 28 28 29 29 30 30 31 31 32 32 33
REMARK SMILES IDX 33 34 34 35 35 36 36 37 37 38 38 39 39 40 40 41 41 42 42 43
REMARK SMILES IDX 43 44
REMARK H PARENT 26 27
ROOT
ATOM      1  C   UNL     1       0.592   0.750   0.561  1.00  0.00     0.305 C 
ATOM      2  O   UNL     1       0.461   0.121  -0.481  1.00  0.00    -0.252 OA
ENDROOT
BRANCH   1   3
ATOM      3  C   UNL     1      -0.369   0.546   1.700  1.00  0.00     0.123 C 
BRANCH   3   4
ATOM      4  C   UNL     1      -1.055   1.874   2.072  1.00  0.00     0.012 C 
BRANCH   4   5
ATOM      5  C   UNL     1      -1.909   2.441   0.923  1.00  0.00     0.001 C 
BRANCH   5   6
ATOM      6  C   UNL     1      -2.428   3.862   1.206  1.00  0.00     0.000 C 
BRANCH   6   7
ATOM      7  C   UNL     1      -3.323   4.007   2.450  1.00  0.00     0.000 C 
BRANCH   7   8
ATOM      8  C   UNL     1      -4.602   3.155   2.434  1.00  0.00     0.000 C 
BRANCH   8   9
ATOM      9  C   UNL     1      -5.527   3.496   1.253  1.00  0.00     0.000 C 
BRANCH   9  10
ATOM     10  C   UNL     1      -6.883   2.780   1.323  1.00  0.00     0.000 C 
BRANCH  10  11
ATOM     11  C   UNL     1      -6.768   1.249   1.216  1.00  0.00     0.000 C 
BRANCH  11  12
ATOM     12  C   UNL     1      -8.126   0.538   1.312  1.00  0.00     0.000 C 
BRANCH  12  13
ATOM     13  C   UNL     1      -9.074   0.867   0.144  1.00  0.00     0.000 C 
BRANCH  13  14
ATOM     14  C   UNL     1     -10.435   0.160   0.265  1.00  0.00    -0.000 C 
BRANCH  14  15
ATOM     15  C   UNL     1     -10.377  -1.376   0.305  1.00  0.00    -0.000 C 
BRANCH  15  16
ATOM     16  C   UNL     1      -9.771  -1.995  -0.970  1.00  0.00    -0.000 C 
BRANCH  16  17
ATOM     17  C   UNL     1      -9.715  -3.521  -0.894  1.00  0.00    -0.000 C 
BRANCH  17  18
ATOM     18  C   UNL     1     -11.022  -4.301  -0.617  1.00  0.00    -0.000 C 
BRANCH  18  19
ATOM     19  C   UNL     1     -12.088  -4.413  -1.734  1.00  0.00    -0.000 C 
BRANCH  19  20
ATOM     20  C   UNL     1     -13.256  -3.398  -1.790  1.00  0.00    -0.000 C 
BRANCH  20  21
ATOM     21  C   UNL     1     -12.948  -1.999  -2.328  1.00  0.00    -0.003 C 
ATOM     22  C   UNL     1     -14.231  -1.197  -2.538  1.00  0.00     0.004 C 
ENDBRANCH  20  21
ENDBRANCH  19  20
ENDBRANCH  18  19
ENDBRANCH  17  18
ENDBRANCH  16  17
ENDBRANCH  15  16
ENDBRANCH  14  15
ENDBRANCH  13  14
ENDBRANCH  12  13
ENDBRANCH  11  12
ENDBRANCH  10  11
ENDBRANCH   9  10
ENDBRANCH   8   9
ENDBRANCH   7   8
ENDBRANCH   6   7
ENDBRANCH   5   6
ENDBRANCH   4   5
ENDBRANCH   3   4
ENDBRANCH   1   3
BRANCH   1  23
ATOM     23  O   UNL     1       1.546   1.703   0.688  1.00  0.00    -0.463 OA
BRANCH  23  24
ATOM     24  C   UNL     1       2.349   2.180  -0.326  1.00  0.00     0.268 C 
BRANCH  24  25
ATOM     25  C   UNL     1       3.127   3.389   0.224  1.00  0.00     0.189 C 
BRANCH  25  26
ATOM     26  O   UNL     1       3.949   3.026   1.306  1.00  0.00    -0.386 OA
ATOM     27  H   UNL     1       4.414   2.180   1.069  1.00  0.00     0.211 HD
ENDBRANCH  25  26
BRANCH  25  28
ATOM     28  C   UNL     1       3.895   4.188  -0.852  1.00  0.00     0.268 C 
BRANCH  28  29
ATOM     29  O   UNL     1       4.950   3.509  -1.436  1.00  0.00    -0.463 OA
BRANCH  29  30
ATOM     30  C   UNL     1       6.153   3.278  -0.848  1.00  0.00     0.305 C 
ATOM     31  O   UNL     1       6.364   3.634   0.304  1.00  0.00    -0.252 OA
BRANCH  30  32
ATOM     32  C   UNL     1       7.251   2.652  -1.669  1.00  0.00     0.123 C 
BRANCH  32  33
ATOM     33  C   UNL     1       8.534   2.339  -0.871  1.00  0.00     0.012 C 
BRANCH  33  34
ATOM     34  C   UNL     1       8.352   1.268   0.227  1.00  0.00     0.001 C 
BRANCH  34  35
ATOM     35  C   UNL     1       7.942  -0.101  -0.348  1.00  0.00     0.000 C 
BRANCH  35  36
ATOM     36  C   UNL     1       7.770  -1.195   0.720  1.00  0.00     0.000 C 
BRANCH  36  37
ATOM     37  C   UNL     1       9.026  -1.492   1.563  1.00  0.00     0.000 C 
BRANCH  37  38
ATOM     38  C   UNL     1      10.290  -1.828   0.752  1.00  0.00     0.000 C 
BRANCH  38  39
ATOM     39  C   UNL     1      10.142  -3.079  -0.133  1.00  0.00    -0.000 C 
BRANCH  39  40
ATOM     40  C   UNL     1      11.388  -3.340  -0.997  1.00  0.00    -0.000 C 
BRANCH  40  41
ATOM     41  C   UNL     1      12.649  -3.645  -0.171  1.00  0.00    -0.000 C 
BRANCH  41  42
ATOM     42  C   UNL     1      13.878  -3.955  -1.045  1.00  0.00    -0.000 C 
BRANCH  42  43
ATOM     43  C   UNL     1      14.314  -2.817  -1.989  1.00  0.00    -0.003 C 
ATOM     44  C   UNL     1      14.668  -1.523  -1.256  1.00  0.00     0.004 C 
ENDBRANCH  42  43
ENDBRANCH  41  42
ENDBRANCH  40  41
ENDBRANCH  39  40
ENDBRANCH  38  39
ENDBRANCH  37  38
ENDBRANCH  36  37
ENDBRANCH  35  36
ENDBRANCH  34  35
ENDBRANCH  33  34
ENDBRANCH  32  33
ENDBRANCH  30  32
ENDBRANCH  29  30
ENDBRANCH  28  29
ENDBRANCH  25  28
ENDBRANCH  24  25
ENDBRANCH  23  24
ENDBRANCH   1  23
TORSDOF 38
