REMARK SMILES CCCCC(C)(C)C
REMARK SMILES IDX 3 1 2 2 1 3 4 4 5 5 6 6 7 7 8 8
REMARK H PARENT
ROOT
ATOM      1  C   UNL     1       1.112  -0.763  -0.234  1.00  0.00     0.000 C 
ENDROOT
BRANCH   1   2
ATOM      2  C   UNL     1       2.561  -0.520   0.226  1.00  0.00    -0.003 C 
ATOM      3  C   UNL     1       3.130   0.820  -0.243  1.00  0.00     0.004 C 
ENDBRANCH   1   2
BRANCH   1   4
ATOM      4  C   UNL     1       0.106   0.240   0.372  1.00  0.00     0.006 C 
BRANCH   4   5
ATOM      5  C   UNL     1      -1.382   0.037  -0.051  1.00  0.00    -0.038 C 
ATOM      6  C   UNL     1      -2.232   1.123   0.644  1.00  0.00     0.011 C 
ATOM      7  C   UNL     1      -1.549   0.190  -1.578  1.00  0.00     0.011 C 
ATOM      8  C   UNL     1      -1.908  -1.347   0.385  1.00  0.00     0.011 C 
ENDBRANCH   4   5
ENDBRANCH   1   4
TORSDOF 3
