REMARK SMILES Clc1cccc(CNCCc2c[nH]c3ccccc23)c1
REMARK SMILES IDX 8 1 7 3 6 4 2 5 3 6 20 7 4 8 5 9 1 10 9 11 10 12 11 13 12 14
REMARK SMILES IDX 19 15 13 16 18 17 14 18 17 19 15 20 16 21
REMARK H PARENT 8 2 13 22
ROOT
ATOM      1  N   UNL     1       1.321  -0.401   0.048  1.00  0.00    -0.312 NA
ATOM      2  H   UNL     1       1.629  -1.287   0.517  1.00  0.00     0.123 HD
ENDROOT
BRANCH   1   3
ATOM      3  C   UNL     1       2.270   0.649   0.436  1.00  0.00     0.116 C 
BRANCH   3   4
ATOM      4  C   UNL     1       3.621   0.355  -0.159  1.00  0.00    -0.033 A 
ATOM      5  C   UNL     1       5.966  -0.235   0.105  1.00  0.00     0.041 A 
ATOM      6  C   UNL     1       6.132  -0.199  -1.284  1.00  0.00     0.020 A 
ATOM      7  C   UNL     1       4.715   0.046   0.667  1.00  0.00     0.025 A 
ATOM      8  C   UNL     1       5.050   0.114  -2.110  1.00  0.00     0.002 A 
ATOM      9  C   UNL     1       3.797   0.385  -1.552  1.00  0.00     0.005 A 
ATOM     10  Cl  UNL     1       7.323  -0.637   1.141  1.00  0.00    -0.084 Cl
ENDBRANCH   3   4
ENDBRANCH   1   3
BRANCH   1  11
ATOM     11  C   UNL     1      -0.039  -0.062   0.487  1.00  0.00     0.086 C 
BRANCH  11  12
ATOM     12  C   UNL     1      -0.958  -1.284   0.364  1.00  0.00     0.053 C 
BRANCH  12  13
ATOM     13  C   UNL     1      -2.368  -0.951   0.759  1.00  0.00    -0.021 A 
ATOM     14  C   UNL     1      -3.048  -1.431   1.875  1.00  0.00     0.087 A 
ATOM     15  C   UNL     1      -3.257  -0.125   0.098  1.00  0.00     0.003 A 
ATOM     16  N   UNL     1      -4.300  -0.918   1.910  1.00  0.00    -0.361 N 
ATOM     17  C   UNL     1      -3.138   0.610  -1.082  1.00  0.00     0.010 A 
ATOM     18  C   UNL     1      -4.419  -0.130   0.828  1.00  0.00     0.046 A 
ATOM     19  C   UNL     1      -4.251   1.359  -1.506  1.00  0.00     0.001 A 
ATOM     20  C   UNL     1      -5.537   0.605   0.435  1.00  0.00     0.026 A 
ATOM     21  C   UNL     1      -5.444   1.357  -0.750  1.00  0.00     0.002 A 
ATOM     22  H   UNL     1      -5.028  -1.106   2.636  1.00  0.00     0.166 HD
ENDBRANCH  12  13
ENDBRANCH  11  12
ENDBRANCH   1  11
TORSDOF 5
