REMARK SMILES CCC(=O)O[C@]1(C(=O)COC(C)=O)CC[C@H]2[C@@H]3CCC4=CC(=O)CC[C@]4(C)[C@H]3[C@@H](O)C[C@@]21C
REMARK SMILES IDX 6 1 14 2 15 3 16 4 17 5 18 6 19 7 20 8 21 9 22 10 23 11
REMARK SMILES IDX 24 12 25 13 26 14 27 15 28 16 29 17 31 18 32 19 33 20 5 21
REMARK SMILES IDX 3 22 4 23 2 24 1 25 7 26 8 27 9 28 10 29 11 30 13 31 12 32
REMARK SMILES IDX 30 33
REMARK H PARENT 30 34
ROOT
ATOM      1  C   UNL     1       2.255   0.462  -0.036  1.00  0.00     0.179 C 
ATOM      2  C   UNL     1       2.329   1.760  -0.899  1.00  0.00     0.058 C 
ATOM      3  C   UNL     1       0.849   2.195  -1.135  1.00  0.00     0.009 C 
ATOM      4  C   UNL     1       0.007   1.120  -0.427  1.00  0.00     0.003 C 
ATOM      5  C   UNL     1      -1.488   0.915  -0.809  1.00  0.00    -0.000 C 
ATOM      6  C   UNL     1      -2.276   2.228  -0.535  1.00  0.00     0.009 C 
ATOM      7  C   UNL     1      -3.792   2.080  -0.744  1.00  0.00     0.032 C 
ATOM      8  C   UNL     1      -4.253   0.913   0.097  1.00  0.00    -0.060 C 
ATOM      9  C   UNL     1      -5.099   1.111   1.135  1.00  0.00     0.047 C 
ATOM     10  C   UNL     1      -5.401   0.014   2.074  1.00  0.00     0.155 C 
ATOM     11  O   UNL     1      -6.339   0.102   2.852  1.00  0.00    -0.295 OA
ATOM     12  C   UNL     1      -4.513  -1.197   2.075  1.00  0.00     0.081 C 
ATOM     13  C   UNL     1      -4.316  -1.601   0.628  1.00  0.00     0.020 C 
ATOM     14  C   UNL     1      -3.640  -0.463  -0.221  1.00  0.00    -0.005 C 
ATOM     15  C   UNL     1      -3.975  -0.831  -1.698  1.00  0.00     0.016 C 
ATOM     16  C   UNL     1      -2.090  -0.267   0.062  1.00  0.00     0.031 C 
ATOM     17  C   UNL     1      -1.200  -1.569   0.048  1.00  0.00     0.119 C 
ATOM     18  C   UNL     1       0.275  -1.231   0.394  1.00  0.00     0.043 C 
ATOM     19  C   UNL     1       0.882  -0.143  -0.535  1.00  0.00     0.020 C 
ATOM     20  C   UNL     1       0.969  -0.672  -2.010  1.00  0.00     0.016 C 
ENDROOT
BRANCH   1  21
ATOM     21  O   UNL     1       2.099   0.872   1.298  1.00  0.00    -0.450 OA
BRANCH  21  22
ATOM     22  C   UNL     1       2.986   1.610   2.037  1.00  0.00     0.306 C 
ATOM     23  O   UNL     1       4.106   1.853   1.612  1.00  0.00    -0.252 OA
BRANCH  22  24
ATOM     24  C   UNL     1       2.597   2.165   3.380  1.00  0.00     0.119 C 
ATOM     25  C   UNL     1       1.160   1.830   3.765  1.00  0.00     0.016 C 
ENDBRANCH  22  24
ENDBRANCH  21  22
ENDBRANCH   1  21
BRANCH   1  26
ATOM     26  C   UNL     1       3.483  -0.473  -0.112  1.00  0.00     0.214 C 
ATOM     27  O   UNL     1       3.992  -0.844   0.938  1.00  0.00    -0.291 OA
BRANCH  26  28
ATOM     28  C   UNL     1       4.128  -0.957  -1.397  1.00  0.00     0.312 C 
BRANCH  28  29
ATOM     29  O   UNL     1       5.201  -1.778  -1.103  1.00  0.00    -0.458 OA
BRANCH  29  30
ATOM     30  C   UNL     1       5.934  -2.441  -2.032  1.00  0.00     0.303 C 
ATOM     31  O   UNL     1       5.678  -2.344  -3.223  1.00  0.00    -0.253 OA
ATOM     32  C   UNL     1       7.053  -3.328  -1.588  1.00  0.00     0.139 C 
ENDBRANCH  29  30
ENDBRANCH  28  29
ENDBRANCH  26  28
ENDBRANCH   1  26
BRANCH  17  33
ATOM     33  O   UNL     1      -1.269  -2.339  -1.127  1.00  0.00    -0.393 OA
ATOM     34  H   UNL     1      -1.596  -1.783  -1.868  1.00  0.00     0.210 HD
ENDBRANCH  17  33
TORSDOF 8
