REMARK SMILES NC1=N[C@H](/C(=C\C(=O)O)[C@H](Nc2ccc[nH]2)[C@H]2CC[C@@H]3c4cc5ccc(CC=O)cc5cc4[C@@H]4[C@H]2[C@H]3C=C[C@H]4CCCCC[C@H](C=O)CCCO)[C@H]2CC[C@](O)(CO)[C@@H](O)[C@H]2N1
REMARK SMILES IDX 41 1 40 2 39 3 17 4 18 5 35 6 19 7 34 8 36 9 20 10 33 11
REMARK SMILES IDX 37 12 21 13 32 14 38 15 22 16 31 17 23 18 30 19 24 20 26 21
REMARK SMILES IDX 25 22 10 23 5 24 6 25 4 26 1 27 2 28 3 29 62 30 61 31 52 32
REMARK SMILES IDX 59 33 53 34 55 35 54 36 60 40 56 42 57 44 58 45 7 47 8 48
REMARK SMILES IDX 9 49 11 51 12 53 13 54 16 55 14 56 15 57 27 59 28 60 29 61
REMARK SMILES IDX 42 62 43 63 44 64 45 65 46 66 47 67 48 68 49 69 50 70 51 71
REMARK H PARENT 1 37 1 38 62 39 60 41 56 43 58 46 9 50 11 52 16 58 51 72
ROOT
ATOM      1  C   UNL     1       2.974   0.553  -2.551  1.00  0.00     0.001 C 
ENDROOT
BRANCH   1   2
ATOM      2  C   UNL     1       2.779  -0.888  -1.991  1.00  0.00     0.008 C 
BRANCH   2   3
ATOM      3  C   UNL     1       2.554  -0.925  -0.464  1.00  0.00     0.019 C 
ATOM      4  C   UNL     1      -1.270  -0.935   0.838  1.00  0.00     0.020 C 
ATOM      5  C   UNL     1      -1.764  -1.694   2.105  1.00  0.00     0.007 C 
ATOM      6  C   UNL     1       0.102  -1.541   0.279  1.00  0.00     0.010 C 
ATOM      7  C   UNL     1      -0.692  -1.709   3.233  1.00  0.00     0.009 C 
ATOM      8  C   UNL     1       1.147  -0.409  -0.002  1.00  0.00     0.030 C 
ATOM      9  C   UNL     1       0.765  -2.457   1.350  1.00  0.00     0.023 C 
ATOM     10  C   UNL     1       0.772  -1.687   2.695  1.00  0.00     0.027 C 
ATOM     11  C   UNL     1       1.363   0.381   1.265  1.00  0.00    -0.040 A 
ATOM     12  C   UNL     1       2.130  -2.941   0.946  1.00  0.00    -0.027 C 
ATOM     13  C   UNL     1       1.212  -0.216   2.540  1.00  0.00    -0.040 A 
ATOM     14  C   UNL     1       1.624   1.752   1.150  1.00  0.00     0.013 A 
ATOM     15  C   UNL     1       2.922  -2.264   0.119  1.00  0.00    -0.027 C 
ATOM     16  C   UNL     1       1.369   0.592   3.684  1.00  0.00     0.013 A 
ATOM     17  C   UNL     1       1.748   2.550   2.283  1.00  0.00    -0.018 A 
ATOM     18  C   UNL     1       1.634   1.969   3.563  1.00  0.00    -0.018 A 
ATOM     19  C   UNL     1       1.955   3.927   2.149  1.00  0.00     0.013 A 
ATOM     20  C   UNL     1       1.750   2.785   4.698  1.00  0.00     0.009 A 
ATOM     21  C   UNL     1       2.056   4.745   3.283  1.00  0.00    -0.040 A 
ATOM     22  C   UNL     1       1.958   4.163   4.559  1.00  0.00     0.005 A 
BRANCH   4  23
ATOM     23  C   UNL     1      -2.424  -0.638  -0.172  1.00  0.00     0.112 C 
BRANCH  23  24
ATOM     24  C   UNL     1      -3.339  -1.748  -0.722  1.00  0.00    -0.016 C 
ATOM     25  C   UNL     1      -2.985  -3.062  -0.640  1.00  0.00     0.097 C 
BRANCH  24  26
ATOM     26  C   UNL     1      -4.658  -1.241  -1.321  1.00  0.00     0.143 C 
ATOM     27  N   UNL     1      -6.031  -2.084  -4.644  1.00  0.00    -0.370 N 
ATOM     28  C   UNL     1      -5.963  -1.678  -3.289  1.00  0.00     0.189 C 
ATOM     29  N   UNL     1      -4.828  -1.721  -2.674  1.00  0.00    -0.245 NA
ATOM     30  N   UNL     1      -7.147  -1.247  -2.619  1.00  0.00    -0.351 N 
ATOM     31  C   UNL     1      -7.222  -1.058  -1.179  1.00  0.00     0.119 C 
ATOM     32  C   UNL     1      -5.913  -1.522  -0.453  1.00  0.00     0.043 C 
ATOM     33  C   UNL     1      -7.632   0.384  -0.812  1.00  0.00     0.171 C 
ATOM     34  C   UNL     1      -5.776  -0.889   0.969  1.00  0.00     0.011 C 
ATOM     35  C   UNL     1      -7.886   0.523   0.751  1.00  0.00     0.115 C 
ATOM     36  C   UNL     1      -7.150  -0.606   1.566  1.00  0.00     0.041 C 
ATOM     37  H   UNL     1      -5.187  -2.412  -5.136  1.00  0.00     0.159 HD
ATOM     38  H   UNL     1      -6.930  -2.069  -5.148  1.00  0.00     0.159 HD
ATOM     39  H   UNL     1      -8.009  -1.116  -3.171  1.00  0.00     0.164 HD
BRANCH  33  40
ATOM     40  O   UNL     1      -6.684   1.300  -1.317  1.00  0.00    -0.388 OA
ATOM     41  H   UNL     1      -5.954   1.425  -0.664  1.00  0.00     0.211 HD
ENDBRANCH  33  40
BRANCH  35  42
ATOM     42  O   UNL     1      -7.416   1.793   1.152  1.00  0.00    -0.385 OA
ATOM     43  H   UNL     1      -7.550   1.885   2.132  1.00  0.00     0.211 HD
ENDBRANCH  35  42
BRANCH  35  44
ATOM     44  C   UNL     1      -9.403   0.464   1.073  1.00  0.00     0.194 C 
BRANCH  44  45
ATOM     45  O   UNL     1      -9.969  -0.765   0.696  1.00  0.00    -0.393 OA
ATOM     46  H   UNL     1     -10.342  -0.646  -0.216  1.00  0.00     0.210 HD
ENDBRANCH  44  45
ENDBRANCH  35  44
ENDBRANCH  24  26
BRANCH  25  47
ATOM     47  C   UNL     1      -3.736  -4.264  -1.105  1.00  0.00     0.328 C 
ATOM     48  O   UNL     1      -4.817  -4.180  -1.659  1.00  0.00    -0.247 OA
BRANCH  47  49
ATOM     49  O   UNL     1      -3.204  -5.492  -0.922  1.00  0.00    -0.478 OA
ATOM     50  H   UNL     1      -2.348  -5.623  -0.490  1.00  0.00     0.297 HD
ENDBRANCH  47  49
ENDBRANCH  25  47
ENDBRANCH  23  24
BRANCH  23  51
ATOM     51  N   UNL     1      -2.029   0.319  -1.197  1.00  0.00    -0.365 N 
ATOM     52  H   UNL     1      -2.261   1.309  -1.023  1.00  0.00     0.162 HD
BRANCH  51  53
ATOM     53  C   UNL     1      -1.481   0.005  -2.474  1.00  0.00     0.103 A 
ATOM     54  C   UNL     1      -1.183   0.953  -3.430  1.00  0.00     0.046 A 
ATOM     55  N   UNL     1      -1.207  -1.230  -2.938  1.00  0.00    -0.348 N 
ATOM     56  C   UNL     1      -0.704   0.262  -4.522  1.00  0.00     0.021 A 
ATOM     57  C   UNL     1      -0.731  -1.077  -4.188  1.00  0.00     0.084 A 
ATOM     58  H   UNL     1      -1.332  -2.145  -2.460  1.00  0.00     0.167 HD
ENDBRANCH  51  53
ENDBRANCH  23  51
ENDBRANCH   4  23
BRANCH  21  59
ATOM     59  C   UNL     1       2.232   6.238   3.123  1.00  0.00     0.107 C 
BRANCH  59  60
ATOM     60  C   UNL     1       3.495   6.625   2.398  1.00  0.00     0.228 C 
ATOM     61  O   UNL     1       4.300   5.791   2.012  1.00  0.00    -0.303 OA
ENDBRANCH  59  60
ENDBRANCH  21  59
ENDBRANCH   2   3
ENDBRANCH   1   2
BRANCH   1  62
ATOM     62  C   UNL     1       4.078   1.402  -1.850  1.00  0.00     0.000 C 
BRANCH  62  63
ATOM     63  C   UNL     1       5.464   0.726  -1.800  1.00  0.00     0.001 C 
BRANCH  63  64
ATOM     64  C   UNL     1       6.463   1.547  -0.952  1.00  0.00     0.011 C 
BRANCH  64  65
ATOM     65  C   UNL     1       7.893   0.949  -0.845  1.00  0.00     0.053 C 
BRANCH  65  66
ATOM     66  C   UNL     1       8.559   0.929  -2.197  1.00  0.00     0.227 C 
ATOM     67  O   UNL     1       9.563   1.595  -2.398  1.00  0.00    -0.303 OA
ENDBRANCH  65  66
BRANCH  65  68
ATOM     68  C   UNL     1       7.903  -0.463  -0.202  1.00  0.00     0.013 C 
BRANCH  68  69
ATOM     69  C   UNL     1       9.303  -1.093  -0.039  1.00  0.00     0.029 C 
BRANCH  69  70
ATOM     70  C   UNL     1      10.225  -0.319   0.911  1.00  0.00     0.156 C 
BRANCH  70  71
ATOM     71  O   UNL     1      11.461  -0.972   1.020  1.00  0.00    -0.396 OA
ATOM     72  H   UNL     1      11.321  -1.754   1.616  1.00  0.00     0.210 HD
ENDBRANCH  70  71
ENDBRANCH  69  70
ENDBRANCH  68  69
ENDBRANCH  65  68
ENDBRANCH  64  65
ENDBRANCH  63  64
ENDBRANCH  62  63
ENDBRANCH   1  62
TORSDOF 24
