REMARK SMILES CO[C@@H]1O[C@@]2(OC)C[C@@H](OC)[C@@H](C)[C@H]2[C@H]2[C@H]1[C@H](OC(C)=O)C[C@H]2/C(C)=C\CC=C(C)C
REMARK SMILES IDX 3 1 4 2 5 3 8 4 9 5 12 6 13 7 14 8 15 9 16 10 17 11 22 12
REMARK SMILES IDX 23 13 2 14 1 15 6 16 7 17 18 18 19 19 21 20 20 21 24 22
REMARK SMILES IDX 26 23 25 24 27 25 28 26 29 27 30 28 31 29 10 30 11 31
REMARK H PARENT
ROOT
ATOM      1  C   UNL     1      -2.372   2.052  -0.163  1.00  0.00     0.260 C 
ATOM      2  O   UNL     1      -3.055   0.881  -0.646  1.00  0.00    -0.320 OA
ATOM      3  C   UNL     1      -2.701  -0.357  -0.017  1.00  0.00     0.176 C 
ATOM      4  C   UNL     1      -3.195  -1.564  -0.855  1.00  0.00     0.098 C 
ATOM      5  C   UNL     1      -2.191  -2.664  -0.512  1.00  0.00     0.126 C 
ATOM      6  C   UNL     1      -0.846  -1.943  -0.681  1.00  0.00     0.024 C 
ATOM      7  C   UNL     1      -0.426  -1.769  -2.158  1.00  0.00     0.011 C 
ATOM      8  C   UNL     1      -1.144  -0.619   0.048  1.00  0.00     0.059 C 
ATOM      9  C   UNL     1      -0.352   0.642  -0.318  1.00  0.00     0.017 C 
ATOM     10  C   UNL     1      -0.980   1.770   0.459  1.00  0.00     0.091 C 
ATOM     11  C   UNL     1       0.088   2.897   0.503  1.00  0.00     0.185 C 
ATOM     12  C   UNL     1       1.351   2.252  -0.112  1.00  0.00     0.054 C 
ATOM     13  C   UNL     1       1.155   0.729  -0.051  1.00  0.00     0.022 C 
ENDROOT
BRANCH   1  14
ATOM     14  O   UNL     1      -3.170   2.739   0.783  1.00  0.00    -0.355 OA
ATOM     15  C   UNL     1      -3.921   3.755   0.158  1.00  0.00     0.198 C 
ENDBRANCH   1  14
BRANCH   3  16
ATOM     16  O   UNL     1      -3.216  -0.406   1.315  1.00  0.00    -0.353 OA
ATOM     17  C   UNL     1      -4.623  -0.238   1.363  1.00  0.00     0.198 C 
ENDBRANCH   3  16
BRANCH  11  18
ATOM     18  O   UNL     1      -0.277   4.010  -0.242  1.00  0.00    -0.462 OA
BRANCH  18  19
ATOM     19  C   UNL     1      -0.385   5.279   0.228  1.00  0.00     0.302 C 
ATOM     20  O   UNL     1      -0.176   5.543   1.402  1.00  0.00    -0.253 OA
ATOM     21  C   UNL     1      -0.768   6.376  -0.714  1.00  0.00     0.139 C 
ENDBRANCH  18  19
ENDBRANCH  11  18
BRANCH  13  22
ATOM     22  C   UNL     1       1.706   0.033   1.212  1.00  0.00    -0.073 C 
ATOM     23  C   UNL     1       2.580  -1.017   1.149  1.00  0.00    -0.024 C 
ATOM     24  C   UNL     1       1.333   0.466   2.612  1.00  0.00     0.039 C 
BRANCH  23  25
ATOM     25  C   UNL     1       3.137  -1.712  -0.083  1.00  0.00     0.054 C 
BRANCH  25  26
ATOM     26  C   UNL     1       4.631  -1.513  -0.150  1.00  0.00    -0.024 C 
ATOM     27  C   UNL     1       5.584  -2.477  -0.224  1.00  0.00    -0.080 C 
ATOM     28  C   UNL     1       5.311  -3.964  -0.265  1.00  0.00     0.039 C 
ATOM     29  C   UNL     1       7.035  -2.072  -0.298  1.00  0.00     0.039 C 
ENDBRANCH  25  26
ENDBRANCH  23  25
ENDBRANCH  13  22
BRANCH   5  30
ATOM     30  O   UNL     1      -2.301  -3.792  -1.365  1.00  0.00    -0.381 OA
ATOM     31  C   UNL     1      -2.969  -4.844  -0.704  1.00  0.00     0.195 C 
ENDBRANCH   5  30
TORSDOF 8
