REMARK SMILES CC=C(C)C(=O)O[C@H]1C2=C(C)C(=O)O[C@@H]2C[C@H]2CCC(=O)[C@@H](C)[C@@]21C
REMARK SMILES IDX 5 1 6 2 3 3 2 4 1 5 4 6 7 7 8 8 9 9 24 10 10 11 15 12 22 13
REMARK SMILES IDX 17 14 12 15 14 16 16 17 20 18 18 19 13 20 19 21 21 22 25 23
REMARK SMILES IDX 11 24 23 25
REMARK H PARENT
ROOT
ATOM      1  C   UNL     1       2.299   0.046   0.236  1.00  0.00     0.333 C 
ATOM      2  O   UNL     1       2.388   0.275   1.436  1.00  0.00    -0.247 OA
ENDROOT
BRANCH   1   3
ATOM      3  C   UNL     1       3.474  -0.412  -0.565  1.00  0.00     0.030 C 
ATOM      4  C   UNL     1       4.705  -0.651  -0.053  1.00  0.00    -0.020 C 
ATOM      5  C   UNL     1       5.081  -0.503   1.393  1.00  0.00     0.036 C 
ATOM      6  C   UNL     1       3.250  -0.623  -2.045  1.00  0.00     0.052 C 
ENDBRANCH   1   3
BRANCH   1   7
ATOM      7  O   UNL     1       1.107   0.173  -0.399  1.00  0.00    -0.454 OA
BRANCH   7   8
ATOM      8  C   UNL     1      -0.107   0.574   0.134  1.00  0.00     0.214 C 
ATOM      9  C   UNL     1      -0.541   1.858  -0.541  1.00  0.00     0.021 C 
ATOM     10  C   UNL     1      -1.214  -0.576   0.010  1.00  0.00     0.021 C 
ATOM     11  C   UNL     1      -0.093   3.097  -0.341  1.00  0.00     0.041 C 
ATOM     12  C   UNL     1      -1.650   1.884  -1.533  1.00  0.00     0.207 C 
ATOM     13  C   UNL     1      -1.097  -1.508   1.308  1.00  0.00     0.063 C 
ATOM     14  C   UNL     1      -2.632   0.116   0.091  1.00  0.00     0.004 C 
ATOM     15  C   UNL     1      -0.906   3.944  -1.193  1.00  0.00     0.334 C 
ATOM     16  O   UNL     1      -1.812   3.216  -1.869  1.00  0.00    -0.454 OA
ATOM     17  C   UNL     1      -2.920   1.255  -0.945  1.00  0.00     0.054 C 
ATOM     18  C   UNL     1      -2.394  -2.206   1.686  1.00  0.00     0.136 C 
ATOM     19  C   UNL     1      -3.851  -0.852   0.160  1.00  0.00     0.012 C 
ATOM     20  O   UNL     1      -0.814   5.159  -1.280  1.00  0.00    -0.247 OA
ATOM     21  C   UNL     1      -3.531  -2.243   0.727  1.00  0.00     0.076 C 
ATOM     22  O   UNL     1      -2.514  -2.722   2.787  1.00  0.00    -0.299 OA
ATOM     23  C   UNL     1      -1.054  -1.375  -1.320  1.00  0.00     0.017 C 
ATOM     24  C   UNL     1       0.981   3.563   0.598  1.00  0.00     0.052 C 
ATOM     25  C   UNL     1       0.052  -2.528   1.281  1.00  0.00     0.017 C 
ENDBRANCH   7   8
ENDBRANCH   1   7
TORSDOF 3
