REMARK SMILES Cc1ccc([C@@H](CCN[C@H](C)c2ccc(Cl)cc2)c2ccc(OC(C)C)cc2)cc1
REMARK SMILES IDX 7 1 6 2 5 3 2 4 3 5 30 6 4 7 29 8 1 9 19 10 20 11 28 12
REMARK SMILES IDX 21 13 27 14 22 15 23 16 24 17 25 18 26 19 8 20 9 21 10 23
REMARK SMILES IDX 11 24 12 25 13 26 18 27 14 28 17 29 15 30 16 31
REMARK H PARENT 9 22
ROOT
ATOM      1  C   UNL     1       1.187   0.768   0.919  1.00  0.00     0.028 C 
ENDROOT
BRANCH   1   2
ATOM      2  C   UNL     1       0.177   1.137  -0.202  1.00  0.00     0.050 C 
BRANCH   2   3
ATOM      3  C   UNL     1      -0.247   2.601  -0.223  1.00  0.00    -0.040 A 
ATOM      4  C   UNL     1      -1.081   5.295  -0.393  1.00  0.00    -0.051 A 
ATOM      5  C   UNL     1      -0.383   4.840   0.735  1.00  0.00     0.004 A 
ATOM      6  C   UNL     1      -1.360   4.401  -1.435  1.00  0.00     0.004 A 
ATOM      7  C   UNL     1       0.037   3.509   0.820  1.00  0.00     0.004 A 
ATOM      8  C   UNL     1      -0.953   3.069  -1.347  1.00  0.00     0.004 A 
ATOM      9  C   UNL     1      -1.529   6.721  -0.499  1.00  0.00     0.044 C 
ENDBRANCH   2   3
BRANCH   2  10
ATOM     10  C   UNL     1      -1.065   0.265  -0.107  1.00  0.00    -0.040 A 
ATOM     11  C   UNL     1      -1.408  -0.614  -1.146  1.00  0.00     0.008 A 
ATOM     12  C   UNL     1      -1.879   0.317   1.037  1.00  0.00     0.008 A 
ATOM     13  C   UNL     1      -2.541  -1.431  -1.041  1.00  0.00     0.047 A 
ATOM     14  C   UNL     1      -3.003  -0.500   1.145  1.00  0.00     0.047 A 
ATOM     15  C   UNL     1      -3.351  -1.381   0.116  1.00  0.00     0.119 A 
BRANCH  15  16
ATOM     16  O   UNL     1      -4.456  -2.152   0.306  1.00  0.00    -0.491 OA
BRANCH  16  17
ATOM     17  C   UNL     1      -5.099  -2.999  -0.581  1.00  0.00     0.167 C 
ATOM     18  C   UNL     1      -4.994  -4.434  -0.065  1.00  0.00     0.052 C 
ATOM     19  C   UNL     1      -6.563  -2.573  -0.688  1.00  0.00     0.052 C 
ENDBRANCH  16  17
ENDBRANCH  15  16
ENDBRANCH   2  10
ENDBRANCH   1   2
BRANCH   1  20
ATOM     20  C   UNL     1       1.686  -0.681   0.771  1.00  0.00     0.082 C 
BRANCH  20  21
ATOM     21  N   UNL     1       2.564  -1.093   1.886  1.00  0.00    -0.310 NA
ATOM     22  H   UNL     1       2.372  -2.104   2.078  1.00  0.00     0.123 HD
BRANCH  21  23
ATOM     23  C   UNL     1       4.028  -0.956   1.688  1.00  0.00     0.080 C 
ATOM     24  C   UNL     1       4.486   0.487   1.949  1.00  0.00     0.029 C 
BRANCH  23  25
ATOM     25  C   UNL     1       4.509  -1.554   0.361  1.00  0.00    -0.031 A 
ATOM     26  C   UNL     1       4.226  -2.906   0.079  1.00  0.00     0.007 A 
ATOM     27  C   UNL     1       5.229  -0.807  -0.598  1.00  0.00     0.007 A 
ATOM     28  C   UNL     1       4.639  -3.487  -1.123  1.00  0.00     0.021 A 
ATOM     29  C   UNL     1       5.644  -1.395  -1.796  1.00  0.00     0.021 A 
ATOM     30  C   UNL     1       5.348  -2.734  -2.061  1.00  0.00     0.041 A 
ATOM     31  Cl  UNL     1       5.866  -3.466  -3.568  1.00  0.00    -0.084 Cl
ENDBRANCH  23  25
ENDBRANCH  21  23
ENDBRANCH  20  21
ENDBRANCH   1  20
TORSDOF 9
