REMARK SMILES COC1=C(CO)C(=O)O/C1=C1/OC2=CCCN3[C@H]4[C@H](O)[C@@H]5C[C@H](C6CCCC6)CC=C5CSSC[C@H]5C[C@]6(C[C@H]4[C@H](C[C@H]3[C@@H]2[C@@H]1CO)[C@H]6c1cccc(CCCCC2CCCC2)c1)C[C@]51CCC[C@@H]1Cc1ccccc1
REMARK SMILES IDX 49 1 50 2 51 3 52 4 53 5 63 6 48 7 43 8 42 9 17 10 41 11
REMARK SMILES IDX 18 12 40 13 39 14 38 15 37 16 64 17 36 18 65 19 66 20 69 21
REMARK SMILES IDX 67 22 68 23 44 24 3 25 4 26 10 27 7 28 9 29 11 30 8 31 12 32
REMARK SMILES IDX 45 33 13 34 14 35 2 36 1 37 5 38 6 39 46 41 47 42 15 44
REMARK SMILES IDX 16 46 19 48 20 49 21 51 22 52 31 53 23 54 30 55 29 56 24 58
REMARK SMILES IDX 25 59 28 60 26 61 27 62 35 63 34 64 33 65 32 66 70 68 71 69
REMARK SMILES IDX 72 70 76 71 73 72 75 73 74 74 54 75 55 76 56 77 57 78 58 79
REMARK SMILES IDX 59 80 62 81 60 82 61 83
REMARK H PARENT 6 40 47 43 20 50
REMARK Flexibility Score:  133.800
ROOT
ATOM      1  C   UNL     1      -7.197   0.245  -0.742  1.00  0.00    -0.044 A 
ATOM      2  C   UNL     1      -7.461   0.419  -2.212  1.00  0.00     0.004 A 
ATOM      3  C   UNL     1      -8.068   1.507  -2.827  1.00  0.00     0.001 A 
ATOM      4  C   UNL     1      -8.487   2.580  -2.097  1.00  0.00     0.004 A 
ATOM      5  C   UNL     1      -8.306   2.583  -0.729  1.00  0.00    -0.048 A 
ATOM      6  C   UNL     1      -7.710   1.494  -0.092  1.00  0.00     0.007 A 
ENDROOT
BRANCH   1   7
ATOM      7  C   UNL     1      -5.913  -2.143   0.640  1.00  0.00     0.029 C 
ATOM      8  C   UNL     1      -1.923  -2.189   1.186  1.00  0.00     0.068 C 
ATOM      9  C   UNL     1      -3.377  -1.861   1.572  1.00  0.00     0.024 C 
ATOM     10  N   UNL     1      -1.861  -3.662   1.506  1.00  0.00    -0.293 NA
ATOM     11  C   UNL     1      -4.348  -2.579   0.528  1.00  0.00     0.003 C 
ATOM     12  C   UNL     1      -2.740  -4.476   0.569  1.00  0.00     0.089 C 
ATOM     13  C   UNL     1      -4.288  -4.082   0.645  1.00  0.00     0.013 C 
ATOM     14  C   UNL     1      -5.454  -4.371   1.696  1.00  0.00     0.013 C 
ATOM     15  C   UNL     1      -6.752  -3.668   1.022  1.00  0.00    -0.021 C 
ATOM     16  C   UNL     1      -7.201  -4.605  -0.163  1.00  0.00     0.012 C 
ATOM     17  C   UNL     1      -8.277  -3.742   1.823  1.00  0.00     0.015 C 
ATOM     18  C   UNL     1      -8.659  -5.168  -0.003  1.00  0.00     0.007 C 
ATOM     19  C   UNL     1      -9.648  -4.101   0.776  1.00  0.00    -0.022 C 
ATOM     20  C   UNL     1     -10.765  -4.913   1.425  1.00  0.00     0.007 C 
ATOM     21  C   UNL     1     -10.811  -2.904   0.000  1.00  0.00    -0.000 C 
ATOM     22  C   UNL     1     -11.863  -5.035   0.334  1.00  0.00     0.001 C 
ATOM     23  C   UNL     1     -11.576  -3.962  -0.750  1.00  0.00     0.004 C 
BRANCH   8  24
ATOM     24  C   UNL     1      -0.709  -1.243   1.732  1.00  0.00     0.086 C 
ATOM     25  C   UNL     1       2.409   2.747   0.650  1.00  0.00     0.177 C 
ATOM     26  C   UNL     1       2.261   4.056   0.949  1.00  0.00     0.109 C 
ATOM     27  C   UNL     1       1.126   2.050   1.122  1.00  0.00     0.212 C 
ATOM     28  C   UNL     1       0.960   4.191   1.577  1.00  0.00     0.345 C 
ATOM     29  O   UNL     1       0.343   3.008   1.675  1.00  0.00    -0.415 OA
ATOM     30  C   UNL     1       0.651   0.747   1.114  1.00  0.00     0.156 C 
ATOM     31  O   UNL     1       0.468   5.237   1.971  1.00  0.00    -0.246 OA
ATOM     32  O   UNL     1       1.295  -0.337   0.668  1.00  0.00    -0.462 OA
ATOM     33  C   UNL     1      -0.744   0.360   1.611  1.00  0.00     0.097 C 
ATOM     34  C   UNL     1       0.600  -1.475   0.964  1.00  0.00     0.105 C 
ATOM     35  C   UNL     1       1.109  -2.655   0.583  1.00  0.00     0.017 C 
BRANCH  25  36
ATOM     36  O   UNL     1       3.498   2.222   0.000  1.00  0.00    -0.492 OA
ATOM     37  C   UNL     1       4.868   2.832   0.000  1.00  0.00     0.278 C 
ENDBRANCH  25  36
BRANCH  26  38
ATOM     38  C   UNL     1       3.185   5.219   0.678  1.00  0.00     0.203 C 
BRANCH  38  39
ATOM     39  O   UNL     1       4.342   5.110   1.458  1.00  0.00    -0.391 OA
ATOM     40  H   UNL     1       4.939   5.847   1.166  1.00  0.00     0.211 HD
ENDBRANCH  38  39
ENDBRANCH  26  38
BRANCH  33  41
ATOM     41  C   UNL     1      -1.776   0.928   0.606  1.00  0.00     0.168 C 
BRANCH  41  42
ATOM     42  O   UNL     1      -1.549   2.259   0.239  1.00  0.00    -0.396 OA
ATOM     43  H   UNL     1      -2.234   2.484  -0.444  1.00  0.00     0.210 HD
ENDBRANCH  41  42
ENDBRANCH  33  41
BRANCH  35  44
ATOM     44  C   UNL     1       0.570  -4.035   0.852  1.00  0.00     0.046 CG0
ATOM     45  G   UNL     1      -0.542  -4.173   1.905  1.00  0.00     0.000 G0
ENDBRANCH  35  44
ENDBRANCH   8  24
BRANCH  10  46
ATOM     46  C   UNL     1      -0.542  -4.173   1.905  1.00  0.00     0.089 CG0
ATOM     47  G   UNL     1       0.570  -4.035   0.852  1.00  0.00     0.000 G0
ENDBRANCH  10  46
BRANCH  12  48
ATOM     48  C   UNL     1      -2.415  -5.995   0.235  1.00  0.00     0.139 C 
BRANCH  48  49
ATOM     49  O   UNL     1      -2.753  -6.224  -1.120  1.00  0.00    -0.391 OA
ATOM     50  H   UNL     1      -1.966  -5.997  -1.683  1.00  0.00     0.211 HD
ENDBRANCH  48  49
BRANCH  48  51
ATOM     51  C   UNL     1      -3.014  -7.178   1.089  1.00  0.00     0.046 C 
ATOM     52  C   UNL     1      -1.929  -8.057   1.787  1.00  0.00     0.015 C 
ATOM     53  C   UNL     1      -3.929  -8.115   0.245  1.00  0.00    -0.058 CG1
ATOM     54  C   UNL     1      -1.117  -8.989   0.833  1.00  0.00    -0.004 C 
ATOM     55  C   UNL     1      -3.462  -9.279  -0.262  1.00  0.00    -0.026 C 
ATOM     56  C   UNL     1      -2.082  -9.848  -0.021  1.00  0.00     0.031 C 
ATOM     57  G   UNL     1      -5.431  -7.876   0.097  1.00  0.00     0.000 G1
BRANCH  54  58
ATOM     58  C   UNL     1       0.016  -8.328  -0.010  1.00  0.00    -0.008 C 
ATOM     59  C   UNL     1       1.070  -7.611   0.837  1.00  0.00     0.004 C 
ATOM     60  C   UNL     1       0.876  -9.314  -0.843  1.00  0.00     0.004 C 
ATOM     61  C   UNL     1       2.175  -7.383  -0.182  1.00  0.00     0.000 C 
ATOM     62  C   UNL     1       2.317  -8.781  -0.752  1.00  0.00     0.000 C 
ENDBRANCH  54  58
ENDBRANCH  48  51
ENDBRANCH  12  48
BRANCH  18  63
ATOM     63  C   UNL     1      -8.982  -6.071  -1.224  1.00  0.00     0.086 C 
BRANCH  63  64
ATOM     64  S   UNL     1      -8.128  -7.747  -1.184  1.00  0.00    -0.094 SA
BRANCH  64  65
ATOM     65  S   UNL     1      -6.014  -7.443  -1.608  1.00  0.00    -0.090 SA
BRANCH  65  66
ATOM     66  C   UNL     1      -5.431  -7.876   0.097  1.00  0.00     0.112 CG1
ATOM     67  G   UNL     1      -3.929  -8.115   0.245  1.00  0.00     0.000 G1
ENDBRANCH  65  66
ENDBRANCH  64  65
ENDBRANCH  63  64
ENDBRANCH  18  63
BRANCH  21  68
ATOM     68  C   UNL     1      -9.429  -2.321   0.000  1.00  0.00     0.039 C 
BRANCH  68  69
ATOM     69  C   UNL     1      -8.047  -1.737   0.000  1.00  0.00    -0.048 A 
ATOM     70  C   UNL     1      -7.010  -1.986  -1.386  1.00  0.00     0.004 A 
ATOM     71  C   UNL     1      -7.555  -0.697   1.344  1.00  0.00     0.004 A 
ATOM     72  C   UNL     1      -5.497  -1.177  -1.467  1.00  0.00     0.000 A 
ATOM     73  C   UNL     1      -5.969   0.104   1.234  1.00  0.00     0.000 A 
ATOM     74  C   UNL     1      -4.994  -0.128  -0.191  1.00  0.00     0.000 A 
ENDBRANCH  68  69
ENDBRANCH  21  68
ENDBRANCH   1   7
BRANCH   5  75
ATOM     75  C   UNL     1      -8.710   3.809   0.041  1.00  0.00     0.035 C 
BRANCH  75  76
ATOM     76  C   UNL     1     -10.245   4.051   0.000  1.00  0.00     0.005 C 
BRANCH  76  77
ATOM     77  C   UNL     1     -10.582   5.513   0.000  1.00  0.00     0.001 C 
BRANCH  77  78
ATOM     78  C   UNL     1     -10.919   6.975   0.000  1.00  0.00     0.003 C 
BRANCH  78  79
ATOM     79  C   UNL     1     -11.916   7.365   1.115  1.00  0.00    -0.011 C 
ATOM     80  C   UNL     1     -12.220   8.879   1.124  1.00  0.00     0.003 C 
ATOM     81  C   UNL     1     -13.297   6.697   0.903  1.00  0.00     0.003 C 
ATOM     82  C   UNL     1     -13.624   8.997   0.555  1.00  0.00     0.000 C 
ATOM     83  C   UNL     1     -14.301   7.798   1.208  1.00  0.00     0.000 C 
ENDBRANCH  78  79
ENDBRANCH  77  78
ENDBRANCH  76  77
ENDBRANCH  75  76
ENDBRANCH   5  75
TORSDOF 15
