REMARK SMILES CC1=CC(=O)O[C@H]2C[C@H]3O[C@@H]4C[C@@H](C)[C@H]5O[C@H]6C[C@H]7O[C@@]8(C)C/C=C\[C@H]9O[C@H]%10C[C@H]%11O[C@H](CC(=O)CCl)C[C@H](O)[C@]%11(C)O[C@H]%10C[C@@H]9O[C@H]8C[C@]7(C)O[C@]6(C)CC[C@H]5O[C@@H]4C[C@]3(C)O[C@@H]12
REMARK SMILES IDX 16 1 15 2 57 4 58 5 59 6 2 7 3 8 64 9 4 10 63 11 7 12 5 13
REMARK SMILES IDX 6 14 61 15 8 16 60 17 9 18 10 19 11 20 1 21 62 22 12 23
REMARK SMILES IDX 13 24 14 25 56 27 55 28 17 30 18 31 53 32 19 33 52 34 20 35
REMARK SMILES IDX 50 36 21 37 49 38 48 39 54 40 51 41 22 42 23 44 24 45 25 46
REMARK SMILES IDX 47 48 46 49 45 50 26 51 44 52 27 53 43 54 28 55 41 56 29 57
REMARK SMILES IDX 39 58 30 59 38 60 31 61 32 62 42 63 40 65 33 67 34 68 35 69
REMARK SMILES IDX 36 70 37 71
REMARK H PARENT 40 66
REMARK Flexibility Score:  260.700
ROOT
ATOM      1  O   UNL     1       3.356   0.466   1.579  1.00  0.00    -0.369 OA
ENDROOT
BRANCH   1   2
ATOM      2  C   UNL     1       4.151  -0.602   1.093  1.00  0.00     0.150 CG0
ATOM      3  G   UNL     1       5.543  -0.574   1.736  1.00  0.00     0.000 G0
BRANCH   2   4
ATOM      4  C   UNL     1       4.186  -0.684  -0.488  1.00  0.00     0.148 C 
BRANCH   4   5
ATOM      5  O   UNL     1       5.461  -0.930  -1.045  1.00  0.00    -0.369 OA
BRANCH   5   6
ATOM      6  C   UNL     1       6.350   0.162  -1.179  1.00  0.00     0.150 C 
ATOM      7  C   UNL     1      12.134  -0.848  -0.773  1.00  0.00    -0.034 C 
ATOM      8  C   UNL     1      13.342  -0.255  -0.790  1.00  0.00     0.095 C 
ATOM      9  C   UNL     1      10.877  -0.037  -0.555  1.00  0.00     0.186 C 
ATOM     10  C   UNL     1      13.441   1.216  -0.671  1.00  0.00     0.331 C 
ATOM     11  O   UNL     1      10.104   0.002  -1.738  1.00  0.00    -0.361 OA
ATOM     12  C   UNL     1      11.168   1.397   0.013  1.00  0.00     0.212 C 
ATOM     13  O   UNL     1      14.521   1.768  -0.798  1.00  0.00    -0.247 OA
ATOM     14  O   UNL     1      12.316   1.958  -0.511  1.00  0.00    -0.456 OA
ATOM     15  C   UNL     1       8.822   0.623  -1.552  1.00  0.00     0.095 C 
ATOM     16  C   UNL     1       9.953   2.362  -0.134  1.00  0.00     0.083 C 
ATOM     17  C   UNL     1       7.739  -0.456  -1.411  1.00  0.00     0.072 C 
ATOM     18  C   UNL     1       8.704   1.487  -0.250  1.00  0.00     0.154 C 
ATOM     19  O   UNL     1       7.448   2.167  -0.192  1.00  0.00    -0.369 OA
ATOM     20  C   UNL     1       6.385   1.211  -0.008  1.00  0.00     0.148 C 
ATOM     21  C   UNL     1      11.998  -2.334  -0.989  1.00  0.00     0.043 C 
ATOM     22  C   UNL     1       8.590   1.482  -2.822  1.00  0.00     0.045 C 
BRANCH  20  23
ATOM     23  C   UNL     1       6.333   0.716   1.472  1.00  0.00     0.041 C 
BRANCH  23  24
ATOM     24  C   UNL     1       5.543  -0.574   1.736  1.00  0.00     0.020 CG0
ATOM     25  C   UNL     1       5.444  -0.792   3.259  1.00  0.00     0.010 C 
ATOM     26  G   UNL     1       4.151  -0.602   1.093  1.00  0.00     0.000 G0
ENDBRANCH  23  24
ENDBRANCH  20  23
ENDBRANCH   5   6
ENDBRANCH   4   5
BRANCH   4  27
ATOM     27  C   UNL     1       3.080  -0.064  -1.448  1.00  0.00     0.038 C 
BRANCH  27  28
ATOM     28  C   UNL     1       2.460   1.289  -1.007  1.00  0.00     0.041 CG2
ATOM     29  G   UNL     1       1.486   1.281   0.247  1.00  0.00     0.000 G2
ENDBRANCH  27  28
ENDBRANCH   4  27
ENDBRANCH   2   4
ENDBRANCH   1   2
BRANCH   1  30
ATOM     30  C   UNL     1       2.012   0.213   1.219  1.00  0.00     0.153 C 
ATOM     31  C   UNL     1       1.097  -0.059   2.411  1.00  0.00     0.070 C 
ATOM     32  C   UNL     1       1.486   1.281   0.247  1.00  0.00     0.093 CG2
ATOM     33  C   UNL     1      -0.205  -0.538   1.766  1.00  0.00     0.153 C 
ATOM     34  O   UNL     1       0.121   0.968  -0.164  1.00  0.00    -0.364 OA
ATOM     35  O   UNL     1      -1.147  -1.038   2.682  1.00  0.00    -0.366 OA
ATOM     36  C   UNL     1      -0.829   0.557   0.865  1.00  0.00     0.095 C 
ATOM     37  C   UNL     1      -2.062  -1.955   2.053  1.00  0.00     0.096 C 
ATOM     38  C   UNL     1      -2.135  -0.061   0.202  1.00  0.00     0.073 C 
ATOM     39  C   UNL     1      -2.320  -1.578   0.516  1.00  0.00     0.153 C 
ATOM     40  C   UNL     1       1.589   2.725   0.811  1.00  0.00     0.045 C 
ATOM     41  C   UNL     1      -1.350   1.758   1.708  1.00  0.00     0.045 C 
ATOM     42  C   UNL     1      -1.447  -3.382   2.123  1.00  0.00     0.045 C 
ATOM     43  G   UNL     1       2.460   1.289  -1.007  1.00  0.00     0.000 G2
BRANCH  37  44
ATOM     44  C   UNL     1      -3.312  -1.938   2.979  1.00  0.00     0.065 C 
BRANCH  44  45
ATOM     45  C   UNL     1      -4.238  -3.139   2.901  1.00  0.00    -0.025 C 
ATOM     46  C   UNL     1      -5.169  -3.467   1.988  1.00  0.00     0.003 CG1
ATOM     47  G   UNL     1      -5.619  -2.740   0.748  1.00  0.00     0.000 G1
ENDBRANCH  44  45
ENDBRANCH  37  44
BRANCH  39  48
ATOM     48  O   UNL     1      -3.447  -2.193  -0.083  1.00  0.00    -0.369 OA
BRANCH  48  49
ATOM     49  C   UNL     1      -4.697  -1.614   0.256  1.00  0.00     0.154 C 
ATOM     50  C   UNL     1      -5.300  -0.875  -0.972  1.00  0.00     0.070 C 
ATOM     51  C   UNL     1      -5.619  -2.740   0.748  1.00  0.00     0.170 CG1
ATOM     52  C   UNL     1      -6.741  -1.342  -1.280  1.00  0.00     0.151 C 
ATOM     53  O   UNL     1      -6.900  -2.237   1.067  1.00  0.00    -0.365 OA
ATOM     54  O   UNL     1      -7.392  -0.571  -2.301  1.00  0.00    -0.364 OA
ATOM     55  C   UNL     1      -7.582  -1.604  -0.002  1.00  0.00     0.151 C 
ATOM     56  C   UNL     1      -8.220   0.530  -1.881  1.00  0.00     0.118 C 
ATOM     57  C   UNL     1      -8.182  -0.308   0.517  1.00  0.00     0.070 C 
ATOM     58  C   UNL     1      -9.257   0.865  -3.031  1.00  0.00     0.151 C 
ATOM     59  C   UNL     1      -9.056   0.223  -0.602  1.00  0.00     0.155 C 
ATOM     60  C   UNL     1     -10.703   1.053  -2.504  1.00  0.00     0.067 C 
ATOM     61  O   UNL     1      -9.771   1.375  -0.183  1.00  0.00    -0.371 OA
ATOM     62  C   UNL     1     -10.695   1.854  -1.170  1.00  0.00     0.128 C 
ATOM     63  C   UNL     1      -7.342   1.794  -1.662  1.00  0.00     0.048 C 
ATOM     64  G   UNL     1      -5.169  -3.467   1.988  1.00  0.00     0.000 G1
BRANCH  58  65
ATOM     65  O   UNL     1      -9.250  -0.105  -4.051  1.00  0.00    -0.390 OA
ATOM     66  H   UNL     1      -9.531  -0.966  -3.645  1.00  0.00     0.211 HD
ENDBRANCH  58  65
BRANCH  62  67
ATOM     67  C   UNL     1     -12.105   1.912  -0.548  1.00  0.00     0.109 C 
BRANCH  67  68
ATOM     68  C   UNL     1     -12.573   0.565  -0.041  1.00  0.00     0.150 C 
ATOM     69  O   UNL     1     -11.947   0.007   0.848  1.00  0.00    -0.298 OA
BRANCH  68  70
ATOM     70  C   UNL     1     -13.807  -0.074  -0.615  1.00  0.00     0.185 C 
ATOM     71  Cl  UNL     1     -14.161  -1.658   0.134  1.00  0.00    -0.118 Cl
ENDBRANCH  68  70
ENDBRANCH  67  68
ENDBRANCH  62  67
ENDBRANCH  48  49
ENDBRANCH  39  48
ENDBRANCH   1  30
TORSDOF 4
