REMARK SMILES CC[C@H](/C=C1\OC(=O)C2=C[C@@H]3CC[C@@]21[C@H]1C2=C(CC[C@@H]31)/C(=C/C[C@H](C)CO)OC2=O)CCC(C)C
REMARK SMILES IDX 4 1 5 2 6 3 7 4 8 5 9 6 10 7 11 8 12 9 13 10 14 11 15 12
REMARK SMILES IDX 16 13 17 14 18 15 19 16 20 17 21 18 22 19 28 20 29 21 30 22
REMARK SMILES IDX 3 23 2 24 1 25 31 26 32 27 33 28 34 29 35 30 23 31 24 32
REMARK SMILES IDX 25 33 26 34 27 35
REMARK H PARENT 27 36
ROOT
ATOM      1  C   UNL     1       1.606  -0.293  -0.919  1.00  0.00     0.020 C 
ATOM      2  C   UNL     1       1.479   0.465  -2.029  1.00  0.00     0.116 C 
ATOM      3  O   UNL     1       2.280   0.432  -3.129  1.00  0.00    -0.427 OA
ATOM      4  C   UNL     1       1.900   1.415  -3.980  1.00  0.00     0.339 C 
ATOM      5  O   UNL     1       2.435   1.626  -5.056  1.00  0.00    -0.246 OA
ATOM      6  C   UNL     1       0.799   2.177  -3.416  1.00  0.00     0.048 C 
ATOM      7  C   UNL     1       0.080   3.249  -3.806  1.00  0.00    -0.011 C 
ATOM      8  C   UNL     1      -0.970   3.665  -2.752  1.00  0.00     0.016 C 
ATOM      9  C   UNL     1      -0.164   3.938  -1.453  1.00  0.00     0.009 C 
ATOM     10  C   UNL     1       0.612   2.649  -1.032  1.00  0.00     0.021 C 
ATOM     11  C   UNL     1       0.442   1.554  -2.127  1.00  0.00     0.067 C 
ATOM     12  C   UNL     1      -1.057   1.133  -2.301  1.00  0.00     0.049 C 
ATOM     13  C   UNL     1      -1.582   0.235  -1.221  1.00  0.00     0.049 C 
ATOM     14  C   UNL     1      -2.347   0.634  -0.221  1.00  0.00     0.005 C 
ATOM     15  C   UNL     1      -2.706   2.086  -0.042  1.00  0.00     0.040 C 
ATOM     16  C   UNL     1      -3.057   2.655  -1.434  1.00  0.00     0.010 C 
ATOM     17  C   UNL     1      -1.934   2.444  -2.518  1.00  0.00     0.005 C 
ATOM     18  C   UNL     1      -2.755  -0.594   0.500  1.00  0.00     0.130 C 
ATOM     19  C   UNL     1      -3.552  -0.677   1.575  1.00  0.00     0.021 C 
ATOM     20  O   UNL     1      -2.204  -1.674  -0.098  1.00  0.00    -0.423 OA
ATOM     21  C   UNL     1      -1.502  -1.218  -1.146  1.00  0.00     0.340 C 
ATOM     22  O   UNL     1      -0.924  -1.942  -1.943  1.00  0.00    -0.246 OA
ENDROOT
BRANCH   1  23
ATOM     23  C   UNL     1       2.666  -1.323  -0.558  1.00  0.00     0.015 C 
BRANCH  23  24
ATOM     24  C   UNL     1       3.610  -1.655  -1.742  1.00  0.00     0.004 C 
ATOM     25  C   UNL     1       4.454  -2.923  -1.573  1.00  0.00     0.004 C 
ENDBRANCH  23  24
BRANCH  23  26
ATOM     26  C   UNL     1       3.339  -0.709   0.708  1.00  0.00     0.008 C 
BRANCH  26  27
ATOM     27  C   UNL     1       4.400  -1.521   1.461  1.00  0.00     0.003 C 
BRANCH  27  28
ATOM     28  C   UNL     1       4.785  -0.870   2.817  1.00  0.00    -0.017 C 
ATOM     29  C   UNL     1       5.791  -1.762   3.554  1.00  0.00     0.007 C 
ATOM     30  C   UNL     1       5.380   0.539   2.650  1.00  0.00     0.007 C 
ENDBRANCH  27  28
ENDBRANCH  26  27
ENDBRANCH  23  26
ENDBRANCH   1  23
BRANCH  19  31
ATOM     31  C   UNL     1      -3.886  -2.011   2.214  1.00  0.00     0.037 C 
BRANCH  31  32
ATOM     32  C   UNL     1      -5.392  -2.358   2.178  1.00  0.00     0.015 C 
ATOM     33  C   UNL     1      -5.898  -2.473   0.730  1.00  0.00     0.010 C 
BRANCH  32  34
ATOM     34  C   UNL     1      -6.223  -1.349   2.991  1.00  0.00     0.159 C 
BRANCH  34  35
ATOM     35  O   UNL     1      -7.566  -1.759   3.068  1.00  0.00    -0.396 OA
ATOM     36  H   UNL     1      -8.049  -1.311   2.326  1.00  0.00     0.210 HD
ENDBRANCH  34  35
ENDBRANCH  32  34
ENDBRANCH  31  32
ENDBRANCH  19  31
TORSDOF 9
