REMARK SMILES COc1ccccc1COc1ccc2c(oc(=O)c3ccccc32)c1C
REMARK SMILES IDX 9 1 8 2 3 3 4 4 5 5 7 6 6 7 2 8 1 9 10 10 11 11 12 12 25 13
REMARK SMILES IDX 13 14 15 15 14 16 16 17 24 18 17 19 23 20 19 21 18 22 22 23
REMARK SMILES IDX 20 24 21 25 26 26
REMARK H PARENT
ROOT
ATOM      1  C   UNL     1       2.769  -1.617   0.515  1.00  0.00     0.269 C 
ENDROOT
BRANCH   1   2
ATOM      2  C   UNL     1       3.382  -0.563  -0.377  1.00  0.00     0.031 A 
ATOM      3  C   UNL     1       3.784   0.697   0.125  1.00  0.00     0.125 A 
ATOM      4  C   UNL     1       4.381   1.627  -0.755  1.00  0.00     0.047 A 
ATOM      5  C   UNL     1       4.575   1.308  -2.100  1.00  0.00     0.004 A 
ATOM      6  C   UNL     1       3.586  -0.866  -1.734  1.00  0.00     0.011 A 
ATOM      7  C   UNL     1       4.179   0.065  -2.589  1.00  0.00     0.001 A 
BRANCH   3   8
ATOM      8  O   UNL     1       3.595   0.977   1.442  1.00  0.00    -0.496 OA
ATOM      9  C   UNL     1       3.938   2.152   2.078  1.00  0.00     0.278 C 
ENDBRANCH   3   8
ENDBRANCH   1   2
BRANCH   1  10
ATOM     10  O   UNL     1       1.532  -2.030   0.049  1.00  0.00    -0.488 OA
BRANCH  10  11
ATOM     11  C   UNL     1       0.341  -1.375   0.131  1.00  0.00     0.126 A 
ATOM     12  C   UNL     1       0.214  -0.124   0.756  1.00  0.00     0.047 A 
ATOM     13  C   UNL     1      -0.803  -1.995  -0.405  1.00  0.00     0.034 A 
ATOM     14  C   UNL     1      -1.030   0.500   0.861  1.00  0.00     0.016 A 
ATOM     15  C   UNL     1      -2.065  -1.369  -0.298  1.00  0.00     0.145 A 
ATOM     16  C   UNL     1      -2.194  -0.111   0.345  1.00  0.00     0.026 A 
ATOM     17  O   UNL     1      -3.135  -1.979  -0.795  1.00  0.00    -0.422 OA
ATOM     18  C   UNL     1      -3.493   0.464   0.444  1.00  0.00    -0.000 A 
ATOM     19  C   UNL     1      -4.361  -1.482  -0.728  1.00  0.00     0.344 A 
ATOM     20  C   UNL     1      -3.745   1.709   1.071  1.00  0.00     0.010 A 
ATOM     21  C   UNL     1      -4.594  -0.246  -0.105  1.00  0.00     0.068 A 
ATOM     22  O   UNL     1      -5.281  -2.121  -1.212  1.00  0.00    -0.246 OA
ATOM     23  C   UNL     1      -5.043   2.222   1.149  1.00  0.00     0.001 A 
ATOM     24  C   UNL     1      -5.895   0.289  -0.017  1.00  0.00     0.016 A 
ATOM     25  C   UNL     1      -6.113   1.515   0.608  1.00  0.00     0.001 A 
ATOM     26  C   UNL     1      -0.658  -3.338  -1.079  1.00  0.00     0.052 C 
ENDBRANCH  10  11
ENDBRANCH   1  10
TORSDOF 4
