REMARK SMILES COC(=O)CCC[C@@H](C)CC(=O)OC
REMARK SMILES IDX 7 1 6 2 5 3 3 4 4 5 2 6 1 7 8 8 9 9 10 10 11 11 12 12 13 13
REMARK SMILES IDX 14 14
REMARK H PARENT
ROOT
ATOM      1  C   UNL     1      -0.276  -0.740  -0.431  1.00  0.00     0.004 C 
ENDROOT
BRANCH   1   2
ATOM      2  C   UNL     1       1.196  -0.550  -0.033  1.00  0.00     0.012 C 
BRANCH   2   3
ATOM      3  C   UNL     1       1.984   0.157  -1.141  1.00  0.00     0.123 C 
BRANCH   3   4
ATOM      4  C   UNL     1       3.409   0.361  -0.717  1.00  0.00     0.305 C 
ATOM      5  O   UNL     1       4.121  -0.607  -0.487  1.00  0.00    -0.252 OA
BRANCH   4   6
ATOM      6  O   UNL     1       3.886   1.624  -0.574  1.00  0.00    -0.469 OA
ATOM      7  C   UNL     1       5.158   1.917  -0.130  1.00  0.00     0.282 C 
ENDBRANCH   4   6
ENDBRANCH   3   4
ENDBRANCH   2   3
ENDBRANCH   1   2
BRANCH   1   8
ATOM      8  C   UNL     1      -1.111  -1.467   0.656  1.00  0.00    -0.003 C 
ATOM      9  C   UNL     1      -1.175  -0.697   1.990  1.00  0.00     0.008 C 
BRANCH   8  10
ATOM     10  C   UNL     1      -2.532  -1.823   0.145  1.00  0.00     0.126 C 
BRANCH  10  11
ATOM     11  C   UNL     1      -3.445  -0.673  -0.221  1.00  0.00     0.305 C 
ATOM     12  O   UNL     1      -4.571  -0.932  -0.625  1.00  0.00    -0.252 OA
BRANCH  11  13
ATOM     13  O   UNL     1      -3.038   0.616  -0.115  1.00  0.00    -0.469 OA
ATOM     14  C   UNL     1      -3.819   1.702  -0.447  1.00  0.00     0.282 C 
ENDBRANCH  11  13
ENDBRANCH  10  11
ENDBRANCH   8  10
ENDBRANCH   1   8
TORSDOF 8
