REMARK SMILES CCOc1ccc(-c2ncccc2O)cc1
REMARK SMILES IDX 4 1 5 2 6 3 7 4 15 5 16 6 3 7 2 8 1 9 8 10 9 11 13 12 10 13
REMARK SMILES IDX 12 14 11 15 14 16
REMARK H PARENT 14 17
ROOT
ATOM      1  C   UNL     1      -1.977  -0.346   0.982  1.00  0.00     0.119 A 
ATOM      2  C   UNL     1      -0.974  -0.916   1.766  1.00  0.00     0.047 A 
ATOM      3  C   UNL     1       0.374  -0.724   1.452  1.00  0.00     0.014 A 
ATOM      4  C   UNL     1       0.766   0.060   0.343  1.00  0.00     0.004 A 
ATOM      5  C   UNL     1      -0.261   0.635  -0.442  1.00  0.00     0.014 A 
ATOM      6  C   UNL     1      -1.609   0.434  -0.127  1.00  0.00     0.047 A 
ENDROOT
BRANCH   1   7
ATOM      7  O   UNL     1      -3.272  -0.569   1.334  1.00  0.00    -0.494 OA
BRANCH   7   8
ATOM      8  C   UNL     1      -4.403  -0.257   0.602  1.00  0.00     0.226 C 
ATOM      9  C   UNL     1      -4.526  -1.153  -0.630  1.00  0.00     0.049 C 
ENDBRANCH   7   8
ENDBRANCH   1   7
BRANCH   4  10
ATOM     10  C   UNL     1       2.239   0.222   0.059  1.00  0.00     0.112 A 
ATOM     11  N   UNL     1       3.100  -0.569   0.765  1.00  0.00    -0.252 NA
ATOM     12  C   UNL     1       2.796   1.135  -0.881  1.00  0.00     0.141 A 
ATOM     13  C   UNL     1       4.448  -0.539   0.605  1.00  0.00     0.112 A 
ATOM     14  C   UNL     1       4.189   1.174  -1.052  1.00  0.00     0.050 A 
ATOM     15  C   UNL     1       5.017   0.336  -0.312  1.00  0.00     0.024 A 
BRANCH  12  16
ATOM     16  O   UNL     1       2.033   1.976  -1.603  1.00  0.00    -0.506 OA
ATOM     17  H   UNL     1       2.406   2.608  -2.235  1.00  0.00     0.293 HD
ENDBRANCH  12  16
ENDBRANCH   4  10
TORSDOF 4
