REMARK SMILES O=C1CCc2cc(OC3CCCC3)c(O)c(c2)[C@H](O)c2cc3c4cc2-c2ccccc2CCCNC[C@@H]2C#C[C@H](Nc5[nH]ccc5C3)C3=C(CC#C[C@H]5CCC[C@]45[C@@H]2O)c2[nH]ccc2[C@H](C[C@@]2(O)C=Cc4c(O)cccc4CC2)[C@H]3C(=O)[C@H]1CCO
REMARK SMILES IDX 66 1 65 2 1 3 2 4 3 5 83 6 4 7 81 8 5 9 80 10 82 11 6 12
REMARK SMILES IDX 17 13 48 14 7 15 16 16 64 17 40 18 49 19 14 20 18 21 60 22
REMARK SMILES IDX 63 23 39 24 41 25 20 26 61 27 62 28 42 29 21 30 25 31 46 32
REMARK SMILES IDX 43 33 22 34 24 35 45 36 47 37 44 38 23 39 84 43 85 44 86 45
REMARK SMILES IDX 8 47 9 48 10 49 13 50 11 51 12 52 50 53 51 54 15 56 19 58
REMARK SMILES IDX 38 60 37 61 36 63 35 64 34 66 26 68 27 69 31 70 28 71 30 72
REMARK SMILES IDX 29 73 32 74 33 75 57 77 56 78 53 79 55 80 52 81 54 82 58 84
REMARK SMILES IDX 59 86 67 88 68 89 69 91 70 92 71 93 72 94 77 95 74 96 76 97
REMARK SMILES IDX 75 98 73 99 78 101 79 103
REMARK H PARENT 41 40 61 41 43 42 86 46 15 57 19 59 35 65 59 87 68 90 73 100
REMARK Flexibility Score:   72.600
ROOT
ATOM      1  C   UNL     1       3.559   7.476   0.953  1.00  0.00     0.049 C 
ENDROOT
BRANCH   1   2
ATOM      2  C   UNL     1       2.346   6.802   0.241  1.00  0.00     0.039 C 
ATOM      3  O   UNL     1      -0.177  11.724  -1.323  1.00  0.00    -0.299 OA
ATOM      4  C   UNL     1       0.062  11.358  -0.179  1.00  0.00     0.143 C 
ATOM      5  C   UNL     1      -0.402  12.377   0.901  1.00  0.00     0.081 C 
ATOM      6  C   UNL     1       1.097  10.129  -0.000  1.00  0.00     0.126 C 
ATOM      7  C   UNL     1      -1.909  12.565   1.425  1.00  0.00     0.043 C 
ATOM      8  C   UNL     1       0.582   8.579  -0.027  1.00  0.00     0.151 C 
ATOM      9  C   UNL     1      -3.195  12.681   0.544  1.00  0.00    -0.043 A 
ATOM     10  C   UNL     1       0.912   7.220   0.742  1.00  0.00     0.094 C 
ATOM     11  O   UNL     1      -0.222   8.376  -0.912  1.00  0.00    -0.298 OA
ATOM     12  C   UNL     1      -3.325  13.651  -0.446  1.00  0.00     0.054 A 
ATOM     13  C   UNL     1      -4.334  11.853   0.788  1.00  0.00     0.014 A 
ATOM     14  C   UNL     1      -0.210   6.038   0.412  1.00  0.00    -0.019 C 
ATOM     15  C   UNL     1      -4.520  13.762  -1.197  1.00  0.00     0.162 A 
ATOM     16  C   UNL     1      -5.524  11.841  -0.011  1.00  0.00     0.031 A 
ATOM     17  C   UNL     1       2.437   5.310   0.196  1.00  0.00    -0.018 A 
ATOM     18  C   UNL     1      -1.236   5.583   1.638  1.00  0.00     0.184 C 
ATOM     19  C   UNL     1       0.064   5.115  -0.708  1.00  0.00    -0.009 C 
ATOM     20  C   UNL     1      -5.590  12.841  -1.012  1.00  0.00     0.163 A 
ATOM     21  C   UNL     1      -6.743  10.825   0.229  1.00  0.00     0.179 C 
ATOM     22  C   UNL     1       1.437   4.579  -0.383  1.00  0.00     0.046 A 
ATOM     23  C   UNL     1       3.397   4.413   0.642  1.00  0.00     0.024 A 
ATOM     24  C   UNL     1      -1.828   4.400   1.153  1.00  0.00    -0.073 C 
ATOM     25  N   UNL     1      -2.495   6.363   2.006  1.00  0.00    -0.354 N 
ATOM     26  C   UNL     1      -6.603   9.315  -0.243  1.00  0.00    -0.007 A 
ATOM     27  N   UNL     1       1.792   3.269  -0.384  1.00  0.00    -0.361 N 
ATOM     28  C   UNL     1       2.977   3.170   0.239  1.00  0.00     0.083 A 
ATOM     29  C   UNL     1      -3.634   5.770   2.765  1.00  0.00     0.108 A 
ATOM     30  C   UNL     1      -7.103   8.190   0.489  1.00  0.00     0.011 A 
ATOM     31  C   UNL     1      -5.480   8.997  -0.958  1.00  0.00    -0.012 A 
ATOM     32  C   UNL     1      -5.133   5.679   2.542  1.00  0.00    -0.002 A 
ATOM     33  N   UNL     1      -3.335   5.081   3.884  1.00  0.00    -0.348 N 
ATOM     34  C   UNL     1      -6.501   6.864   0.310  1.00  0.00    -0.039 A 
ATOM     35  C   UNL     1      -5.502   7.724  -1.630  1.00  0.00     0.013 A 
ATOM     36  C   UNL     1      -5.540   4.930   3.646  1.00  0.00     0.025 A 
ATOM     37  C   UNL     1      -6.456   6.005   1.614  1.00  0.00     0.075 C 
ATOM     38  C   UNL     1      -4.459   4.594   4.415  1.00  0.00     0.084 A 
ATOM     39  C   UNL     1      -5.914   6.554  -1.003  1.00  0.00    -0.034 A 
ATOM     40  H   UNL     1      -2.736   7.114   1.407  1.00  0.00     0.163 HD
ATOM     41  H   UNL     1       1.253   2.439  -0.713  1.00  0.00     0.166 HD
ATOM     42  H   UNL     1      -2.380   4.949   4.285  1.00  0.00     0.167 HD
BRANCH   6  43
ATOM     43  C   UNL     1       2.427  10.821  -0.000  1.00  0.00     0.047 C 
BRANCH  43  44
ATOM     44  C   UNL     1       3.758  11.513   0.000  1.00  0.00     0.157 C 
BRANCH  44  45
ATOM     45  O   UNL     1       4.579  11.108   1.071  1.00  0.00    -0.396 OA
ATOM     46  H   UNL     1       5.447  11.571   0.944  1.00  0.00     0.210 HD
ENDBRANCH  44  45
ENDBRANCH  43  44
ENDBRANCH   6  43
BRANCH  15  47
ATOM     47  O   UNL     1      -4.674  14.776  -2.087  1.00  0.00    -0.487 OA
BRANCH  47  48
ATOM     48  C   UNL     1      -4.327  16.090  -1.804  1.00  0.00     0.173 C 
ATOM     49  C   UNL     1      -5.511  17.033  -2.002  1.00  0.00     0.045 C 
ATOM     50  C   UNL     1      -3.326  16.681  -2.781  1.00  0.00     0.045 C 
ATOM     51  C   UNL     1      -4.825  18.383  -1.870  1.00  0.00     0.004 C 
ATOM     52  C   UNL     1      -3.465  18.199  -2.568  1.00  0.00     0.004 C 
ENDBRANCH  47  48
ENDBRANCH  15  47
BRANCH  19  53
ATOM     53  C   UNL     1      -0.714   3.906  -1.529  1.00  0.00     0.127 C 
ATOM     54  C   UNL     1      -2.008   4.041  -2.397  1.00  0.00    -0.098 CG2
ATOM     55  G   UNL     1      -3.163   4.223  -2.873  1.00  0.00     0.000 G2
ENDBRANCH  19  53
BRANCH  20  56
ATOM     56  O   UNL     1      -6.703  12.941  -1.772  1.00  0.00    -0.504 OA
ATOM     57  H   UNL     1      -6.813  13.609  -2.465  1.00  0.00     0.293 HD
ENDBRANCH  20  56
BRANCH  21  58
ATOM     58  O   UNL     1      -7.128  10.882   1.579  1.00  0.00    -0.383 OA
ATOM     59  H   UNL     1      -7.625  11.733   1.698  1.00  0.00     0.211 HD
ENDBRANCH  21  58
BRANCH  24  60
ATOM     60  C   UNL     1      -2.687   4.373   0.362  1.00  0.00    -0.093 C 
ATOM     61  C   UNL     1      -3.589   5.212  -0.375  1.00  0.00     0.108 CG1
ATOM     62  G   UNL     1      -4.755   4.285  -0.744  1.00  0.00     0.000 G1
BRANCH  61  63
ATOM     63  C   UNL     1      -2.950   6.554  -1.180  1.00  0.00     0.100 C 
BRANCH  63  64
ATOM     64  N   UNL     1      -2.419   6.677  -2.566  1.00  0.00    -0.315 NA
ATOM     65  H   UNL     1      -1.467   6.254  -2.581  1.00  0.00     0.122 HD
BRANCH  64  66
ATOM     66  C   UNL     1      -2.139   7.997  -3.189  1.00  0.00     0.081 CG0
ATOM     67  G   UNL     1      -2.991   9.238  -2.909  1.00  0.00     0.000 G0
ENDBRANCH  64  66
ENDBRANCH  63  64
ENDBRANCH  61  63
ENDBRANCH  24  60
BRANCH  31  68
ATOM     68  C   UNL     1      -4.392   9.046   0.145  1.00  0.00    -0.015 A 
ATOM     69  C   UNL     1      -4.641   8.828   1.592  1.00  0.00     0.009 A 
ATOM     70  C   UNL     1      -3.105   9.440  -0.188  1.00  0.00    -0.040 A 
ATOM     71  C   UNL     1      -3.691   8.976   2.584  1.00  0.00     0.001 A 
ATOM     72  C   UNL     1      -2.173   9.526   0.875  1.00  0.00     0.004 A 
ATOM     73  C   UNL     1      -2.433   9.314   2.217  1.00  0.00     0.000 A 
BRANCH  70  74
ATOM     74  C   UNL     1      -2.735   9.958  -1.580  1.00  0.00     0.037 C 
BRANCH  74  75
ATOM     75  C   UNL     1      -2.991   9.238  -2.909  1.00  0.00     0.020 CG0
ATOM     76  G   UNL     1      -2.139   7.997  -3.189  1.00  0.00     0.000 G0
ENDBRANCH  74  75
ENDBRANCH  70  74
ENDBRANCH  31  68
BRANCH  39  77
ATOM     77  C   UNL     1      -5.537   5.111  -1.720  1.00  0.00     0.037 C 
ATOM     78  C   UNL     1      -6.843   4.403  -2.135  1.00  0.00     0.016 C 
ATOM     79  C   UNL     1      -4.590   4.902  -3.097  1.00  0.00     0.077 C 
ATOM     80  C   UNL     1      -6.406   3.293  -3.093  1.00  0.00     0.002 C 
ATOM     81  C   UNL     1      -3.163   4.223  -2.873  1.00  0.00    -0.099 CG2
ATOM     82  C   UNL     1      -5.458   4.035  -4.021  1.00  0.00     0.018 C 
ATOM     83  G   UNL     1      -2.008   4.041  -2.397  1.00  0.00     0.000 G2
BRANCH  77  84
ATOM     84  C   UNL     1      -4.755   4.285  -0.744  1.00  0.00     0.142 CG1
ATOM     85  G   UNL     1      -3.589   5.212  -0.375  1.00  0.00     0.000 G1
BRANCH  84  86
ATOM     86  O   UNL     1      -5.462   3.860   0.387  1.00  0.00    -0.391 OA
ATOM     87  H   UNL     1      -5.975   3.042   0.152  1.00  0.00     0.211 HD
ENDBRANCH  84  86
ENDBRANCH  77  84
ENDBRANCH  39  77
ENDBRANCH   1   2
BRANCH   1  88
ATOM     88  C   UNL     1       4.966   7.407   0.207  1.00  0.00     0.084 C 
BRANCH  88  89
ATOM     89  O   UNL     1       5.208   6.128  -0.325  1.00  0.00    -0.386 OA
ATOM     90  H   UNL     1       4.679   6.007  -1.158  1.00  0.00     0.211 HD
ENDBRANCH  88  89
BRANCH  88  91
ATOM     91  C   UNL     1       5.005   8.385  -0.962  1.00  0.00     0.008 C 
ATOM     92  C   UNL     1       5.939   9.285  -1.341  1.00  0.00     0.011 C 
BRANCH  92  93
ATOM     93  C   UNL     1       7.280   9.632  -0.766  1.00  0.00     0.019 A 
ATOM     94  C   UNL     1       7.892  10.828  -1.231  1.00  0.00     0.123 A 
ATOM     95  C   UNL     1       7.974   8.854   0.198  1.00  0.00    -0.037 A 
ATOM     96  C   UNL     1       9.138  11.234  -0.734  1.00  0.00     0.047 A 
ATOM     97  C   UNL     1       9.221   9.298   0.684  1.00  0.00     0.004 A 
ATOM     98  C   UNL     1       9.795  10.474   0.222  1.00  0.00     0.004 A 
BRANCH  94  99
ATOM     99  O   UNL     1       7.275  11.600  -2.152  1.00  0.00    -0.507 OA
ATOM    100  H   UNL     1       7.664  12.421  -2.485  1.00  0.00     0.293 HD
ENDBRANCH  94  99
BRANCH  95 101
ATOM    101  C   UNL     1       7.471   7.543   0.726  1.00  0.00     0.039 CG3
ATOM    102  G   UNL     1       6.058   7.650   1.275  1.00  0.00     0.000 G3
ENDBRANCH  95 101
ENDBRANCH  92  93
ENDBRANCH  88  91
BRANCH  88 103
ATOM    103  C   UNL     1       6.058   7.650   1.275  1.00  0.00     0.044 CG3
ATOM    104  G   UNL     1       7.471   7.543   0.726  1.00  0.00     0.000 G3
ENDBRANCH  88 103
ENDBRANCH   1  88
TORSDOF 12
