REMARK SMILES COc1cccc(NC(=O)[C@@H]2[C@H]3C(=O)N(CCc4ccc(OC)c(OC)c4)[C@@H](C(=O)N[C@H]4CCCC[C@@H]4C)[C@]34C=C[C@H]2O4)c1
REMARK SMILES IDX 11 1 42 2 41 3 40 4 39 5 43 6 12 7 13 8 14 9 15 10 28 11
REMARK SMILES IDX 9 12 8 13 10 14 7 16 3 17 4 18 44 19 5 20 6 21 2 22 1 23
REMARK SMILES IDX 29 24 30 25 31 26 32 28 33 29 37 30 34 31 36 32 35 33 38 34
REMARK SMILES IDX 16 35 17 36 18 37 19 38 27 39 20 40 24 41 21 42 25 43 26 44
REMARK SMILES IDX 22 45 23 46
REMARK H PARENT 8 15 31 27
ROOT
ATOM      1  C   UNL     1      -3.050   1.759  -1.828  1.00  0.00     0.127 C 
ATOM      2  C   UNL     1      -1.996   0.575  -1.874  1.00  0.00     0.155 C 
ATOM      3  C   UNL     1      -1.489   0.279  -0.482  1.00  0.00     0.004 C 
ATOM      4  C   UNL     1      -2.519  -0.345   0.139  1.00  0.00     0.010 C 
ATOM      5  C   UNL     1      -3.533  -0.458  -0.933  1.00  0.00     0.129 C 
ATOM      6  O   UNL     1      -2.750  -0.581  -2.104  1.00  0.00    -0.359 OA
ATOM      7  C   UNL     1      -4.271   0.850  -1.231  1.00  0.00     0.133 C 
ATOM      8  C   UNL     1      -5.370   0.102  -2.121  1.00  0.00     0.230 C 
ATOM      9  O   UNL     1      -6.144   0.719  -2.836  1.00  0.00    -0.274 OA
ATOM     10  N   UNL     1      -5.531  -1.273  -1.876  1.00  0.00    -0.327 N 
ATOM     11  C   UNL     1      -4.585  -1.566  -0.795  1.00  0.00     0.211 C 
ENDROOT
BRANCH   1  12
ATOM     12  C   UNL     1      -2.254   3.070  -1.196  1.00  0.00     0.231 C 
ATOM     13  N   UNL     1      -2.666   4.422  -1.057  1.00  0.00    -0.326 N 
ATOM     14  O   UNL     1      -1.100   2.836  -0.898  1.00  0.00    -0.274 OA
ATOM     15  H   UNL     1      -3.644   4.636  -1.299  1.00  0.00     0.169 HD
BRANCH  13  16
ATOM     16  C   UNL     1      -1.784   5.596  -0.667  1.00  0.00     0.044 A 
ATOM     17  C   UNL     1      -1.384   8.115  -0.164  1.00  0.00     0.120 A 
ATOM     18  C   UNL     1      -0.030   7.849  -0.019  1.00  0.00     0.046 A 
ATOM     19  C   UNL     1      -2.269   6.974  -0.489  1.00  0.00     0.072 A 
ATOM     20  C   UNL     1       0.458   6.556  -0.169  1.00  0.00     0.006 A 
ATOM     21  C   UNL     1      -0.374   5.471  -0.480  1.00  0.00     0.026 A 
BRANCH  17  22
ATOM     22  O   UNL     1      -1.847   9.429   0.000  1.00  0.00    -0.497 OA
ATOM     23  C   UNL     1      -1.237  10.799  -0.000  1.00  0.00     0.278 C 
ENDBRANCH  17  22
ENDBRANCH  13  16
ENDBRANCH   1  12
BRANCH  11  24
ATOM     24  C   UNL     1      -4.008  -2.958  -0.839  1.00  0.00     0.246 C 
ATOM     25  O   UNL     1      -3.547  -3.363  -1.897  1.00  0.00    -0.273 OA
ATOM     26  N   UNL     1      -4.142  -3.794   0.251  1.00  0.00    -0.351 N 
ATOM     27  H   UNL     1      -4.492  -3.403   1.138  1.00  0.00     0.163 HD
BRANCH  26  28
ATOM     28  C   UNL     1      -4.157  -5.259   0.075  1.00  0.00     0.084 C 
ATOM     29  C   UNL     1      -3.261  -5.969   1.095  1.00  0.00     0.025 C 
ATOM     30  C   UNL     1      -5.668  -5.940   0.000  1.00  0.00     0.008 C 
ATOM     31  C   UNL     1      -2.994  -7.394   0.602  1.00  0.00     0.002 C 
ATOM     32  C   UNL     1      -5.197  -7.328  -0.676  1.00  0.00     0.005 C 
ATOM     33  C   UNL     1      -4.295  -8.135   0.291  1.00  0.00     0.000 C 
ATOM     34  C   UNL     1      -6.550  -4.726   0.000  1.00  0.00     0.010 C 
ENDBRANCH  26  28
ENDBRANCH  11  24
BRANCH  10  35
ATOM     35  C   UNL     1      -6.753  -2.130  -2.258  1.00  0.00     0.125 C 
BRANCH  35  36
ATOM     36  C   UNL     1      -6.750  -3.631  -3.014  1.00  0.00     0.057 C 
BRANCH  36  37
ATOM     37  C   UNL     1      -7.819  -4.731  -2.444  1.00  0.00    -0.042 A 
ATOM     38  C   UNL     1      -9.080  -4.272  -2.197  1.00  0.00     0.008 A 
ATOM     39  C   UNL     1      -7.508  -6.098  -1.950  1.00  0.00     0.054 A 
ATOM     40  C   UNL     1      -9.961  -5.018  -1.449  1.00  0.00     0.051 A 
ATOM     41  C   UNL     1      -8.302  -6.843  -0.881  1.00  0.00     0.160 A 
ATOM     42  C   UNL     1      -9.632  -6.240  -0.770  1.00  0.00     0.160 A 
BRANCH  41  43
ATOM     43  O   UNL     1      -7.881  -8.010   0.000  1.00  0.00    -0.493 OA
ATOM     44  C   UNL     1      -9.095  -8.892   0.000  1.00  0.00     0.278 C 
ENDBRANCH  41  43
BRANCH  42  45
ATOM     45  O   UNL     1     -10.622  -6.790   0.000  1.00  0.00    -0.493 OA
ATOM     46  C   UNL     1     -11.992  -6.180   0.000  1.00  0.00     0.278 C 
ENDBRANCH  42  45
ENDBRANCH  36  37
ENDBRANCH  35  36
ENDBRANCH  10  35
TORSDOF 10
