REMARK SMILES CC[C@H]1[C@@H]2[C@H](Cl)[C@@H](O)[C@@H]3[C@H](C[C@@H]4/C=C\C(=O)C5=C(O)[C@H](CCCNC(=O)/C=C/C[C@H]34)NC5=O)[C@@H]2C[C@H]1C
REMARK SMILES IDX 3 1 4 2 5 3 6 4 7 5 9 6 10 7 11 8 12 9 30 10 34 11 35 12
REMARK SMILES IDX 36 13 37 14 2 15 1 16 8 17 29 19 28 20 27 21 25 22 24 23
REMARK SMILES IDX 26 24 23 26 22 27 21 28 13 30 14 31 15 32 16 33 17 34 18 35
REMARK SMILES IDX 32 36 20 37 31 38 33 39 19 42
REMARK H PARENT 8 18 24 25 31 40 19 43
REMARK Flexibility Score:   58.900
ROOT
ATOM      1  C   UNL     1       5.439   0.305  -0.384  1.00  0.00    -0.004 C 
ATOM      2  C   UNL     1       4.467  -0.889  -0.652  1.00  0.00     0.016 C 
ATOM      3  C   UNL     1       3.554  -0.829  -1.920  1.00  0.00     0.113 C 
ATOM      4  Cl  UNL     1       4.487  -0.781  -3.445  1.00  0.00    -0.120 Cl
ATOM      5  C   UNL     1       2.541   0.349  -1.825  1.00  0.00     0.136 C 
ATOM      6  C   UNL     1       1.743   0.313  -0.472  1.00  0.00     0.027 C 
ATOM      7  C   UNL     1       2.114  -0.841   0.457  1.00  0.00    -0.001 C 
ATOM      8  C   UNL     1       1.254  -0.532   1.685  1.00  0.00     0.012 C 
ATOM      9  C   UNL     1      -0.082   0.007   1.106  1.00  0.00     0.016 C 
ATOM     10  C   UNL     1       0.189   0.265  -0.437  1.00  0.00     0.006 C 
ATOM     11  C   UNL     1       3.643  -0.997   0.680  1.00  0.00    -0.002 C 
ATOM     12  C   UNL     1       4.276   0.037   1.633  1.00  0.00     0.008 C 
ATOM     13  C   UNL     1       5.705   0.195   1.132  1.00  0.00    -0.011 C 
ATOM     14  C   UNL     1       6.607  -0.988   1.548  1.00  0.00     0.008 C 
ENDROOT
BRANCH   1  15
ATOM     15  C   UNL     1       6.702   0.395  -1.270  1.00  0.00     0.001 C 
ATOM     16  C   UNL     1       7.564   1.610  -0.918  1.00  0.00     0.004 C 
ENDBRANCH   1  15
BRANCH   5  17
ATOM     17  O   UNL     1       1.706   0.488  -2.949  1.00  0.00    -0.391 OA
ATOM     18  H   UNL     1       1.765  -0.332  -3.506  1.00  0.00     0.211 HD
ENDBRANCH   5  17
BRANCH  10  19
ATOM     19  C   UNL     1      -0.490  -0.822  -1.361  1.00  0.00     0.032 C 
BRANCH  19  20
ATOM     20  C   UNL     1      -1.997  -0.684  -1.615  1.00  0.00    -0.021 C 
ATOM     21  C   UNL     1      -2.709   0.456  -1.457  1.00  0.00     0.067 C 
BRANCH  21  22
ATOM     22  C   UNL     1      -4.163   0.648  -1.762  1.00  0.00     0.243 C 
ATOM     23  N   UNL     1      -5.009  -0.374  -2.107  1.00  0.00    -0.353 N 
ATOM     24  O   UNL     1      -4.598   1.785  -1.653  1.00  0.00    -0.270 OA
ATOM     25  H   UNL     1      -4.637  -1.329  -2.195  1.00  0.00     0.163 HD
BRANCH  23  26
ATOM     26  C   UNL     1      -6.465  -0.220  -2.260  1.00  0.00     0.116 C 
BRANCH  26  27
ATOM     27  C   UNL     1      -7.138   0.343  -0.972  1.00  0.00     0.024 C 
BRANCH  27  28
ATOM     28  C   UNL     1      -6.717  -0.457   0.284  1.00  0.00     0.035 CG0
ATOM     29  G   UNL     1      -6.675   0.308   1.652  1.00  0.00     0.000 G0
ENDBRANCH  27  28
ENDBRANCH  26  27
ENDBRANCH  23  26
ENDBRANCH  21  22
ENDBRANCH  19  20
ENDBRANCH  10  19
BRANCH   9  30
ATOM     30  C   UNL     1      -1.182  -0.992   1.419  1.00  0.00    -0.019 C 
ATOM     31  C   UNL     1      -2.384  -0.775   1.985  1.00  0.00     0.049 C 
BRANCH  31  32
ATOM     32  C   UNL     1      -2.975   0.525   2.424  1.00  0.00     0.194 C 
ATOM     33  O   UNL     1      -2.280   1.520   2.540  1.00  0.00    -0.289 OA
BRANCH  32  34
ATOM     34  C   UNL     1      -4.446   0.690   2.279  1.00  0.00     0.126 C 
ATOM     35  C   UNL     1      -5.433  -0.230   2.340  1.00  0.00     0.131 C 
ATOM     36  C   UNL     1      -5.060   1.917   1.802  1.00  0.00     0.259 C 
ATOM     37  C   UNL     1      -6.675   0.308   1.652  1.00  0.00     0.149 CG0
ATOM     38  N   UNL     1      -6.334   1.702   1.461  1.00  0.00    -0.342 N 
ATOM     39  O   UNL     1      -4.500   2.992   1.656  1.00  0.00    -0.269 OA
ATOM     40  H   UNL     1      -6.957   2.418   1.058  1.00  0.00     0.164 HD
ATOM     41  G   UNL     1      -6.717  -0.457   0.284  1.00  0.00     0.000 G0
BRANCH  35  42
ATOM     42  O   UNL     1      -5.335  -1.509   2.768  1.00  0.00    -0.509 OA
ATOM     43  H   UNL     1      -4.606  -1.828   3.315  1.00  0.00     0.293 HD
ENDBRANCH  35  42
ENDBRANCH  32  34
ENDBRANCH  31  32
ENDBRANCH   9  30
TORSDOF 3
