REMARK SMILES CCOC(=O)C=CC=CCCC=CCCC[C@@H](C)O
REMARK SMILES IDX 11 1 10 2 9 3 8 4 7 5 6 6 4 7 5 8 3 9 2 10 1 11 12 12 13 13
REMARK SMILES IDX 14 14 15 15 16 16 17 17 18 18 19 19
REMARK H PARENT 19 20
ROOT
ATOM      1  C   UNL     1       0.072   0.696  -1.633  1.00  0.00     0.031 C 
ENDROOT
BRANCH   1   2
ATOM      2  C   UNL     1       1.217   1.677  -1.325  1.00  0.00     0.031 C 
BRANCH   2   3
ATOM      3  C   UNL     1       1.557   1.886   0.141  1.00  0.00    -0.027 C 
ATOM      4  C   UNL     1       0.863   1.382   1.178  1.00  0.00    -0.004 C 
BRANCH   4   5
ATOM      5  C   UNL     1       1.273   1.641   2.572  1.00  0.00     0.007 C 
ATOM      6  C   UNL     1       0.549   1.159   3.594  1.00  0.00     0.093 C 
BRANCH   6   7
ATOM      7  C   UNL     1       0.926   1.388   5.002  1.00  0.00     0.330 C 
ATOM      8  O   UNL     1       0.206   0.948   5.886  1.00  0.00    -0.247 OA
BRANCH   7   9
ATOM      9  O   UNL     1       2.055   2.083   5.304  1.00  0.00    -0.463 OA
BRANCH   9  10
ATOM     10  C   UNL     1       2.535   2.314   6.581  1.00  0.00     0.230 C 
ATOM     11  C   UNL     1       2.992   1.019   7.252  1.00  0.00     0.049 C 
ENDBRANCH   9  10
ENDBRANCH   7   9
ENDBRANCH   6   7
ENDBRANCH   4   5
ENDBRANCH   2   3
ENDBRANCH   1   2
BRANCH   1  12
ATOM     12  C   UNL     1       0.464  -0.729  -1.279  1.00  0.00    -0.031 C 
ATOM     13  C   UNL     1       0.471  -1.796  -2.102  1.00  0.00    -0.031 C 
BRANCH  13  14
ATOM     14  C   UNL     1       0.050  -1.827  -3.553  1.00  0.00     0.027 C 
BRANCH  14  15
ATOM     15  C   UNL     1      -1.085  -2.842  -3.768  1.00  0.00     0.007 C 
BRANCH  15  16
ATOM     16  C   UNL     1      -2.357  -2.568  -2.935  1.00  0.00     0.032 C 
BRANCH  16  17
ATOM     17  C   UNL     1      -3.025  -1.194  -3.172  1.00  0.00     0.111 C 
ATOM     18  C   UNL     1      -3.458  -0.972  -4.626  1.00  0.00     0.038 C 
BRANCH  17  19
ATOM     19  O   UNL     1      -4.131  -1.049  -2.316  1.00  0.00    -0.393 OA
ATOM     20  H   UNL     1      -4.790  -1.755  -2.551  1.00  0.00     0.210 HD
ENDBRANCH  17  19
ENDBRANCH  16  17
ENDBRANCH  15  16
ENDBRANCH  14  15
ENDBRANCH  13  14
ENDBRANCH   1  12
TORSDOF 12
