REMARK SMILES CC1(C)CC[C@]2(C(=O)O[C@@H]3O[C@H](CO[C@@H]4O[C@H](CO)[C@@H](O)[C@H](O)[C@H]4O)[C@@H](O)[C@H](O)[C@H]3O)CC[C@]3(C)C(=CC[C@@H]4[C@@]5(C)C[C@H](O)[C@@H](O[C@@H]6OC[C@@H](O)[C@H](O)[C@H]6O)[C@@](C)(CO)[C@@H]5CC[C@]43C)[C@@H]2C1
REMARK SMILES IDX 10 1 11 2 12 3 26 4 28 5 30 6 9 7 7 8 8 9 6 10 2 11 4 12
REMARK SMILES IDX 66 13 5 14 65 15 36 16 32 17 34 18 37 19 33 20 63 21 38 22
REMARK SMILES IDX 62 23 39 24 61 25 40 26 60 27 42 28 56 29 43 30 45 31 1 32
REMARK SMILES IDX 3 33 35 34 64 35 41 36 57 37 58 38 59 39 44 41 46 43 47 44
REMARK SMILES IDX 48 45 54 46 49 47 52 48 50 49 55 50 53 52 51 54 31 56 13 58
REMARK SMILES IDX 14 59 15 60 16 61 24 62 17 63 22 64 20 65 25 66 18 68 19 69
REMARK SMILES IDX 23 71 21 73 29 75 27 77
REMARK H PARENT 59 40 44 42 55 51 53 53 51 55 31 57 25 67 19 70 23 72 21 74
REMARK H PARENT 29 76 27 78
ROOT
ATOM      1  C   UNL     1      -5.584  -1.852   0.496  1.00  0.00     0.342 C 
ATOM      2  O   UNL     1      -6.215  -1.039  -0.483  1.00  0.00    -0.332 OA
ATOM      3  C   UNL     1      -7.628  -1.164  -0.377  1.00  0.00     0.180 C 
ATOM      4  C   UNL     1      -8.116  -0.607   0.992  1.00  0.00     0.177 C 
ATOM      5  C   UNL     1      -7.370  -1.296   2.153  1.00  0.00     0.180 C 
ATOM      6  C   UNL     1      -5.848  -1.256   1.895  1.00  0.00     0.214 C 
ENDROOT
BRANCH   1   7
ATOM      7  O   UNL     1      -4.221  -1.908   0.244  1.00  0.00    -0.432 OA
BRANCH   7   8
ATOM      8  C   UNL     1      -3.519  -3.067   0.054  1.00  0.00     0.315 C 
ATOM      9  O   UNL     1      -4.111  -4.139   0.035  1.00  0.00    -0.252 OA
BRANCH   8  10
ATOM     10  C   UNL     1      -1.992  -3.028  -0.138  1.00  0.00     0.075 C 
ATOM     11  C   UNL     1      -0.909  -4.365   2.429  1.00  0.00    -0.035 C 
ATOM     12  C   UNL     1      -1.577  -5.166   1.276  1.00  0.00     0.007 C 
ATOM     13  C   UNL     1      -1.433  -2.902   2.387  1.00  0.00     0.015 C 
ATOM     14  C   UNL     1      -1.417  -4.490  -0.107  1.00  0.00     0.020 C 
ATOM     15  C   UNL     1      -1.348  -2.187   0.996  1.00  0.00     0.033 C 
ATOM     16  C   UNL     1      -0.015  -1.488   0.623  1.00  0.00    -0.063 C 
ATOM     17  C   UNL     1      -1.719  -2.297  -1.486  1.00  0.00     0.020 C 
ATOM     18  C   UNL     1       0.755  -1.691  -0.755  1.00  0.00    -0.006 C 
ATOM     19  C   UNL     1       0.217  -0.381   1.412  1.00  0.00    -0.027 C 
ATOM     20  C   UNL     1      -0.222  -2.277  -1.856  1.00  0.00     0.013 C 
ATOM     21  C   UNL     1       1.400  -0.279  -1.196  1.00  0.00    -0.020 C 
ATOM     22  C   UNL     1       1.250   0.699   1.173  1.00  0.00     0.032 C 
ATOM     23  C   UNL     1       2.350  -0.335  -2.463  1.00  0.00     0.008 C 
ATOM     24  C   UNL     1       2.195   0.269   0.060  1.00  0.00     0.006 C 
ATOM     25  C   UNL     1       3.878  -0.555  -2.280  1.00  0.00     0.005 C 
ATOM     26  C   UNL     1       3.541   1.084  -0.204  1.00  0.00    -0.023 C 
ATOM     27  C   UNL     1       4.477   0.057  -0.976  1.00  0.00     0.006 C 
ATOM     28  C   UNL     1       4.223   1.349   1.170  1.00  0.00     0.042 C 
ATOM     29  C   UNL     1       6.073   0.187  -0.838  1.00  0.00     0.023 C 
ATOM     30  C   UNL     1       5.670   1.879   1.135  1.00  0.00     0.144 C 
ATOM     31  C   UNL     1       6.485   1.529  -0.133  1.00  0.00     0.158 C 
ATOM     32  C   UNL     1       0.626  -4.417   2.360  1.00  0.00     0.011 C 
ATOM     33  C   UNL     1      -1.309  -5.017   3.773  1.00  0.00     0.011 C 
ATOM     34  C   UNL     1       1.916  -2.746  -0.648  1.00  0.00     0.017 C 
ATOM     35  C   UNL     1       0.242   0.704  -1.595  1.00  0.00     0.012 C 
ATOM     36  C   UNL     1       3.302   2.437  -0.924  1.00  0.00     0.012 C 
ATOM     37  C   UNL     1       6.761   0.167  -2.226  1.00  0.00     0.017 C 
BRANCH  29  38
ATOM     38  C   UNL     1       6.652  -1.021  -0.016  1.00  0.00     0.165 C 
BRANCH  38  39
ATOM     39  O   UNL     1       6.358  -2.249  -0.638  1.00  0.00    -0.396 OA
ATOM     40  H   UNL     1       5.701  -2.725  -0.065  1.00  0.00     0.210 HD
ENDBRANCH  38  39
ENDBRANCH  29  38
BRANCH  30  41
ATOM     41  O   UNL     1       5.738   3.262   1.389  1.00  0.00    -0.390 OA
ATOM     42  H   UNL     1       5.167   3.728   0.733  1.00  0.00     0.211 HD
ENDBRANCH  30  41
BRANCH  31  43
ATOM     43  O   UNL     1       7.837   1.441   0.289  1.00  0.00    -0.343 OA
BRANCH  43  44
ATOM     44  C   UNL     1       8.764   2.320  -0.306  1.00  0.00     0.281 C 
ATOM     45  O   UNL     1       9.799   1.535  -0.913  1.00  0.00    -0.347 OA
ATOM     46  C   UNL     1       9.295   3.292   0.805  1.00  0.00     0.202 C 
ATOM     47  C   UNL     1      10.765   1.153   0.044  1.00  0.00     0.198 C 
ATOM     48  C   UNL     1      10.749   3.667   0.474  1.00  0.00     0.179 C 
ATOM     49  C   UNL     1      11.616   2.377   0.458  1.00  0.00     0.171 C 
BRANCH  46  50
ATOM     50  O   UNL     1       8.460   4.412   0.947  1.00  0.00    -0.385 OA
ATOM     51  H   UNL     1       8.546   4.954   0.119  1.00  0.00     0.211 HD
ENDBRANCH  46  50
BRANCH  48  52
ATOM     52  O   UNL     1      11.283   4.623   1.355  1.00  0.00    -0.387 OA
ATOM     53  H   UNL     1      11.207   4.253   2.274  1.00  0.00     0.211 HD
ENDBRANCH  48  52
BRANCH  49  54
ATOM     54  O   UNL     1      12.731   2.557  -0.377  1.00  0.00    -0.388 OA
ATOM     55  H   UNL     1      12.408   2.539  -1.315  1.00  0.00     0.211 HD
ENDBRANCH  49  54
ENDBRANCH  43  44
ENDBRANCH  31  43
ENDBRANCH   8  10
ENDBRANCH   7   8
ENDBRANCH   1   7
BRANCH   6  56
ATOM     56  O   UNL     1      -5.152  -1.956   2.897  1.00  0.00    -0.384 OA
ATOM     57  H   UNL     1      -5.429  -2.908   2.849  1.00  0.00     0.211 HD
ENDBRANCH   6  56
BRANCH   3  58
ATOM     58  C   UNL     1      -8.312  -0.444  -1.561  1.00  0.00     0.198 C 
BRANCH  58  59
ATOM     59  O   UNL     1      -8.440   0.954  -1.382  1.00  0.00    -0.347 OA
BRANCH  59  60
ATOM     60  C   UNL     1      -7.244   1.681  -1.597  1.00  0.00     0.282 C 
ATOM     61  O   UNL     1      -6.934   2.427  -0.418  1.00  0.00    -0.341 OA
ATOM     62  C   UNL     1      -7.378   2.594  -2.837  1.00  0.00     0.202 C 
ATOM     63  C   UNL     1      -7.677   3.644  -0.233  1.00  0.00     0.178 C 
ATOM     64  C   UNL     1      -8.494   3.662  -2.646  1.00  0.00     0.179 C 
ATOM     65  C   UNL     1      -8.912   3.790  -1.165  1.00  0.00     0.177 C 
BRANCH  62  66
ATOM     66  O   UNL     1      -6.139   3.208  -3.110  1.00  0.00    -0.385 OA
ATOM     67  H   UNL     1      -5.906   3.805  -2.353  1.00  0.00     0.211 HD
ENDBRANCH  62  66
BRANCH  63  68
ATOM     68  C   UNL     1      -8.092   3.746   1.246  1.00  0.00     0.191 C 
BRANCH  68  69
ATOM     69  O   UNL     1      -8.942   2.690   1.611  1.00  0.00    -0.394 OA
ATOM     70  H   UNL     1      -9.874   3.013   1.500  1.00  0.00     0.210 HD
ENDBRANCH  68  69
ENDBRANCH  63  68
BRANCH  64  71
ATOM     71  O   UNL     1      -9.621   3.389  -3.442  1.00  0.00    -0.387 OA
ATOM     72  H   UNL     1      -9.939   2.478  -3.208  1.00  0.00     0.211 HD
ENDBRANCH  64  71
BRANCH  65  73
ATOM     73  O   UNL     1      -9.621   4.985  -0.947  1.00  0.00    -0.387 OA
ATOM     74  H   UNL     1      -8.983   5.735  -1.076  1.00  0.00     0.211 HD
ENDBRANCH  65  73
ENDBRANCH  59  60
ENDBRANCH  58  59
ENDBRANCH   3  58
BRANCH   5  75
ATOM     75  O   UNL     1      -7.699  -0.711   3.388  1.00  0.00    -0.387 OA
ATOM     76  H   UNL     1      -7.417   0.241   3.354  1.00  0.00     0.211 HD
ENDBRANCH   5  75
BRANCH   4  77
ATOM     77  O   UNL     1      -9.508  -0.732   1.139  1.00  0.00    -0.387 OA
ATOM     78  H   UNL     1      -9.728  -1.697   1.065  1.00  0.00     0.211 HD
ENDBRANCH   4  77
TORSDOF 22
