REMARK SMILES COc1ccccc1N1C(=O)C[C@@H](N2CCc3ccccc3C2)C1=O
REMARK SMILES IDX 3 1 4 2 5 3 6 4 7 5 8 6 2 7 1 8 9 9 10 10 24 11 11 12 12 13
REMARK SMILES IDX 13 14 25 15 14 16 15 17 23 18 16 19 22 20 17 21 21 22 18 23
REMARK SMILES IDX 20 24 19 25
REMARK H PARENT
ROOT
ATOM      1  C   UNL     1      -4.061  -0.515   0.300  1.00  0.00     0.143 A 
ATOM      2  C   UNL     1      -5.198  -0.926  -0.433  1.00  0.00     0.048 A 
ATOM      3  C   UNL     1      -5.267  -0.755  -1.809  1.00  0.00     0.004 A 
ATOM      4  C   UNL     1      -4.206  -0.177  -2.486  1.00  0.00     0.002 A 
ATOM      5  C   UNL     1      -3.067   0.232  -1.794  1.00  0.00     0.031 A 
ATOM      6  C   UNL     1      -2.945   0.081  -0.387  1.00  0.00     0.094 A 
ENDROOT
BRANCH   1   7
ATOM      7  O   UNL     1      -4.047  -0.663   1.649  1.00  0.00    -0.495 OA
ATOM      8  C   UNL     1      -4.982  -1.321   2.423  1.00  0.00     0.278 C 
ENDBRANCH   1   7
BRANCH   6   9
ATOM      9  N   UNL     1      -1.726   0.528   0.289  1.00  0.00    -0.245 N 
ATOM     10  C   UNL     1      -1.231   0.088   1.479  1.00  0.00     0.236 C 
ATOM     11  C   UNL     1      -0.863   1.474  -0.174  1.00  0.00     0.251 C 
ATOM     12  O   UNL     1      -1.709  -0.819   2.139  1.00  0.00    -0.274 OA
ATOM     13  C   UNL     1       0.019   0.772   1.912  1.00  0.00     0.130 C 
ATOM     14  C   UNL     1       0.313   1.717   0.729  1.00  0.00     0.157 C 
ATOM     15  O   UNL     1      -1.030   2.112  -1.201  1.00  0.00    -0.272 OA
BRANCH  14  16
ATOM     16  N   UNL     1       1.622   1.458   0.063  1.00  0.00    -0.287 NA
ATOM     17  C   UNL     1       2.741   1.753   0.984  1.00  0.00     0.090 C 
ATOM     18  C   UNL     1       1.710   0.117  -0.587  1.00  0.00     0.121 C 
ATOM     19  C   UNL     1       4.059   1.712   0.224  1.00  0.00     0.051 C 
ATOM     20  C   UNL     1       3.124  -0.387  -0.799  1.00  0.00    -0.031 A 
ATOM     21  C   UNL     1       4.246   0.359  -0.390  1.00  0.00    -0.042 A 
ATOM     22  C   UNL     1       3.312  -1.653  -1.379  1.00  0.00     0.005 A 
ATOM     23  C   UNL     1       5.536  -0.173  -0.552  1.00  0.00     0.004 A 
ATOM     24  C   UNL     1       4.599  -2.173  -1.540  1.00  0.00     0.000 A 
ATOM     25  C   UNL     1       5.709  -1.436  -1.124  1.00  0.00     0.000 A 
ENDBRANCH  14  16
ENDBRANCH   6   9
TORSDOF 3
