REMARK SMILES CC[C](C)CCCC[C]CC[C]CCCCCCCCCCCCC(=O)OC[C@@H](O)COC(=O)CCCCCCC[C]CC[C]CC(C)CC
REMARK SMILES IDX 24 1 23 2 22 3 21 4 20 5 19 6 18 7 17 8 16 9 15 10 14 11
REMARK SMILES IDX 13 12 12 13 11 14 10 15 9 16 8 17 7 18 6 19 5 20 3 21 4 22
REMARK SMILES IDX 2 23 1 24 25 25 26 26 27 27 28 28 29 29 30 30 31 32 32 33
REMARK SMILES IDX 33 34 34 35 35 36 36 37 37 38 38 39 39 40 40 41 41 42 42 43
REMARK SMILES IDX 43 44 44 45 45 46 46 47 47 48 48 49 49 50 50 51
REMARK H PARENT 30 31
ROOT
ATOM      1  C   UNL     1       1.091   1.517  -0.667  1.00  0.00     0.123 C 
ENDROOT
BRANCH   1   2
ATOM      2  C   UNL     1       2.671   1.711  -0.177  1.00  0.00     0.012 C 
BRANCH   2   3
ATOM      3  C   UNL     1       3.627   3.040  -0.525  1.00  0.00     0.001 C 
BRANCH   3   4
ATOM      4  C   UNL     1       5.196   3.000   0.000  1.00  0.00     0.000 C 
BRANCH   4   5
ATOM      5  C   UNL     1       6.495   3.750   0.000  1.00  0.00     0.000 C 
BRANCH   5   6
ATOM      6  C   UNL     1       7.794   4.500   0.000  1.00  0.00     0.000 C 
BRANCH   6   7
ATOM      7  C   UNL     1       9.093   5.250   0.000  1.00  0.00     0.000 C 
BRANCH   7   8
ATOM      8  C   UNL     1      10.392   6.000   0.000  1.00  0.00     0.000 C 
BRANCH   8   9
ATOM      9  C   UNL     1      11.691   6.750   0.000  1.00  0.00     0.000 C 
BRANCH   9  10
ATOM     10  C   UNL     1      13.324   7.094   0.196  1.00  0.00     0.000 C 
BRANCH  10  11
ATOM     11  C   UNL     1      13.960   8.626  -0.184  1.00  0.00     0.001 C 
BRANCH  11  12
ATOM     12  C   UNL     1      15.588   9.000   0.000  1.00  0.00     0.008 C 
BRANCH  12  13
ATOM     13  C   UNL     1      16.887   9.750   0.000  1.00  0.00    -0.017 C 
BRANCH  13  14
ATOM     14  C   UNL     1      18.186  10.500   0.000  1.00  0.00     0.009 C 
BRANCH  14  15
ATOM     15  C   UNL     1      19.486  11.250   0.000  1.00  0.00     0.009 C 
BRANCH  15  16
ATOM     16  C   UNL     1      20.785  12.000   0.000  1.00  0.00    -0.017 C 
BRANCH  16  17
ATOM     17  C   UNL     1      22.084  12.750   0.000  1.00  0.00     0.008 C 
BRANCH  17  18
ATOM     18  C   UNL     1      23.695  12.937  -0.051  1.00  0.00     0.001 C 
BRANCH  18  19
ATOM     19  C   UNL     1      24.310  14.488  -0.006  1.00  0.00     0.001 C 
BRANCH  19  20
ATOM     20  C   UNL     1      25.932  14.589  -0.035  1.00  0.00     0.007 C 
BRANCH  20  21
ATOM     21  C   UNL     1      27.280  15.750   0.000  1.00  0.00    -0.027 C 
ATOM     22  C   UNL     1      28.030  14.451   0.000  1.00  0.00     0.012 C 
BRANCH  21  23
ATOM     23  C   UNL     1      26.530  17.049   0.000  1.00  0.00     0.004 C 
ATOM     24  C   UNL     1      25.780  18.348   0.000  1.00  0.00     0.004 C 
ENDBRANCH  21  23
ENDBRANCH  20  21
ENDBRANCH  19  20
ENDBRANCH  18  19
ENDBRANCH  17  18
ENDBRANCH  16  17
ENDBRANCH  15  16
ENDBRANCH  14  15
ENDBRANCH  13  14
ENDBRANCH  12  13
ENDBRANCH  11  12
ENDBRANCH  10  11
ENDBRANCH   9  10
ENDBRANCH   8   9
ENDBRANCH   7   8
ENDBRANCH   6   7
ENDBRANCH   5   6
ENDBRANCH   4   5
ENDBRANCH   3   4
ENDBRANCH   2   3
ENDBRANCH   1   2
BRANCH   1  25
ATOM     25  C   UNL     1       0.234   0.186  -0.258  1.00  0.00     0.305 C 
ATOM     26  O   UNL     1       0.816  -0.626   0.443  1.00  0.00    -0.252 OA
BRANCH  25  27
ATOM     27  O   UNL     1      -1.120  -0.119  -0.646  1.00  0.00    -0.463 OA
BRANCH  27  28
ATOM     28  C   UNL     1      -1.919  -1.279  -0.235  1.00  0.00     0.268 C 
BRANCH  28  29
ATOM     29  C   UNL     1      -3.454  -1.537  -0.833  1.00  0.00     0.189 C 
BRANCH  29  30
ATOM     30  O   UNL     1      -3.371  -1.645  -2.228  1.00  0.00    -0.386 OA
ATOM     31  H   UNL     1      -3.235  -0.725  -2.577  1.00  0.00     0.211 HD
ENDBRANCH  29  30
BRANCH  29  32
ATOM     32  C   UNL     1      -4.306  -2.851  -0.274  1.00  0.00     0.268 C 
BRANCH  32  33
ATOM     33  O   UNL     1      -5.646  -3.191  -0.776  1.00  0.00    -0.463 OA
BRANCH  33  34
ATOM     34  C   UNL     1      -6.446  -4.302  -0.327  1.00  0.00     0.305 C 
ATOM     35  O   UNL     1      -6.010  -4.942   0.617  1.00  0.00    -0.252 OA
BRANCH  34  36
ATOM     36  C   UNL     1      -7.815  -4.924  -0.987  1.00  0.00     0.123 C 
BRANCH  36  37
ATOM     37  C   UNL     1      -9.093  -5.250   0.000  1.00  0.00     0.012 C 
BRANCH  37  38
ATOM     38  C   UNL     1     -10.392  -6.000   0.000  1.00  0.00     0.001 C 
BRANCH  38  39
ATOM     39  C   UNL     1     -11.691  -6.750   0.000  1.00  0.00     0.000 C 
BRANCH  39  40
ATOM     40  C   UNL     1     -13.340  -7.069   0.058  1.00  0.00     0.000 C 
BRANCH  40  41
ATOM     41  C   UNL     1     -13.945  -8.654  -0.062  1.00  0.00     0.001 C 
BRANCH  41  42
ATOM     42  C   UNL     1     -15.588  -9.000   0.000  1.00  0.00     0.008 C 
BRANCH  42  43
ATOM     43  C   UNL     1     -16.887  -9.750   0.000  1.00  0.00    -0.017 C 
BRANCH  43  44
ATOM     44  C   UNL     1     -18.186 -10.500   0.000  1.00  0.00     0.009 C 
BRANCH  44  45
ATOM     45  C   UNL     1     -19.486 -11.250   0.000  1.00  0.00     0.009 C 
BRANCH  45  46
ATOM     46  C   UNL     1     -20.785 -12.000   0.000  1.00  0.00    -0.017 C 
BRANCH  46  47
ATOM     47  C   UNL     1     -22.084 -12.750   0.000  1.00  0.00     0.011 C 
BRANCH  47  48
ATOM     48  C   UNL     1     -23.383 -13.500   0.000  1.00  0.00    -0.014 C 
ATOM     49  C   UNL     1     -24.682 -14.250   0.000  1.00  0.00     0.007 C 
BRANCH  48  50
ATOM     50  C   UNL     1     -24.133 -12.201   0.000  1.00  0.00    -0.000 C 
ATOM     51  C   UNL     1     -24.883 -10.902   0.000  1.00  0.00     0.004 C 
ENDBRANCH  48  50
ENDBRANCH  47  48
ENDBRANCH  46  47
ENDBRANCH  45  46
ENDBRANCH  44  45
ENDBRANCH  43  44
ENDBRANCH  42  43
ENDBRANCH  41  42
ENDBRANCH  40  41
ENDBRANCH  39  40
ENDBRANCH  38  39
ENDBRANCH  37  38
ENDBRANCH  36  37
ENDBRANCH  34  36
ENDBRANCH  33  34
ENDBRANCH  32  33
ENDBRANCH  29  32
ENDBRANCH  28  29
ENDBRANCH  27  28
ENDBRANCH  25  27
ENDBRANCH   1  25
TORSDOF 43
