REMARK SMILES CC1=CCC[C@@H](C)O1
REMARK SMILES IDX 1 1 2 2 3 3 4 4 5 5 6 6 7 7 8 8
REMARK H PARENT
ROOT
ATOM      1  C   UNL     1       2.770   0.432  -0.067  1.00  0.00     0.086 C 
ATOM      2  C   UNL     1       1.314   0.069  -0.083  1.00  0.00     0.089 C 
ATOM      3  C   UNL     1       0.919  -1.213  -0.224  1.00  0.00     0.014 C 
ATOM      4  C   UNL     1      -0.547  -1.546  -0.209  1.00  0.00     0.034 C 
ATOM      5  C   UNL     1      -1.301  -0.410  -0.896  1.00  0.00     0.049 C 
ATOM      6  C   UNL     1      -0.978   0.929  -0.188  1.00  0.00     0.170 C 
ATOM      7  C   UNL     1      -1.718   1.086   1.144  1.00  0.00     0.053 C 
ATOM      8  O   UNL     1       0.391   1.070   0.032  1.00  0.00    -0.496 OA
ENDROOT
TORSDOF 0
