REMARK SMILES CC1(C)O[C@H]2CC(=O)OC[C@@]23[C@@H]1CC(=O)[C@]1(C)[C@@H]3CC[C@@](C)([C@@H](O[C@@H]2O[C@H](CO)[C@@H](O)[C@H](O)[C@H]2O)c2ccoc2)[C@]12O[C@H]2C(=O)O
REMARK SMILES IDX 23 1 21 2 2 3 4 4 12 5 5 6 11 7 13 8 6 9 10 10 18 11 14 12
REMARK SMILES IDX 7 13 9 14 16 15 19 16 15 17 8 18 41 19 20 20 42 21 43 22
REMARK SMILES IDX 1 23 3 24 17 25 22 26 44 27 45 28 46 29 24 31 25 32 26 33
REMARK SMILES IDX 34 34 27 35 32 36 30 37 35 38 28 40 29 41 33 43 31 45 36 47
REMARK SMILES IDX 40 48 37 49 39 50 38 51
REMARK H PARENT 46 30 35 39 29 42 33 44 31 46
ROOT
ATOM      1  C   UNL     1       1.976   0.997  -0.776  1.00  0.00     0.164 C 
ENDROOT
BRANCH   1   2
ATOM      2  C   UNL     1       0.417   0.641  -0.616  1.00  0.00     0.031 C 
ATOM      3  C   UNL     1      -5.910   0.590   0.518  1.00  0.00     0.067 C 
ATOM      4  O   UNL     1      -5.459   0.892   1.823  1.00  0.00    -0.371 OA
ATOM      5  C   UNL     1      -4.721  -0.019  -0.287  1.00  0.00     0.040 C 
ATOM      6  C   UNL     1      -4.124   0.446   1.999  1.00  0.00     0.140 C 
ATOM      7  C   UNL     1      -3.727  -0.508   0.807  1.00  0.00     0.041 C 
ATOM      8  C   UNL     1      -4.065   0.953  -1.341  1.00  0.00     0.083 C 
ATOM      9  C   UNL     1      -4.047  -0.261   3.365  1.00  0.00     0.155 C 
ATOM     10  C   UNL     1      -3.920  -2.024   1.239  1.00  0.00     0.243 C 
ATOM     11  C   UNL     1      -2.243  -0.245   0.317  1.00  0.00     0.018 C 
ATOM     12  C   UNL     1      -2.812   0.368  -1.998  1.00  0.00     0.142 C 
ATOM     13  C   UNL     1      -4.984  -1.430   3.273  1.00  0.00     0.308 C 
ATOM     14  O   UNL     1      -4.930  -2.203   2.163  1.00  0.00    -0.465 OA
ATOM     15  C   UNL     1      -1.949  -0.609  -1.204  1.00  0.00     0.063 C 
ATOM     16  C   UNL     1      -1.065  -0.639   1.210  1.00  0.00     0.006 C 
ATOM     17  O   UNL     1      -2.342   0.937  -2.972  1.00  0.00    -0.299 OA
ATOM     18  O   UNL     1      -5.873  -1.593   4.093  1.00  0.00    -0.252 OA
ATOM     19  C   UNL     1      -0.339  -0.489  -1.444  1.00  0.00     0.127 C 
ATOM     20  C   UNL     1       0.173   0.265   0.897  1.00  0.00     0.013 C 
ATOM     21  O   UNL     1       0.162  -0.640  -2.743  1.00  0.00    -0.352 OA
ATOM     22  C   UNL     1       0.286  -1.794  -1.921  1.00  0.00     0.262 C 
ATOM     23  C   UNL     1      -6.493   1.884  -0.092  1.00  0.00     0.042 C 
ATOM     24  C   UNL     1      -7.079  -0.416   0.613  1.00  0.00     0.042 C 
ATOM     25  C   UNL     1      -2.469  -2.019  -1.611  1.00  0.00     0.023 C 
ATOM     26  C   UNL     1      -0.263   2.011  -0.993  1.00  0.00     0.018 C 
BRANCH  22  27
ATOM     27  C   UNL     1       1.677  -2.174  -1.541  1.00  0.00     0.335 C 
ATOM     28  O   UNL     1       1.929  -2.377  -0.365  1.00  0.00    -0.249 OA
BRANCH  27  29
ATOM     29  O   UNL     1       2.597  -2.485  -2.477  1.00  0.00    -0.479 OA
ATOM     30  H   UNL     1       2.387  -2.466  -3.422  1.00  0.00     0.296 HD
ENDBRANCH  27  29
ENDBRANCH  22  27
ENDBRANCH   1   2
BRANCH   1  31
ATOM     31  O   UNL     1       2.855  -0.019  -0.299  1.00  0.00    -0.341 OA
BRANCH  31  32
ATOM     32  C   UNL     1       3.719   0.426   0.748  1.00  0.00     0.282 C 
ATOM     33  O   UNL     1       4.925   0.918   0.145  1.00  0.00    -0.341 OA
ATOM     34  C   UNL     1       3.932  -0.755   1.762  1.00  0.00     0.202 C 
ATOM     35  C   UNL     1       6.045   0.777   0.997  1.00  0.00     0.178 C 
ATOM     36  C   UNL     1       5.115  -1.609   1.287  1.00  0.00     0.179 C 
ATOM     37  C   UNL     1       6.402  -0.729   1.199  1.00  0.00     0.177 C 
BRANCH  34  38
ATOM     38  O   UNL     1       4.216  -0.264   3.049  1.00  0.00    -0.385 OA
ATOM     39  H   UNL     1       3.363   0.085   3.420  1.00  0.00     0.211 HD
ENDBRANCH  34  38
BRANCH  35  40
ATOM     40  C   UNL     1       7.234   1.577   0.452  1.00  0.00     0.191 C 
BRANCH  40  41
ATOM     41  O   UNL     1       7.611   1.113  -0.819  1.00  0.00    -0.394 OA
ATOM     42  H   UNL     1       8.398   0.520  -0.692  1.00  0.00     0.210 HD
ENDBRANCH  40  41
ENDBRANCH  35  40
BRANCH  36  43
ATOM     43  O   UNL     1       4.805  -2.199   0.043  1.00  0.00    -0.387 OA
ATOM     44  H   UNL     1       4.948  -1.535  -0.679  1.00  0.00     0.211 HD
ENDBRANCH  36  43
BRANCH  37  45
ATOM     45  O   UNL     1       7.216  -0.875   2.338  1.00  0.00    -0.387 OA
ATOM     46  H   UNL     1       6.682  -0.621   3.134  1.00  0.00     0.211 HD
ENDBRANCH  37  45
ENDBRANCH  31  32
ENDBRANCH   1  31
BRANCH   1  47
ATOM     47  C   UNL     1       2.445   1.492  -2.137  1.00  0.00     0.020 A 
ATOM     48  C   UNL     1       2.604   0.804  -3.325  1.00  0.00     0.201 A 
ATOM     49  C   UNL     1       2.831   2.791  -2.410  1.00  0.00     0.048 A 
ATOM     50  O   UNL     1       3.043   1.621  -4.256  1.00  0.00    -0.472 OA
ATOM     51  C   UNL     1       3.188   2.818  -3.739  1.00  0.00     0.195 A 
ENDBRANCH   1  47
TORSDOF 11
