REMARK SMILES C/C=C(\C)C(=O)O[C@H]1C[C@@H]2C[C@H](OC(=O)/C=C(\C)C(=O)OCC)C[C@H]1N2C
REMARK SMILES IDX 14 1 15 2 13 3 12 4 8 5 9 6 25 7 10 8 24 9 26 10 11 11 27 12
REMARK SMILES IDX 7 13 5 14 6 15 3 16 2 17 1 18 4 19 16 20 17 21 18 22 19 23
REMARK SMILES IDX 20 24 21 25 22 26 23 27
REMARK H PARENT
ROOT
ATOM      1  C   UNL     1      -3.010  -1.032  -0.363  1.00  0.00     0.331 C 
ATOM      2  O   UNL     1      -3.021  -2.245  -0.231  1.00  0.00    -0.247 OA
ENDROOT
BRANCH   1   3
ATOM      3  O   UNL     1      -1.827  -0.378  -0.538  1.00  0.00    -0.459 OA
BRANCH   3   4
ATOM      4  C   UNL     1      -0.579  -0.985  -0.542  1.00  0.00     0.180 C 
ATOM      5  C   UNL     1       2.567   0.204  -0.251  1.00  0.00     0.195 C 
ATOM      6  C   UNL     1       2.628  -0.236  -1.710  1.00  0.00     0.066 C 
ATOM      7  C   UNL     1       1.772  -0.931   0.460  1.00  0.00     0.101 C 
ATOM      8  C   UNL     1       1.619  -1.377  -1.774  1.00  0.00     0.064 C 
ATOM      9  C   UNL     1       0.276  -0.515   0.650  1.00  0.00     0.068 C 
ATOM     10  N   UNL     1       1.790  -2.079  -0.473  1.00  0.00    -0.296 NA
ATOM     11  C   UNL     1       0.160  -0.798  -1.876  1.00  0.00     0.064 C 
ATOM     12  C   UNL     1       3.013  -2.893  -0.368  1.00  0.00     0.106 C 
BRANCH   5  13
ATOM     13  O   UNL     1       3.855   0.271   0.260  1.00  0.00    -0.457 OA
BRANCH  13  14
ATOM     14  C   UNL     1       4.442   1.367   0.809  1.00  0.00     0.333 C 
ATOM     15  O   UNL     1       3.864   2.446   0.811  1.00  0.00    -0.247 OA
BRANCH  14  16
ATOM     16  C   UNL     1       5.796   1.235   1.417  1.00  0.00     0.030 C 
ATOM     17  C   UNL     1       6.404   2.315   1.966  1.00  0.00    -0.020 C 
ATOM     18  C   UNL     1       7.761   2.283   2.609  1.00  0.00     0.036 C 
ATOM     19  C   UNL     1       6.436  -0.136   1.397  1.00  0.00     0.052 C 
ENDBRANCH  14  16
ENDBRANCH  13  14
ENDBRANCH   5  13
ENDBRANCH   3   4
ENDBRANCH   1   3
BRANCH   1  20
ATOM     20  C   UNL     1      -4.268  -0.233  -0.318  1.00  0.00     0.104 C 
ATOM     21  C   UNL     1      -5.542  -0.671  -0.094  1.00  0.00     0.041 C 
ATOM     22  C   UNL     1      -5.937  -2.114   0.162  1.00  0.00     0.052 C 
BRANCH  21  23
ATOM     23  C   UNL     1      -6.663   0.317  -0.082  1.00  0.00     0.333 C 
ATOM     24  O   UNL     1      -7.799  -0.068   0.162  1.00  0.00    -0.247 OA
BRANCH  23  25
ATOM     25  O   UNL     1      -6.428   1.637  -0.321  1.00  0.00    -0.463 OA
BRANCH  25  26
ATOM     26  C   UNL     1      -7.398   2.625  -0.350  1.00  0.00     0.230 C 
ATOM     27  C   UNL     1      -8.357   2.445  -1.528  1.00  0.00     0.049 C 
ENDBRANCH  25  26
ENDBRANCH  23  25
ENDBRANCH  21  23
ENDBRANCH   1  20
TORSDOF 9
