REMARK SMILES COC(=O)[C@@H]1O[C@@H](O[C@@H]2CC[C@@]3(C)[C@H]4CC[C@@]56OC[C@]7(CC[C@@](C)(CO)C[C@H]75)[C@H](O)C[C@@]6(C)[C@]4(C)CC[C@H]3C2(C)C)[C@H](O[C@H]2O[C@H](CO)[C@H](O)[C@@H](O)[C@@H]2O)[C@@H](O)[C@@H]1O
REMARK SMILES IDX 5 1 6 2 7 3 42 4 55 5 57 6 3 7 4 8 2 9 1 10 58 11 8 13 9 14
REMARK SMILES IDX 10 15 39 16 11 17 38 18 12 19 37 20 14 21 36 22 34 23 15 24
REMARK SMILES IDX 32 25 16 26 31 27 17 28 29 29 18 30 28 31 20 32 19 33 27 34
REMARK SMILES IDX 21 35 23 36 22 37 40 38 41 39 13 40 35 41 33 42 24 43 30 44
REMARK SMILES IDX 25 46 26 47 56 49 43 51 44 52 45 53 53 54 46 55 51 56 49 57
REMARK SMILES IDX 54 58 47 60 48 61 52 63 50 65
REMARK H PARENT 58 12 30 45 26 48 56 50 54 59 48 62 52 64 50 66
ROOT
ATOM      1  C   UNL     1      10.828   7.626  -0.454  1.00  0.00     0.262 C 
ATOM      2  O   UNL     1       9.565   6.910  -0.254  1.00  0.00    -0.332 OA
ATOM      3  C   UNL     1       9.614   5.446  -0.499  1.00  0.00     0.283 C 
ATOM      4  C   UNL     1      11.108   4.938  -0.996  1.00  0.00     0.209 C 
ATOM      5  C   UNL     1      12.075   5.428   0.105  1.00  0.00     0.180 C 
ATOM      6  C   UNL     1      12.073   6.946   0.157  1.00  0.00     0.186 C 
ENDROOT
BRANCH   1   7
ATOM      7  C   UNL     1      10.976   9.150  -0.093  1.00  0.00     0.337 C 
ATOM      8  O   UNL     1      10.004   9.843   0.163  1.00  0.00    -0.249 OA
BRANCH   7   9
ATOM      9  O   UNL     1      12.270   9.667   0.000  1.00  0.00    -0.467 OA
ATOM     10  C   UNL     1      12.927  11.015  -0.000  1.00  0.00     0.282 C 
ENDBRANCH   7   9
ENDBRANCH   1   7
BRANCH   6  11
ATOM     11  O   UNL     1      12.371   7.368   1.467  1.00  0.00    -0.387 OA
ATOM     12  H   UNL     1      13.341   7.602   1.479  1.00  0.00     0.211 HD
ENDBRANCH   6  11
BRANCH   3  13
ATOM     13  O   UNL     1       8.498   4.915  -1.366  1.00  0.00    -0.346 OA
BRANCH  13  14
ATOM     14  C   UNL     1       7.216   4.203  -0.875  1.00  0.00     0.127 C 
ATOM     15  C   UNL     1       6.489   5.189  -0.092  1.00  0.00     0.033 C 
ATOM     16  C   UNL     1       7.089   2.772   0.000  1.00  0.00    -0.006 C 
ATOM     17  C   UNL     1       5.158   4.634   0.375  1.00  0.00     0.010 C 
ATOM     18  C   UNL     1       5.650   2.420   0.878  1.00  0.00     0.003 C 
ATOM     19  C   UNL     1       4.505   3.044   0.000  1.00  0.00    -0.026 C 
ATOM     20  C   UNL     1       5.283   0.901   1.391  1.00  0.00     0.005 C 
ATOM     21  C   UNL     1       2.941   2.375   0.702  1.00  0.00     0.002 C 
ATOM     22  C   UNL     1       3.898   0.606   1.995  1.00  0.00     0.008 C 
ATOM     23  C   UNL     1       2.878   0.882   0.748  1.00  0.00    -0.021 C 
ATOM     24  C   UNL     1       1.251   2.778   0.736  1.00  0.00     0.008 C 
ATOM     25  C   UNL     1       1.608   0.332   0.000  1.00  0.00     0.005 C 
ATOM     26  C   UNL     1       0.513   1.919   1.728  1.00  0.00     0.037 C 
ATOM     27  C   UNL     1       0.817   0.138  -1.430  1.00  0.00     0.042 C 
ATOM     28  C   UNL     1       0.368   0.550   1.076  1.00  0.00     0.078 C 
ATOM     29  C   UNL     1      -0.250  -1.030  -1.253  1.00  0.00     0.124 C 
ATOM     30  O   UNL     1       0.408  -0.491   1.995  1.00  0.00    -0.373 OA
ATOM     31  C   UNL     1      -1.099   0.505   0.436  1.00  0.00     0.033 C 
ATOM     32  C   UNL     1      -1.077  -0.944   0.095  1.00  0.00     0.025 C 
ATOM     33  C   UNL     1      -0.411  -1.490   1.423  1.00  0.00     0.171 C 
ATOM     34  C   UNL     1      -2.453   0.810   1.141  1.00  0.00     0.016 C 
ATOM     35  C   UNL     1      -2.482  -1.565  -0.124  1.00  0.00     0.013 C 
ATOM     36  C   UNL     1      -3.630   0.750   0.000  1.00  0.00    -0.009 C 
ATOM     37  C   UNL     1      -3.336  -0.531  -0.931  1.00  0.00     0.010 C 
ATOM     38  C   UNL     1       8.585   2.877   0.000  1.00  0.00     0.014 C 
ATOM     39  C   UNL     1       7.452   1.317  -0.000  1.00  0.00     0.014 C 
ATOM     40  C   UNL     1       3.292   3.925   0.000  1.00  0.00     0.012 C 
ATOM     41  C   UNL     1       2.821  -0.550   0.000  1.00  0.00     0.012 C 
ATOM     42  C   UNL     1       2.821  -0.550   0.000  1.00  0.00     0.015 C 
ATOM     43  C   UNL     1      -4.143   2.159   0.000  1.00  0.00     0.014 C 
BRANCH  29  44
ATOM     44  O   UNL     1       0.240  -2.331  -1.500  1.00  0.00    -0.392 OA
ATOM     45  H   UNL     1      -0.131  -2.981  -0.837  1.00  0.00     0.210 HD
ENDBRANCH  29  44
BRANCH  36  46
ATOM     46  C   UNL     1      -5.082   0.203   0.568  1.00  0.00     0.162 C 
BRANCH  46  47
ATOM     47  O   UNL     1      -5.962   1.070   1.286  1.00  0.00    -0.396 OA
ATOM     48  H   UNL     1      -6.558   1.522   0.612  1.00  0.00     0.210 HD
ENDBRANCH  46  47
ENDBRANCH  36  46
ENDBRANCH  13  14
ENDBRANCH   3  13
BRANCH   5  49
ATOM     49  O   UNL     1      13.405   5.063  -0.051  1.00  0.00    -0.387 OA
ATOM     50  H   UNL     1      13.687   5.326  -0.967  1.00  0.00     0.211 HD
ENDBRANCH   5  49
BRANCH   4  51
ATOM     51  O   UNL     1      11.161   3.535  -1.353  1.00  0.00    -0.338 OA
BRANCH  51  52
ATOM     52  C   UNL     1      12.169   2.515  -1.099  1.00  0.00     0.282 C 
ATOM     53  O   UNL     1      13.557   2.897  -1.152  1.00  0.00    -0.341 OA
ATOM     54  C   UNL     1      11.797   1.468   0.023  1.00  0.00     0.202 C 
ATOM     55  C   UNL     1      14.328   2.451  -0.021  1.00  0.00     0.178 C 
ATOM     56  C   UNL     1      12.854   0.364  -0.019  1.00  0.00     0.179 C 
ATOM     57  C   UNL     1      14.244   0.921   0.265  1.00  0.00     0.177 C 
BRANCH  54  58
ATOM     58  O   UNL     1      10.548   0.863  -0.194  1.00  0.00    -0.385 OA
ATOM     59  H   UNL     1      10.508   0.545  -1.133  1.00  0.00     0.211 HD
ENDBRANCH  54  58
BRANCH  55  60
ATOM     60  C   UNL     1      15.810   2.862  -0.158  1.00  0.00     0.191 C 
BRANCH  60  61
ATOM     61  O   UNL     1      15.945   4.250  -0.249  1.00  0.00    -0.394 OA
ATOM     62  H   UNL     1      16.920   4.434  -0.211  1.00  0.00     0.210 HD
ENDBRANCH  60  61
ENDBRANCH  55  60
BRANCH  56  63
ATOM     63  O   UNL     1      12.564  -0.680   0.875  1.00  0.00    -0.387 OA
ATOM     64  H   UNL     1      12.001  -1.336   0.386  1.00  0.00     0.211 HD
ENDBRANCH  56  63
BRANCH  57  65
ATOM     65  O   UNL     1      15.186   0.183  -0.473  1.00  0.00    -0.387 OA
ATOM     66  H   UNL     1      15.333  -0.665   0.025  1.00  0.00     0.211 HD
ENDBRANCH  57  65
ENDBRANCH  51  52
ENDBRANCH   4  51
TORSDOF 16
