REMARK SMILES COc1ccc([C@@H]2CC(=O)Oc3ccc4c(C)cc(=O)oc4c32)c(OC)c1
REMARK SMILES IDX 3 1 4 2 5 3 6 4 24 5 27 6 2 7 1 8 25 9 26 10 7 11 8 12 23 13
REMARK SMILES IDX 9 14 22 15 12 16 10 17 11 18 21 19 15 20 13 21 19 22 14 23
REMARK SMILES IDX 16 24 18 25 20 26 17 27
REMARK H PARENT
ROOT
ATOM      1  C   UNL     1       3.438   0.887   0.228  1.00  0.00     0.122 A 
ATOM      2  C   UNL     1       2.682   1.236  -0.903  1.00  0.00     0.047 A 
ATOM      3  C   UNL     1       1.588   0.462  -1.286  1.00  0.00     0.012 A 
ATOM      4  C   UNL     1       1.214  -0.681  -0.553  1.00  0.00     0.003 A 
ATOM      5  C   UNL     1       1.970  -1.038   0.591  1.00  0.00     0.126 A 
ATOM      6  C   UNL     1       3.076  -0.245   0.965  1.00  0.00     0.093 A 
ENDROOT
BRANCH   1   7
ATOM      7  O   UNL     1       4.512   1.609   0.639  1.00  0.00    -0.497 OA
ATOM      8  C   UNL     1       4.998   2.747   0.028  1.00  0.00     0.278 C 
ENDBRANCH   1   7
BRANCH   5   9
ATOM      9  O   UNL     1       1.613  -2.141   1.303  1.00  0.00    -0.496 OA
ATOM     10  C   UNL     1       2.250  -2.625   2.427  1.00  0.00     0.278 C 
ENDBRANCH   5   9
BRANCH   4  11
ATOM     11  C   UNL     1       0.007  -1.512  -0.984  1.00  0.00     0.072 C 
ATOM     12  C   UNL     1       0.196  -2.223  -2.337  1.00  0.00     0.136 C 
ATOM     13  C   UNL     1      -1.249  -0.649  -1.018  1.00  0.00     0.047 A 
ATOM     14  C   UNL     1      -0.001  -1.262  -3.464  1.00  0.00     0.312 C 
ATOM     15  C   UNL     1      -1.915  -0.297   0.171  1.00  0.00     0.146 A 
ATOM     16  C   UNL     1      -1.729  -0.164  -2.261  1.00  0.00     0.138 A 
ATOM     17  O   UNL     1       0.786  -1.211  -4.395  1.00  0.00    -0.252 OA
ATOM     18  O   UNL     1      -1.070  -0.431  -3.422  1.00  0.00    -0.426 OA
ATOM     19  O   UNL     1      -1.448  -0.745   1.333  1.00  0.00    -0.422 OA
ATOM     20  C   UNL     1      -3.075   0.524   0.131  1.00  0.00     0.021 A 
ATOM     21  C   UNL     1      -2.865   0.641  -2.297  1.00  0.00     0.048 A 
ATOM     22  C   UNL     1      -2.017  -0.465   2.497  1.00  0.00     0.336 A 
ATOM     23  C   UNL     1      -3.537   0.981  -1.122  1.00  0.00     0.016 A 
ATOM     24  C   UNL     1      -3.706   0.843   1.365  1.00  0.00    -0.033 A 
ATOM     25  C   UNL     1      -3.157   0.334   2.549  1.00  0.00     0.098 A 
ATOM     26  O   UNL     1      -1.537  -0.909   3.523  1.00  0.00    -0.246 OA
ATOM     27  C   UNL     1      -4.939   1.705   1.508  1.00  0.00     0.045 C 
ENDBRANCH   4  11
TORSDOF 3
