REMARK SMILES CCCCCC(=O)N[C@@H](Cc1ccc(O)cc1)C(=O)N1[C@H](C(=O)N[C@H](C=O)CCCN=C(N)N)C[C@@H]2CC[C@@H](O)C[C@@H]21
REMARK SMILES IDX 20 1 21 2 35 3 36 4 37 5 38 6 39 7 41 8 42 9 18 10 19 11
REMARK SMILES IDX 9 12 8 13 6 14 7 15 5 17 4 18 3 19 2 20 1 21 10 22 11 23
REMARK SMILES IDX 12 24 17 25 13 26 16 27 14 28 15 29 22 31 23 32 24 33 25 35
REMARK SMILES IDX 26 36 27 37 28 38 29 39 30 40 31 41 32 42 33 43 34 44 40 49
REMARK H PARENT 8 16 15 30 24 34 33 45 33 46 34 47 34 48 40 50
ROOT
ATOM      1  N   UNL     1      -0.049   1.797   0.967  1.00  0.00    -0.326 N 
ATOM      2  C   UNL     1       1.036   2.415   1.757  1.00  0.00     0.175 C 
ATOM      3  C   UNL     1       1.145   1.463   2.937  1.00  0.00     0.041 C 
ATOM      4  C   UNL     1      -0.319   1.204   3.291  1.00  0.00     0.014 C 
ATOM      5  C   UNL     1      -0.578  -0.241   3.726  1.00  0.00     0.008 C 
ATOM      6  C   UNL     1      -2.073  -0.457   4.045  1.00  0.00     0.032 C 
ATOM      7  C   UNL     1      -3.026   0.423   3.184  1.00  0.00     0.116 C 
ATOM      8  C   UNL     1      -2.400   0.687   1.802  1.00  0.00     0.057 C 
ATOM      9  C   UNL     1      -1.102   1.555   1.985  1.00  0.00     0.091 C 
ENDROOT
BRANCH   1  10
ATOM     10  C   UNL     1       0.071   1.459  -0.383  1.00  0.00     0.246 C 
ATOM     11  O   UNL     1       1.073   1.802  -0.989  1.00  0.00    -0.272 OA
BRANCH  10  12
ATOM     12  C   UNL     1      -0.918   0.711  -1.272  1.00  0.00     0.175 C 
BRANCH  12  13
ATOM     13  N   UNL     1      -1.192  -0.629  -0.777  1.00  0.00    -0.344 N 
ATOM     14  C   UNL     1      -1.865  -1.562  -1.510  1.00  0.00     0.220 C 
ATOM     15  O   UNL     1      -2.223  -1.304  -2.648  1.00  0.00    -0.275 OA
ATOM     16  H   UNL     1      -0.785  -0.924   0.121  1.00  0.00     0.164 HD
BRANCH  14  17
ATOM     17  C   UNL     1      -2.136  -2.926  -0.910  1.00  0.00     0.100 C 
BRANCH  17  18
ATOM     18  C   UNL     1      -2.763  -3.973  -1.860  1.00  0.00     0.010 C 
BRANCH  18  19
ATOM     19  C   UNL     1      -4.123  -3.608  -2.499  1.00  0.00     0.000 C 
BRANCH  19  20
ATOM     20  C   UNL     1      -5.245  -3.252  -1.513  1.00  0.00    -0.003 C 
ATOM     21  C   UNL     1      -5.627  -4.409  -0.595  1.00  0.00     0.004 C 
ENDBRANCH  19  20
ENDBRANCH  18  19
ENDBRANCH  17  18
ENDBRANCH  14  17
ENDBRANCH  12  13
BRANCH  12  22
ATOM     22  C   UNL     1      -2.171   1.568  -1.585  1.00  0.00     0.070 C 
BRANCH  22  23
ATOM     23  C   UNL     1      -1.785   2.812  -2.353  1.00  0.00    -0.045 A 
ATOM     24  C   UNL     1      -1.966   4.087  -1.791  1.00  0.00     0.007 A 
ATOM     25  C   UNL     1      -1.232   2.704  -3.642  1.00  0.00     0.007 A 
ATOM     26  C   UNL     1      -1.590   5.231  -2.502  1.00  0.00     0.046 A 
ATOM     27  C   UNL     1      -0.858   3.848  -4.350  1.00  0.00     0.046 A 
ATOM     28  C   UNL     1      -1.032   5.114  -3.784  1.00  0.00     0.115 A 
BRANCH  28  29
ATOM     29  O   UNL     1      -0.660   6.207  -4.480  1.00  0.00    -0.508 OA
ATOM     30  H   UNL     1      -0.759   7.101  -4.123  1.00  0.00     0.293 HD
ENDBRANCH  28  29
ENDBRANCH  22  23
ENDBRANCH  12  22
ENDBRANCH  10  12
ENDBRANCH   1  10
BRANCH   2  31
ATOM     31  C   UNL     1       2.402   2.651   1.117  1.00  0.00     0.243 C 
ATOM     32  O   UNL     1       2.842   3.792   1.086  1.00  0.00    -0.273 OA
ATOM     33  N   UNL     1       3.133   1.616   0.610  1.00  0.00    -0.345 N 
ATOM     34  H   UNL     1       2.720   0.673   0.628  1.00  0.00     0.164 HD
BRANCH  33  35
ATOM     35  C   UNL     1       4.449   1.774   0.003  1.00  0.00     0.145 C 
BRANCH  35  36
ATOM     36  C   UNL     1       4.384   1.389  -1.453  1.00  0.00     0.248 C 
ATOM     37  O   UNL     1       5.374   1.483  -2.161  1.00  0.00    -0.301 OA
ENDBRANCH  35  36
BRANCH  35  38
ATOM     38  C   UNL     1       5.501   0.931   0.762  1.00  0.00     0.034 C 
BRANCH  38  39
ATOM     39  C   UNL     1       5.180  -0.577   0.773  1.00  0.00     0.026 C 
BRANCH  39  40
ATOM     40  C   UNL     1       6.264  -1.381   1.484  1.00  0.00     0.146 C 
BRANCH  40  41
ATOM     41  N   UNL     1       6.074  -2.826   1.599  1.00  0.00    -0.254 NA
ATOM     42  C   UNL     1       5.166  -3.687   1.228  1.00  0.00     0.185 C 
ATOM     43  N   UNL     1       3.975  -3.368   0.513  1.00  0.00    -0.370 N 
ATOM     44  N   UNL     1       5.383  -5.047   1.569  1.00  0.00    -0.370 N 
ATOM     45  H   UNL     1       3.694  -2.443   0.192  1.00  0.00     0.159 HD
ATOM     46  H   UNL     1       3.323  -4.129   0.275  1.00  0.00     0.159 HD
ATOM     47  H   UNL     1       6.228  -5.330   2.086  1.00  0.00     0.159 HD
ATOM     48  H   UNL     1       4.699  -5.770   1.303  1.00  0.00     0.159 HD
ENDBRANCH  40  41
ENDBRANCH  39  40
ENDBRANCH  38  39
ENDBRANCH  35  38
ENDBRANCH  33  35
ENDBRANCH   2  31
BRANCH   7  49
ATOM     49  O   UNL     1      -3.257   1.658   3.817  1.00  0.00    -0.393 OA
ATOM     50  H   UNL     1      -3.852   1.479   4.592  1.00  0.00     0.210 HD
ENDBRANCH   7  49
TORSDOF 18
