REMARK SMILES O=C(N[C@H]1C[C@@H](NC(=O)c2ccccc2)[C@@H](O)[C@H](O)[C@@H]1O)c1ccccc1
REMARK SMILES IDX 4 1 5 2 6 3 16 4 18 5 20 6 3 7 1 8 2 9 22 11 23 12 27 13
REMARK SMILES IDX 24 14 26 15 25 16 21 17 7 19 8 20 9 21 10 23 11 24 15 25
REMARK SMILES IDX 12 26 14 27 13 28 19 29 17 31
REMARK H PARENT 3 10 21 18 7 22 19 30 17 32
ROOT
ATOM      1  C   UNL     1       1.293   0.170   0.913  1.00  0.00     0.116 C 
ATOM      2  C   UNL     1      -0.065   0.915   0.759  1.00  0.00     0.055 C 
ATOM      3  C   UNL     1      -1.252   0.259   1.538  1.00  0.00     0.116 C 
ATOM      4  C   UNL     1      -0.738  -0.792   2.543  1.00  0.00     0.168 C 
ATOM      5  C   UNL     1       0.135  -1.900   1.872  1.00  0.00     0.175 C 
ATOM      6  C   UNL     1       1.054  -1.342   0.735  1.00  0.00     0.168 C 
ENDROOT
BRANCH   1   7
ATOM      7  N   UNL     1       2.249   0.681  -0.064  1.00  0.00    -0.347 N 
ATOM      8  O   UNL     1       3.656   1.484   1.483  1.00  0.00    -0.269 OA
ATOM      9  C   UNL     1       3.407   1.317   0.296  1.00  0.00     0.251 C 
ATOM     10  H   UNL     1       2.008   0.552  -1.054  1.00  0.00     0.164 HD
BRANCH   9  11
ATOM     11  C   UNL     1       4.391   1.840  -0.709  1.00  0.00     0.039 A 
ATOM     12  C   UNL     1       4.246   1.643  -2.102  1.00  0.00     0.014 A 
ATOM     13  C   UNL     1       5.519   2.558  -0.253  1.00  0.00     0.014 A 
ATOM     14  C   UNL     1       5.198   2.150  -2.994  1.00  0.00     0.001 A 
ATOM     15  C   UNL     1       6.462   3.062  -1.152  1.00  0.00     0.001 A 
ATOM     16  C   UNL     1       6.303   2.858  -2.521  1.00  0.00     0.000 A 
ENDBRANCH   9  11
ENDBRANCH   1   7
BRANCH   6  17
ATOM     17  O   UNL     1       2.245  -2.083   0.624  1.00  0.00    -0.388 OA
ATOM     18  H   UNL     1       2.863  -1.773   1.337  1.00  0.00     0.211 HD
ENDBRANCH   6  17
BRANCH   3  19
ATOM     19  N   UNL     1      -2.217  -0.343   0.617  1.00  0.00    -0.347 N 
ATOM     20  C   UNL     1      -3.522   0.072   0.547  1.00  0.00     0.251 C 
ATOM     21  O   UNL     1      -3.898   0.991   1.263  1.00  0.00    -0.269 OA
ATOM     22  H   UNL     1      -1.882  -1.108   0.019  1.00  0.00     0.164 HD
BRANCH  20  23
ATOM     23  C   UNL     1      -4.530  -0.556  -0.371  1.00  0.00     0.039 A 
ATOM     24  C   UNL     1      -4.228  -1.642  -1.223  1.00  0.00     0.014 A 
ATOM     25  C   UNL     1      -5.849  -0.048  -0.385  1.00  0.00     0.014 A 
ATOM     26  C   UNL     1      -5.214  -2.190  -2.053  1.00  0.00     0.001 A 
ATOM     27  C   UNL     1      -6.825  -0.601  -1.217  1.00  0.00     0.001 A 
ATOM     28  C   UNL     1      -6.508  -1.672  -2.050  1.00  0.00     0.000 A 
ENDBRANCH  20  23
ENDBRANCH   3  19
BRANCH   5  29
ATOM     29  O   UNL     1       0.874  -2.565   2.868  1.00  0.00    -0.388 OA
ATOM     30  H   UNL     1       1.498  -1.906   3.273  1.00  0.00     0.211 HD
ENDBRANCH   5  29
BRANCH   4  31
ATOM     31  O   UNL     1      -1.775  -1.346   3.313  1.00  0.00    -0.388 OA
ATOM     32  H   UNL     1      -2.334  -1.899   2.708  1.00  0.00     0.211 HD
ENDBRANCH   4  31
TORSDOF 7
