REMARK SMILES CC1(C)CC[C@]2(O)[C@H](O)C[C@]3(C)C(=CC[C@@H]4[C@@]5(C)CC[C@H](O)C(C)(C)[C@@H]5CC[C@]43C)[C@@H]2C1
REMARK SMILES IDX 1 1 2 2 3 3 4 4 5 5 6 6 8 7 10 8 11 9 12 10 13 11 14 12
REMARK SMILES IDX 15 13 16 14 17 15 18 16 19 17 20 18 21 19 23 20 24 21 25 22
REMARK SMILES IDX 26 23 27 24 28 25 29 26 30 27 31 28 32 29 7 30 9 32 22 34
REMARK H PARENT 7 31 9 33 22 35
ROOT
ATOM      1  C   UNL     1       5.626  -0.503  -2.470  1.00  0.00     0.011 C 
ATOM      2  C   UNL     1       5.176  -1.196  -1.160  1.00  0.00    -0.035 C 
ATOM      3  C   UNL     1       5.542  -2.693  -1.282  1.00  0.00     0.011 C 
ATOM      4  C   UNL     1       5.899  -0.602   0.081  1.00  0.00     0.009 C 
ATOM      5  C   UNL     1       5.469   0.852   0.363  1.00  0.00     0.039 C 
ATOM      6  C   UNL     1       3.929   1.044   0.549  1.00  0.00     0.097 C 
ATOM      7  C   UNL     1       3.384   0.510   1.922  1.00  0.00     0.147 C 
ATOM      8  C   UNL     1       1.859   0.801   2.035  1.00  0.00     0.046 C 
ATOM      9  C   UNL     1       0.958   0.189   0.896  1.00  0.00    -0.003 C 
ATOM     10  C   UNL     1       0.922  -1.366   1.099  1.00  0.00     0.017 C 
ATOM     11  C   UNL     1       1.647   0.515  -0.464  1.00  0.00    -0.062 C 
ATOM     12  C   UNL     1       0.950   0.985  -1.527  1.00  0.00    -0.026 C 
ATOM     13  C   UNL     1      -0.543   1.138  -1.591  1.00  0.00     0.032 C 
ATOM     14  C   UNL     1      -1.277   0.447  -0.418  1.00  0.00     0.006 C 
ATOM     15  C   UNL     1      -2.876   0.550  -0.498  1.00  0.00    -0.025 C 
ATOM     16  C   UNL     1      -3.393   2.024  -0.587  1.00  0.00     0.012 C 
ATOM     17  C   UNL     1      -3.355  -0.175  -1.799  1.00  0.00     0.010 C 
ATOM     18  C   UNL     1      -4.876  -0.421  -1.842  1.00  0.00     0.033 C 
ATOM     19  C   UNL     1      -5.302  -1.288  -0.646  1.00  0.00     0.120 C 
ATOM     20  C   UNL     1      -4.967  -0.643   0.742  1.00  0.00    -0.006 C 
ATOM     21  C   UNL     1      -5.226  -1.740   1.817  1.00  0.00     0.014 C 
ATOM     22  C   UNL     1      -5.911   0.536   1.087  1.00  0.00     0.014 C 
ATOM     23  C   UNL     1      -3.430  -0.258   0.743  1.00  0.00     0.003 C 
ATOM     24  C   UNL     1      -2.905   0.386   2.061  1.00  0.00     0.005 C 
ATOM     25  C   UNL     1      -1.384   0.195   2.139  1.00  0.00     0.008 C 
ATOM     26  C   UNL     1      -0.565   0.804   0.948  1.00  0.00    -0.020 C 
ATOM     27  C   UNL     1      -0.522   2.354   1.160  1.00  0.00     0.012 C 
ATOM     28  C   UNL     1       3.178   0.384  -0.641  1.00  0.00     0.050 C 
ATOM     29  C   UNL     1       3.645  -1.070  -0.946  1.00  0.00     0.017 C 
ENDROOT
BRANCH   6  30
ATOM     30  O   UNL     1       3.666   2.430   0.487  1.00  0.00    -0.387 OA
ATOM     31  H   UNL     1       4.180   2.878   1.209  1.00  0.00     0.211 HD
ENDBRANCH   6  30
BRANCH   7  32
ATOM     32  O   UNL     1       3.662  -0.846   2.126  1.00  0.00    -0.390 OA
ATOM     33  H   UNL     1       3.503  -1.031   3.089  1.00  0.00     0.211 HD
ENDBRANCH   7  32
BRANCH  19  34
ATOM     34  O   UNL     1      -6.659  -1.656  -0.743  1.00  0.00    -0.393 OA
ATOM     35  H   UNL     1      -7.187  -0.838  -0.938  1.00  0.00     0.210 HD
ENDBRANCH  19  34
TORSDOF 3
