REMARK SMILES C[C@H]1CC(=O)[C@@H]2[C@@H](CC[C@@H]3C(=O)c4c(O)cccc4C(=O)[C@@H]23)C1
REMARK SMILES IDX 1 1 2 2 3 3 4 4 5 5 6 6 7 7 8 8 9 9 10 10 11 11 12 12 13 13
REMARK SMILES IDX 14 14 16 15 17 16 18 17 19 18 20 19 21 20 22 21 23 22 15 23
REMARK H PARENT 15 24
ROOT
ATOM      1  C   UNL     1       5.300  -0.521   0.657  1.00  0.00     0.008 C 
ATOM      2  C   UNL     1       3.771  -0.467   0.706  1.00  0.00    -0.007 C 
ATOM      3  C   UNL     1       3.261   0.757   1.491  1.00  0.00     0.079 C 
ATOM      4  C   UNL     1       1.746   0.793   1.478  1.00  0.00     0.137 C 
ATOM      5  O   UNL     1       1.164   1.692   2.066  1.00  0.00    -0.299 OA
ATOM      6  C   UNL     1       0.990  -0.246   0.647  1.00  0.00     0.071 C 
ATOM      7  C   UNL     1       1.641  -0.189  -0.753  1.00  0.00     0.000 C 
ATOM      8  C   UNL     1       1.409   1.227  -1.394  1.00  0.00     0.005 C 
ATOM      9  C   UNL     1       0.024   1.851  -1.071  1.00  0.00     0.013 C 
ATOM     10  C   UNL     1      -0.980   0.743  -0.763  1.00  0.00     0.073 C 
ATOM     11  C   UNL     1      -2.422   1.172  -0.601  1.00  0.00     0.171 C 
ATOM     12  O   UNL     1      -2.743   2.332  -0.799  1.00  0.00    -0.294 OA
ATOM     13  C   UNL     1      -3.415   0.118  -0.199  1.00  0.00     0.070 A 
ATOM     14  C   UNL     1      -4.827   0.256  -0.347  1.00  0.00     0.127 A 
ATOM     15  C   UNL     1      -5.667  -0.799   0.028  1.00  0.00     0.047 A 
ATOM     16  C   UNL     1      -5.146  -1.987   0.534  1.00  0.00     0.005 A 
ATOM     17  C   UNL     1      -3.772  -2.140   0.689  1.00  0.00     0.013 A 
ATOM     18  C   UNL     1      -2.899  -1.099   0.342  1.00  0.00     0.032 A 
ATOM     19  C   UNL     1      -1.428  -1.256   0.562  1.00  0.00     0.168 C 
ATOM     20  O   UNL     1      -0.945  -2.355   0.792  1.00  0.00    -0.294 OA
ATOM     21  C   UNL     1      -0.566  -0.007   0.529  1.00  0.00     0.083 C 
ATOM     22  C   UNL     1       3.161  -0.538  -0.721  1.00  0.00     0.008 C 
ENDROOT
BRANCH  14  23
ATOM     23  O   UNL     1      -5.423   1.354  -0.862  1.00  0.00    -0.507 OA
ATOM     24  H   UNL     1      -4.973   2.130  -1.210  1.00  0.00     0.293 HD
ENDBRANCH  14  23
TORSDOF 1
