REMARK SMILES C/C=C(\C(=O)O[C@@H]1Cc2c3c(c4oc(CO)cc(=O)c4c2O)[C@@H]2c4ccnc(N)c4[C@@H]([C@H]4CCc5c(cnc6c5C=C[C@@H](C)N6)C[C@H]4[C@]1(C)O3)[C@@]1(CCC3(CCCC3)C1)Cc1ccc(O)cc1[C@H]2CO)[C@]1(O)C[C@@H]2C[C@H]1C[C@@H]1C[C@@]3(CC[C@H]4CCCC[C@]4(O)C3)[C@H](O)c3cccc2c31
REMARK SMILES IDX 6 1 4 2 5 3 3 4 2 5 1 6 71 7 73 8 76 9 74 10 75 11 72 12
REMARK SMILES IDX 77 14 97 16 98 17 96 18 93 19 78 20 95 21 91 22 94 23 79 24
REMARK SMILES IDX 80 25 81 26 90 27 82 28 88 29 83 30 87 31 84 32 86 33 85 34
REMARK SMILES IDX 92 36 89 38 7 40 8 41 48 42 9 43 50 44 10 45 21 46 11 47
REMARK SMILES IDX 20 48 12 49 18 50 13 51 17 52 19 53 14 54 49 55 47 56 46 58
REMARK SMILES IDX 36 59 35 60 37 61 40 62 38 63 39 64 41 65 45 66 42 67 43 68
REMARK SMILES IDX 44 70 34 71 22 73 23 75 24 76 25 77 30 78 26 79 28 80 27 81
REMARK SMILES IDX 31 82 32 83 33 85 51 87 52 88 59 89 53 90 54 91 55 92 58 93
REMARK SMILES IDX 56 94 57 95 29 97 68 100 69 101 70 102 67 104 66 105 61 106
REMARK SMILES IDX 64 107 62 108 63 109 60 110 65 112 15 114 16 115
REMARK H PARENT 72 13 92 37 89 39 45 69 22 74 29 98 29 99 70 103 65 113 16 116
REMARK Flexibility Score:  344.600
ROOT
ATOM      1  O   UNL     1       0.974   0.392  -1.832  1.00  0.00    -0.454 OA
ENDROOT
BRANCH   1   2
ATOM      2  C   UNL     1       1.872   1.100  -1.111  1.00  0.00     0.337 C 
ATOM      3  O   UNL     1       1.730   1.187   0.100  1.00  0.00    -0.246 OA
BRANCH   2   4
ATOM      4  C   UNL     1       3.116   1.636  -1.768  1.00  0.00     0.065 C 
ATOM      5  C   UNL     1       3.252   1.656  -3.129  1.00  0.00    -0.016 C 
ATOM      6  C   UNL     1       2.212   1.245  -4.127  1.00  0.00     0.036 C 
BRANCH   4   7
ATOM      7  C   UNL     1       4.249   2.086  -0.818  1.00  0.00     0.100 C 
ATOM      8  C   UNL     1       3.847   3.300   0.060  1.00  0.00     0.049 C 
ATOM      9  C   UNL     1       5.616   2.597  -1.450  1.00  0.00     0.027 C 
ATOM     10  C   UNL     1       5.207   3.825   0.550  1.00  0.00     0.023 C 
ATOM     11  C   UNL     1       5.935   3.924  -0.772  1.00  0.00     0.015 C 
BRANCH   7  12
ATOM     12  O   UNL     1       4.538   0.957  -0.007  1.00  0.00    -0.385 OA
ATOM     13  H   UNL     1       3.980   0.954   0.812  1.00  0.00     0.211 HD
ENDBRANCH   7  12
BRANCH   9  14
ATOM     14  C   UNL     1       6.766   1.594  -1.268  1.00  0.00     0.015 CG3
ATOM     15  G   UNL     1       7.560   1.645   0.079  1.00  0.00     0.000 G3
ENDBRANCH   9  14
BRANCH  10  16
ATOM     16  C   UNL     1       5.762   2.856   1.598  1.00  0.00    -0.041 A 
ATOM     17  C   UNL     1       6.789   1.855   1.411  1.00  0.00    -0.036 A 
ATOM     18  C   UNL     1       5.104   2.951   2.842  1.00  0.00     0.004 A 
ATOM     19  C   UNL     1       7.115   1.043   2.539  1.00  0.00    -0.015 A 
ATOM     20  C   UNL     1       7.560   1.645   0.079  1.00  0.00     0.021 CG3
ATOM     21  C   UNL     1       5.429   2.127   3.901  1.00  0.00     0.001 A 
ATOM     22  C   UNL     1       8.177  -0.025   2.512  1.00  0.00     0.151 C 
ATOM     23  C   UNL     1       6.423   1.181   3.752  1.00  0.00     0.007 A 
ATOM     24  C   UNL     1       8.453   0.364   0.061  1.00  0.00     0.018 C 
ATOM     25  C   UNL     1       9.232   0.109   1.368  1.00  0.00     0.004 C 
ATOM     26  C   UNL     1      10.257   1.286   1.671  1.00  0.00     0.010 C 
ATOM     27  C   UNL     1      10.020  -1.234   1.312  1.00  0.00     0.045 C 
ATOM     28  C   UNL     1      11.751   0.968   1.371  1.00  0.00     0.007 C 
ATOM     29  C   UNL     1      11.236  -1.285   0.340  1.00  0.00     0.068 C 
ATOM     30  C   UNL     1      11.850   0.116   0.108  1.00  0.00     0.021 C 
ATOM     31  C   UNL     1      10.928  -1.882  -1.081  1.00  0.00     0.035 C 
ATOM     32  C   UNL     1      13.278  -0.041  -0.491  1.00  0.00     0.006 C 
ATOM     33  C   UNL     1      11.989  -1.475  -2.155  1.00  0.00     0.003 C 
ATOM     34  C   UNL     1      13.359  -1.224  -1.508  1.00  0.00     0.001 C 
ATOM     35  G   UNL     1       6.766   1.594  -1.268  1.00  0.00     0.000 G3
BRANCH  22  36
ATOM     36  O   UNL     1       7.543  -1.285   2.528  1.00  0.00    -0.388 OA
ATOM     37  H   UNL     1       6.896  -1.322   1.777  1.00  0.00     0.211 HD
ENDBRANCH  22  36
BRANCH  29  38
ATOM     38  O   UNL     1      12.208  -2.097   0.970  1.00  0.00    -0.390 OA
ATOM     39  H   UNL     1      11.820  -3.002   1.106  1.00  0.00     0.211 HD
ENDBRANCH  29  38
ENDBRANCH  10  16
ENDBRANCH   4   7
ENDBRANCH   2   4
ENDBRANCH   1   2
BRANCH   1  40
ATOM     40  C   UNL     1       0.024  -0.470  -1.312  1.00  0.00     0.225 C 
ATOM     41  C   UNL     1       0.579  -1.879  -1.424  1.00  0.00     0.093 C 
ATOM     42  C   UNL     1      -1.332  -0.362  -2.103  1.00  0.00     0.147 C 
ATOM     43  C   UNL     1      -0.437  -2.826  -0.855  1.00  0.00     0.041 A 
ATOM     44  O   UNL     1      -2.074  -1.532  -1.981  1.00  0.00    -0.482 OA
ATOM     45  C   UNL     1      -1.763  -2.631  -1.248  1.00  0.00     0.135 A 
ATOM     46  C   UNL     1      -0.066  -3.874  -0.009  1.00  0.00     0.137 A 
ATOM     47  C   UNL     1      -2.787  -3.527  -0.858  1.00  0.00     0.046 A 
ATOM     48  C   UNL     1      -1.062  -4.776   0.450  1.00  0.00     0.107 A 
ATOM     49  C   UNL     1      -2.419  -4.600   0.022  1.00  0.00     0.149 A 
ATOM     50  C   UNL     1      -0.789  -5.896   1.292  1.00  0.00     0.196 A 
ATOM     51  O   UNL     1      -3.343  -5.453   0.447  1.00  0.00    -0.458 OA
ATOM     52  C   UNL     1      -1.810  -6.749   1.669  1.00  0.00     0.097 A 
ATOM     53  O   UNL     1       0.329  -6.144   1.701  1.00  0.00    -0.289 OA
ATOM     54  C   UNL     1      -3.102  -6.496   1.232  1.00  0.00     0.133 A 
ATOM     55  C   UNL     1      -1.058  -0.224  -3.622  1.00  0.00     0.061 C 
BRANCH  42  56
ATOM     56  C   UNL     1      -2.220   0.880  -1.636  1.00  0.00     0.045 CG0
ATOM     57  G   UNL     1      -3.281   0.680  -0.468  1.00  0.00     0.000 G0
BRANCH  56  58
ATOM     58  C   UNL     1      -1.359   2.172  -1.396  1.00  0.00     0.045 C 
BRANCH  58  59
ATOM     59  C   UNL     1      -2.212   3.343  -0.976  1.00  0.00    -0.025 A 
ATOM     60  C   UNL     1      -2.794   3.424   0.324  1.00  0.00    -0.032 A 
ATOM     61  C   UNL     1      -2.490   4.329  -1.924  1.00  0.00     0.117 A 
ATOM     62  C   UNL     1      -3.698   4.503   0.591  1.00  0.00     0.020 A 
ATOM     63  N   UNL     1      -3.342   5.333  -1.633  1.00  0.00    -0.239 NA
ATOM     64  C   UNL     1      -3.953   5.440  -0.430  1.00  0.00     0.133 A 
ATOM     65  C   UNL     1      -4.405   4.703   1.887  1.00  0.00     0.010 C 
ATOM     66  N   UNL     1      -4.862   6.512  -0.230  1.00  0.00    -0.364 N 
ATOM     67  C   UNL     1      -5.253   5.725   2.076  1.00  0.00    -0.002 C 
ATOM     68  C   UNL     1      -5.568   6.753   1.013  1.00  0.00     0.100 C 
ATOM     69  H   UNL     1      -5.037   7.156  -1.018  1.00  0.00     0.162 HD
ATOM     70  C   UNL     1      -5.213   8.149   1.522  1.00  0.00     0.035 C 
BRANCH  60  71
ATOM     71  C   UNL     1      -2.448   2.335   1.366  1.00  0.00     0.037 CG1
ATOM     72  G   UNL     1      -2.648   0.846   0.935  1.00  0.00     0.000 G1
ENDBRANCH  60  71
ENDBRANCH  58  59
ENDBRANCH  56  58
ENDBRANCH  42  56
BRANCH  46  73
ATOM     73  O   UNL     1       1.250  -3.969   0.308  1.00  0.00    -0.507 OA
ATOM     74  H   UNL     1       1.686  -4.617   0.867  1.00  0.00     0.293 HD
ENDBRANCH  46  73
BRANCH  47  75
ATOM     75  C   UNL     1      -4.210  -3.398  -1.509  1.00  0.00     0.067 C 
BRANCH  75  76
ATOM     76  C   UNL     1      -4.584  -2.184  -2.437  1.00  0.00    -0.031 A 
ATOM     77  C   UNL     1      -4.794  -2.460  -3.811  1.00  0.00     0.025 A 
ATOM     78  C   UNL     1      -4.759  -0.828  -2.000  1.00  0.00     0.002 A 
ATOM     79  C   UNL     1      -5.197  -1.473  -4.691  1.00  0.00     0.114 A 
ATOM     80  C   UNL     1      -5.241   0.138  -2.951  1.00  0.00     0.127 A 
ATOM     81  N   UNL     1      -5.427  -0.225  -4.242  1.00  0.00    -0.239 NA
BRANCH  78  82
ATOM     82  C   UNL     1      -4.364  -0.474  -0.573  1.00  0.00     0.033 C 
BRANCH  82  83
ATOM     83  C   UNL     1      -3.281   0.680  -0.468  1.00  0.00     0.005 CG0
ATOM     84  G   UNL     1      -2.220   0.880  -1.636  1.00  0.00     0.000 G0
BRANCH  83  85
ATOM     85  C   UNL     1      -2.648   0.846   0.935  1.00  0.00     0.009 CG1
ATOM     86  G   UNL     1      -2.448   2.335   1.366  1.00  0.00     0.000 G1
ENDBRANCH  83  85
ENDBRANCH  82  83
BRANCH  82  87
ATOM     87  C   UNL     1      -5.580  -0.505   0.484  1.00  0.00    -0.018 CG2
ATOM     88  C   UNL     1      -7.024  -0.744  -0.104  1.00  0.00     0.008 C 
ATOM     89  C   UNL     1      -5.797   0.903   1.183  1.00  0.00     0.015 C 
ATOM     90  C   UNL     1      -7.816   0.540   0.037  1.00  0.00     0.007 C 
ATOM     91  C   UNL     1      -7.295   1.133   1.354  1.00  0.00    -0.029 C 
ATOM     92  C   UNL     1      -7.899   0.497   2.621  1.00  0.00     0.007 C 
ATOM     93  C   UNL     1      -7.699   2.607   1.524  1.00  0.00     0.007 C 
ATOM     94  C   UNL     1      -9.127   1.369   2.972  1.00  0.00     0.001 C 
ATOM     95  C   UNL     1      -9.158   2.479   1.922  1.00  0.00     0.001 C 
ATOM     96  G   UNL     1      -5.230  -1.634   1.545  1.00  0.00     0.000 G2
ENDBRANCH  82  87
ENDBRANCH  78  82
BRANCH  80  97
ATOM     97  N   UNL     1      -5.538   1.489  -2.633  1.00  0.00    -0.383 N 
ATOM     98  H   UNL     1      -5.574   1.855  -1.684  1.00  0.00     0.158 HD
ATOM     99  H   UNL     1      -5.843   2.129  -3.380  1.00  0.00     0.158 HD
ENDBRANCH  80  97
ENDBRANCH  75  76
BRANCH  75 100
ATOM    100  C   UNL     1      -5.471  -4.181  -0.921  1.00  0.00     0.057 C 
BRANCH 100 101
ATOM    101  C   UNL     1      -6.585  -4.335  -2.019  1.00  0.00     0.165 C 
BRANCH 101 102
ATOM    102  O   UNL     1      -7.275  -3.145  -2.266  1.00  0.00    -0.396 OA
ATOM    103  H   UNL     1      -8.063  -3.140  -1.663  1.00  0.00     0.210 HD
ENDBRANCH 101 102
ENDBRANCH 100 101
BRANCH 100 104
ATOM    104  C   UNL     1      -6.115  -3.993   0.501  1.00  0.00    -0.035 A 
ATOM    105  C   UNL     1      -6.948  -5.109   0.821  1.00  0.00     0.050 A 
ATOM    106  C   UNL     1      -6.015  -2.959   1.530  1.00  0.00    -0.044 A 
ATOM    107  C   UNL     1      -7.652  -5.232   2.015  1.00  0.00     0.115 A 
ATOM    108  C   UNL     1      -6.751  -3.143   2.735  1.00  0.00     0.008 A 
ATOM    109  C   UNL     1      -7.550  -4.246   2.967  1.00  0.00     0.046 A 
BRANCH 106 110
ATOM    110  C   UNL     1      -5.230  -1.634   1.545  1.00  0.00     0.043 CG2
ATOM    111  G   UNL     1      -5.580  -0.505   0.484  1.00  0.00     0.000 G2
ENDBRANCH 106 110
BRANCH 107 112
ATOM    112  O   UNL     1      -8.426  -6.310   2.257  1.00  0.00    -0.508 OA
ATOM    113  H   UNL     1      -8.526  -7.028   1.616  1.00  0.00     0.293 HD
ENDBRANCH 107 112
ENDBRANCH 100 104
ENDBRANCH  75 100
ENDBRANCH  47  75
BRANCH  54 114
ATOM    114  C   UNL     1      -4.226  -7.393   1.649  1.00  0.00     0.231 C 
BRANCH 114 115
ATOM    115  O   UNL     1      -5.092  -6.704   2.505  1.00  0.00    -0.388 OA
ATOM    116  H   UNL     1      -4.650  -6.682   3.395  1.00  0.00     0.211 HD
ENDBRANCH 114 115
ENDBRANCH  54 114
ENDBRANCH   1  40
TORSDOF 14
