REMARK SMILES CCN1C[C@]2(COC(=O)c3ccccc3N3C(=O)C[C@@H](C)C3=O)CC[C@H](OC)[C@@]34[C@@H]5C[C@H]6[C@H](O)[C@@H]5[C@](O)(C[C@@H]6OC(C)=O)[C@](O)([C@@H](OC)[C@H]23)[C@@H]14
REMARK SMILES IDX 6 1 5 2 3 3 4 4 50 5 44 6 29 7 24 8 49 9 36 10 46 11 26 12
REMARK SMILES IDX 30 13 25 14 38 15 35 16 31 17 39 18 33 19 32 20 2 21 1 22
REMARK SMILES IDX 45 23 37 25 47 27 48 28 27 29 28 30 40 31 41 32 43 33 42 34
REMARK SMILES IDX 34 35 7 37 8 38 9 39 10 40 11 41 15 42 12 43 14 44 13 45
REMARK SMILES IDX 16 46 17 47 22 48 18 49 19 50 20 51 23 52 21 53
REMARK H PARENT 45 24 37 26 34 36
ROOT
ATOM      1  C   UNL     1       0.696  -3.475  -0.704  1.00  0.00     0.242 C 
ENDROOT
BRANCH   1   2
ATOM      2  C   UNL     1      -0.153  -2.192  -0.298  1.00  0.00     0.024 C 
ATOM      3  N   UNL     1      -1.280   0.051  -0.720  1.00  0.00    -0.296 NA
ATOM      4  C   UNL     1      -0.713  -1.210  -1.374  1.00  0.00     0.095 C 
ATOM      5  C   UNL     1      -0.659   0.534   0.621  1.00  0.00     0.103 C 
ATOM      6  C   UNL     1       0.863   0.927   0.997  1.00  0.00     0.136 C 
ATOM      7  C   UNL     1      -0.703  -0.399   1.631  1.00  0.00     0.025 C 
ATOM      8  C   UNL     1      -1.417  -2.996   0.274  1.00  0.00     0.015 C 
ATOM      9  C   UNL     1       0.523  -1.198   0.765  1.00  0.00     0.043 C 
ATOM     10  C   UNL     1       0.677   2.348   1.639  1.00  0.00     0.107 C 
ATOM     11  C   UNL     1       1.404   0.070  -0.032  1.00  0.00     0.158 C 
ATOM     12  C   UNL     1      -2.011  -1.122   1.560  1.00  0.00     0.126 C 
ATOM     13  C   UNL     1      -0.809   0.662   3.011  1.00  0.00     0.009 C 
ATOM     14  C   UNL     1      -1.863  -2.591   1.616  1.00  0.00     0.033 C 
ATOM     15  C   UNL     1      -0.284   3.301   0.950  1.00  0.00     0.084 C 
ATOM     16  C   UNL     1       0.147   1.974   3.098  1.00  0.00     0.057 C 
ATOM     17  C   UNL     1      -2.178   1.447   3.188  1.00  0.00     0.015 C 
ATOM     18  C   UNL     1      -1.756   3.398   1.440  1.00  0.00     0.185 C 
ATOM     19  C   UNL     1      -0.654   3.116   3.740  1.00  0.00     0.127 C 
ATOM     20  C   UNL     1      -1.940   2.972   2.949  1.00  0.00     0.060 C 
BRANCH   3  21
ATOM     21  C   UNL     1      -3.350  -0.424   0.000  1.00  0.00     0.081 C 
ATOM     22  C   UNL     1      -4.848  -0.343   0.000  1.00  0.00     0.021 C 
ENDBRANCH   3  21
BRANCH   6  23
ATOM     23  O   UNL     1       1.644   0.338   2.137  1.00  0.00    -0.382 OA
ATOM     24  H   UNL     1       2.530   0.769   2.272  1.00  0.00     0.211 HD
ENDBRANCH   6  23
BRANCH  10  25
ATOM     25  O   UNL     1       1.905   3.026   1.784  1.00  0.00    -0.386 OA
ATOM     26  H   UNL     1       2.222   3.289   0.881  1.00  0.00     0.211 HD
ENDBRANCH  10  25
BRANCH  11  27
ATOM     27  O   UNL     1       2.391   1.004  -0.000  1.00  0.00    -0.378 OA
ATOM     28  C   UNL     1       3.817   0.540   0.000  1.00  0.00     0.195 C 
ENDBRANCH  11  27
BRANCH  12  29
ATOM     29  O   UNL     1      -2.942  -0.482   0.000  1.00  0.00    -0.381 OA
ATOM     30  C   UNL     1      -4.441  -0.534   0.000  1.00  0.00     0.195 C 
ENDBRANCH  12  29
BRANCH  18  31
ATOM     31  O   UNL     1      -2.107   4.678   1.240  1.00  0.00    -0.462 OA
BRANCH  31  32
ATOM     32  C   UNL     1      -2.213   5.221   0.000  1.00  0.00     0.302 C 
ATOM     33  O   UNL     1      -2.215   4.562  -1.032  1.00  0.00    -0.253 OA
ATOM     34  C   UNL     1      -2.385   6.711   0.000  1.00  0.00     0.139 C 
ENDBRANCH  31  32
ENDBRANCH  18  31
BRANCH  19  35
ATOM     35  O   UNL     1      -0.033   4.368   3.610  1.00  0.00    -0.392 OA
ATOM     36  H   UNL     1      -0.646   5.023   4.032  1.00  0.00     0.210 HD
ENDBRANCH  19  35
ENDBRANCH   1   2
BRANCH   1  37
ATOM     37  O   UNL     1       1.974  -3.669  -1.222  1.00  0.00    -0.461 OA
BRANCH  37  38
ATOM     38  C   UNL     1       2.421  -5.000  -1.202  1.00  0.00     0.340 C 
ATOM     39  O   UNL     1       1.751  -5.848  -0.625  1.00  0.00    -0.246 OA
BRANCH  38  40
ATOM     40  C   UNL     1       3.592  -5.508  -1.974  1.00  0.00     0.084 A 
ATOM     41  C   UNL     1       4.171  -4.605  -2.884  1.00  0.00     0.018 A 
ATOM     42  C   UNL     1       4.090  -6.881  -1.916  1.00  0.00     0.066 A 
ATOM     43  C   UNL     1       5.196  -5.000  -3.736  1.00  0.00     0.001 A 
ATOM     44  C   UNL     1       5.119  -7.230  -2.817  1.00  0.00     0.028 A 
ATOM     45  C   UNL     1       5.662  -6.308  -3.709  1.00  0.00     0.002 A 
BRANCH  42  46
ATOM     46  N   UNL     1       3.666  -7.913  -0.970  1.00  0.00    -0.249 N 
ATOM     47  C   UNL     1       3.529  -7.749   0.365  1.00  0.00     0.234 C 
ATOM     48  C   UNL     1       3.508  -9.245  -1.238  1.00  0.00     0.237 C 
ATOM     49  O   UNL     1       3.694  -6.679   0.931  1.00  0.00    -0.274 OA
ATOM     50  C   UNL     1       3.197  -9.020   1.099  1.00  0.00     0.114 C 
ATOM     51  C   UNL     1       3.281 -10.111   0.000  1.00  0.00     0.086 C 
ATOM     52  O   UNL     1       3.619  -9.713  -2.361  1.00  0.00    -0.274 OA
ATOM     53  C   UNL     1       2.068 -10.993   0.000  1.00  0.00     0.018 C 
ENDBRANCH  42  46
ENDBRANCH  38  40
ENDBRANCH  37  38
ENDBRANCH   1  37
TORSDOF 13
