REMARK SMILES COCCN1C(=O)CO[C@H]2CN(C3CCOCC3)C[C@H]21
REMARK SMILES IDX 3 1 2 2 1 3 4 4 5 5 6 6 20 7 7 8 8 9 19 10 10 11 9 12 12 13
REMARK SMILES IDX 11 14 13 15 14 16 18 17 15 18 17 19 16 20
REMARK H PARENT
ROOT
ATOM      1  C   UNL     1       4.252  -0.222   0.402  1.00  0.00     0.181 C 
ENDROOT
BRANCH   1   2
ATOM      2  O   UNL     1       5.125  -1.279   0.753  1.00  0.00    -0.383 OA
ATOM      3  C   UNL     1       5.775  -1.786  -0.392  1.00  0.00     0.194 C 
ENDBRANCH   1   2
BRANCH   1   4
ATOM      4  C   UNL     1       2.851  -0.756   0.061  1.00  0.00     0.148 C 
BRANCH   4   5
ATOM      5  N   UNL     1       1.911   0.337  -0.172  1.00  0.00    -0.331 N 
ATOM      6  C   UNL     1       2.024   1.167  -1.255  1.00  0.00     0.249 C 
ATOM      7  C   UNL     1       0.834   0.548   0.782  1.00  0.00     0.129 C 
ATOM      8  O   UNL     1       2.955   1.052  -2.039  1.00  0.00    -0.272 OA
ATOM      9  C   UNL     1       0.974   2.228  -1.530  1.00  0.00     0.260 C 
ATOM     10  C   UNL     1      -0.339  -0.401   0.578  1.00  0.00     0.112 C 
ATOM     11  C   UNL     1       0.156   1.898   0.620  1.00  0.00     0.156 C 
ATOM     12  O   UNL     1      -0.191   2.096  -0.732  1.00  0.00    -0.365 OA
ATOM     13  N   UNL     1      -1.451   0.236   1.307  1.00  0.00    -0.295 NA
ATOM     14  C   UNL     1      -1.101   1.664   1.459  1.00  0.00     0.119 C 
BRANCH  13  15
ATOM     15  C   UNL     1      -2.822  -0.035   0.814  1.00  0.00     0.061 C 
ATOM     16  C   UNL     1      -3.134  -1.532   0.729  1.00  0.00     0.047 C 
ATOM     17  C   UNL     1      -3.164   0.640  -0.547  1.00  0.00     0.047 C 
ATOM     18  C   UNL     1      -4.658  -1.663   0.443  1.00  0.00     0.161 C 
ATOM     19  C   UNL     1      -4.197  -0.191  -1.337  1.00  0.00     0.161 C 
ATOM     20  O   UNL     1      -5.194  -0.715  -0.487  1.00  0.00    -0.381 OA
ENDBRANCH  13  15
ENDBRANCH   4   5
ENDBRANCH   1   4
TORSDOF 4
