REMARK SMILES C=C1C[C@]23CC[C@H]4C(C)(C)CCC[C@@]4(C)C2=CC[C@H]1C3
REMARK SMILES IDX 1 1 2 2 3 3 4 4 5 5 6 6 7 7 8 8 9 9 10 10 11 11 12 12 13 13
REMARK SMILES IDX 14 14 15 15 16 16 17 17 18 18 19 19 20 20
REMARK H PARENT
ROOT
ATOM      1  C   UNL     1       4.880   1.002  -0.266  1.00  0.00     0.008 C 
ATOM      2  C   UNL     1       3.780   0.355   0.131  1.00  0.00    -0.073 C 
ATOM      3  C   UNL     1       2.998  -0.580  -0.725  1.00  0.00     0.042 C 
ATOM      4  C   UNL     1       1.684  -0.727   0.074  1.00  0.00    -0.004 C 
ATOM      5  C   UNL     1       0.937  -2.042  -0.295  1.00  0.00     0.012 C 
ATOM      6  C   UNL     1      -0.484  -1.982   0.246  1.00  0.00     0.006 C 
ATOM      7  C   UNL     1      -1.344  -0.880  -0.468  1.00  0.00     0.005 C 
ATOM      8  C   UNL     1      -2.656  -0.540   0.336  1.00  0.00    -0.032 C 
ATOM      9  C   UNL     1      -2.336   0.074   1.736  1.00  0.00     0.011 C 
ATOM     10  C   UNL     1      -3.500  -1.810   0.610  1.00  0.00     0.011 C 
ATOM     11  C   UNL     1      -3.554   0.434  -0.509  1.00  0.00     0.007 C 
ATOM     12  C   UNL     1      -2.807   1.414  -1.438  1.00  0.00     0.001 C 
ATOM     13  C   UNL     1      -1.407   1.714  -0.923  1.00  0.00     0.011 C 
ATOM     14  C   UNL     1      -0.508   0.412  -0.931  1.00  0.00    -0.008 C 
ATOM     15  C   UNL     1      -0.035   0.241  -2.413  1.00  0.00     0.016 C 
ATOM     16  C   UNL     1       0.777   0.536  -0.087  1.00  0.00    -0.061 C 
ATOM     17  C   UNL     1       1.112   1.686   0.573  1.00  0.00    -0.026 C 
ATOM     18  C   UNL     1       2.306   1.779   1.501  1.00  0.00     0.035 C 
ATOM     19  C   UNL     1       3.142   0.493   1.482  1.00  0.00     0.019 C 
ATOM     20  C   UNL     1       2.217  -0.731   1.518  1.00  0.00     0.020 C 
ENDROOT
TORSDOF 0
