REMARK SMILES COC(=O)C1=C(C)NC(C)=C(C(=O)OCCCN2CCC(c3ccccc3)(c3ccccc3)CC2)[C@H]1c1cccc(N=O)c1
REMARK SMILES IDX 14 1 12 2 13 3 11 4 5 5 6 6 36 7 8 8 9 9 7 10 10 12 3 13
REMARK SMILES IDX 4 14 2 15 1 16 37 17 38 18 44 19 39 20 41 21 40 22 42 23
REMARK SMILES IDX 43 24 15 25 16 26 17 27 18 28 19 29 35 30 20 31 34 32 21 33
REMARK SMILES IDX 22 34 23 35 27 36 24 37 26 38 25 39 28 40 29 41 33 42 30 43
REMARK SMILES IDX 32 44 31 45
REMARK H PARENT 8 11
ROOT
ATOM      1  O   UNL     1      -1.654   0.246   0.943  1.00  0.00    -0.462 OA
ENDROOT
BRANCH   1   2
ATOM      2  C   UNL     1      -2.899  -0.268   1.107  1.00  0.00     0.336 C 
ATOM      3  O   UNL     1      -3.255  -0.613   2.226  1.00  0.00    -0.246 OA
BRANCH   2   4
ATOM      4  C   UNL     1      -3.864  -0.395  -0.044  1.00  0.00     0.068 C 
ATOM      5  C   UNL     1      -6.234  -1.073  -0.882  1.00  0.00     0.068 C 
ATOM      6  C   UNL     1      -5.828  -0.742  -2.147  1.00  0.00     0.023 C 
ATOM      7  C   UNL     1      -5.273  -0.877   0.298  1.00  0.00     0.098 C 
ATOM      8  N   UNL     1      -4.516  -0.232  -2.358  1.00  0.00    -0.362 N 
ATOM      9  C   UNL     1      -3.545  -0.084  -1.329  1.00  0.00     0.023 C 
ATOM     10  C   UNL     1      -6.656  -0.874  -3.413  1.00  0.00     0.065 C 
ATOM     11  H   UNL     1      -4.244   0.013  -3.323  1.00  0.00     0.166 HD
ATOM     12  C   UNL     1      -2.180   0.420  -1.738  1.00  0.00     0.065 C 
BRANCH   5  13
ATOM     13  C   UNL     1      -7.585  -1.643  -0.517  1.00  0.00     0.336 C 
ATOM     14  O   UNL     1      -8.467  -1.802  -1.344  1.00  0.00    -0.246 OA
BRANCH  13  15
ATOM     15  O   UNL     1      -7.820  -1.998   0.773  1.00  0.00    -0.466 OA
ATOM     16  C   UNL     1      -9.010  -2.522   1.232  1.00  0.00     0.282 C 
ENDBRANCH  13  15
ENDBRANCH   5  13
BRANCH   7  17
ATOM     17  C   UNL     1      -5.877   0.111   1.288  1.00  0.00    -0.033 A 
ATOM     18  C   UNL     1      -6.210  -0.302   2.591  1.00  0.00     0.005 A 
ATOM     19  C   UNL     1      -6.085   1.454   0.922  1.00  0.00     0.036 A 
ATOM     20  C   UNL     1      -6.738   0.609   3.508  1.00  0.00     0.003 A 
ATOM     21  C   UNL     1      -6.614   2.372   1.848  1.00  0.00     0.108 A 
ATOM     22  C   UNL     1      -6.938   1.940   3.138  1.00  0.00     0.032 A 
BRANCH  21  23
ATOM     23  N   UNL     1      -6.819   3.734   1.507  1.00  0.00    -0.031 NA
ATOM     24  O   UNL     1      -6.542   4.157   0.425  1.00  0.00    -0.145 OA
ENDBRANCH  21  23
ENDBRANCH   7  17
ENDBRANCH   2   4
ENDBRANCH   1   2
BRANCH   1  25
ATOM     25  C   UNL     1      -0.828   0.586   1.995  1.00  0.00     0.234 C 
BRANCH  25  26
ATOM     26  C   UNL     1       0.503   1.117   1.474  1.00  0.00     0.057 C 
BRANCH  26  27
ATOM     27  C   UNL     1       1.289   0.028   0.721  1.00  0.00     0.088 C 
BRANCH  27  28
ATOM     28  N   UNL     1       2.560   0.562   0.199  1.00  0.00    -0.303 NA
ATOM     29  C   UNL     1       3.072  -0.263  -0.926  1.00  0.00     0.086 C 
ATOM     30  C   UNL     1       3.568   0.877   1.256  1.00  0.00     0.086 C 
ATOM     31  C   UNL     1       4.457   0.242  -1.325  1.00  0.00     0.032 C 
ATOM     32  C   UNL     1       4.783  -0.052   1.189  1.00  0.00     0.032 C 
ATOM     33  C   UNL     1       5.524   0.029  -0.189  1.00  0.00     0.023 C 
BRANCH  33  34
ATOM     34  C   UNL     1       6.321  -1.287  -0.294  1.00  0.00    -0.037 A 
ATOM     35  C   UNL     1       6.003  -2.317  -1.211  1.00  0.00     0.004 A 
ATOM     36  C   UNL     1       7.414  -1.493   0.578  1.00  0.00     0.004 A 
ATOM     37  C   UNL     1       6.757  -3.494  -1.251  1.00  0.00     0.000 A 
ATOM     38  C   UNL     1       8.167  -2.669   0.526  1.00  0.00     0.000 A 
ATOM     39  C   UNL     1       7.838  -3.669  -0.388  1.00  0.00     0.000 A 
ENDBRANCH  33  34
BRANCH  33  40
ATOM     40  C   UNL     1       6.515   1.206  -0.317  1.00  0.00    -0.037 A 
ATOM     41  C   UNL     1       7.261   1.349  -1.509  1.00  0.00     0.004 A 
ATOM     42  C   UNL     1       6.712   2.164   0.706  1.00  0.00     0.004 A 
ATOM     43  C   UNL     1       8.161   2.404  -1.672  1.00  0.00     0.000 A 
ATOM     44  C   UNL     1       7.614   3.217   0.535  1.00  0.00     0.000 A 
ATOM     45  C   UNL     1       8.336   3.339  -0.650  1.00  0.00     0.000 A 
ENDBRANCH  33  40
ENDBRANCH  27  28
ENDBRANCH  26  27
ENDBRANCH  25  26
ENDBRANCH   1  25
TORSDOF 12
