REMARK SMILES CCOC(=O)[C@@H]1C=C(C#N)O[C@H]2[C@@H]1C(=O)N(C)C(=O)N2C
REMARK SMILES IDX 4 1 5 2 3 3 2 4 1 5 6 6 7 7 13 8 8 9 12 10 14 11 9 12 11 13
REMARK SMILES IDX 20 14 15 15 16 16 10 17 18 18 19 19 21 20 17 21
REMARK H PARENT
ROOT
ATOM      1  C   UNL     1       1.472   0.271   0.222  1.00  0.00     0.313 C 
ATOM      2  O   UNL     1       1.002  -0.521   1.024  1.00  0.00    -0.252 OA
ENDROOT
BRANCH   1   3
ATOM      3  O   UNL     1       2.679   0.854   0.452  1.00  0.00    -0.466 OA
BRANCH   3   4
ATOM      4  C   UNL     1       3.512   0.537   1.502  1.00  0.00     0.229 C 
ATOM      5  C   UNL     1       4.018  -0.902   1.381  1.00  0.00     0.049 C 
ENDBRANCH   3   4
ENDBRANCH   1   3
BRANCH   1   6
ATOM      6  C   UNL     1       0.789   0.591  -1.080  1.00  0.00     0.144 C 
ATOM      7  C   UNL     1       0.386   2.047  -0.983  1.00  0.00     0.047 C 
ATOM      8  C   UNL     1      -0.404  -0.352  -1.526  1.00  0.00     0.159 C 
ATOM      9  C   UNL     1      -0.846   2.474  -1.280  1.00  0.00     0.196 C 
ATOM     10  C   UNL     1      -1.793   0.285  -1.353  1.00  0.00     0.289 C 
ATOM     11  C   UNL     1      -0.413  -1.728  -0.852  1.00  0.00     0.240 C 
ATOM     12  C   UNL     1      -1.183   3.870  -1.070  1.00  0.00     0.138 C 
ATOM     13  O   UNL     1      -1.780   1.608  -1.754  1.00  0.00    -0.460 OA
ATOM     14  N   UNL     1      -2.308   0.156   0.004  1.00  0.00    -0.291 N 
ATOM     15  O   UNL     1       0.449  -2.542  -1.172  1.00  0.00    -0.274 OA
ATOM     16  N   UNL     1      -1.284  -1.995   0.198  1.00  0.00    -0.267 N 
ATOM     17  N   UNL     1      -1.454   4.966  -0.907  1.00  0.00    -0.189 NA
ATOM     18  C   UNL     1      -2.171  -1.040   0.655  1.00  0.00     0.329 C 
ATOM     19  O   UNL     1      -2.799  -1.239   1.695  1.00  0.00    -0.248 OA
ATOM     20  C   UNL     1      -3.039   1.266   0.613  1.00  0.00     0.152 C 
ATOM     21  C   UNL     1      -1.191  -3.242   0.956  1.00  0.00     0.158 C 
ENDBRANCH   1   6
TORSDOF 3
