REMARK SMILES C=C(C)C(=O)O[C@H]1C/C(C)=C\CCC(CO)=C[C@H]2OC(=O)[C@@H](C)[C@H]12
REMARK SMILES IDX 18 1 19 2 20 3 21 4 22 5 23 6 24 7 7 8 6 9 4 10 5 11 2 12
REMARK SMILES IDX 1 13 3 14 8 15 9 16 11 17 10 18 17 20 14 21 13 22 12 23
REMARK SMILES IDX 15 25 16 26
REMARK H PARENT 16 27
REMARK Flexibility Score:   24.900
ROOT
ATOM      1  C   UNL     1       0.781   0.733   1.724  1.00  0.00     0.207 C 
ATOM      2  O   UNL     1       0.488   1.983   2.231  1.00  0.00    -0.457 OA
ATOM      3  C   UNL     1      -0.476   2.643   1.501  1.00  0.00     0.309 C 
ATOM      4  O   UNL     1      -0.988   3.762   1.860  1.00  0.00    -0.252 OA
ATOM      5  C   UNL     1      -0.817   1.898   0.293  1.00  0.00     0.107 C 
ATOM      6  C   UNL     1      -0.476   2.626  -0.997  1.00  0.00     0.020 C 
ATOM      7  C   UNL     1       0.015   0.634   0.445  1.00  0.00     0.089 C 
ENDROOT
BRANCH   7   8
ATOM      8  C   UNL     1      -0.802  -0.616   0.297  1.00  0.00     0.189 C 
BRANCH   8   9
ATOM      9  O   UNL     1      -1.979  -0.260  -0.507  1.00  0.00    -0.458 OA
BRANCH   9  10
ATOM     10  C   UNL     1      -3.224  -0.376   0.133  1.00  0.00     0.333 C 
ATOM     11  O   UNL     1      -3.196  -0.761   1.336  1.00  0.00    -0.247 OA
BRANCH  10  12
ATOM     12  C   UNL     1      -4.494  -0.083  -0.501  1.00  0.00     0.027 C 
ATOM     13  C   UNL     1      -4.607   0.316  -1.742  1.00  0.00     0.020 C 
ATOM     14  C   UNL     1      -5.719  -0.289   0.312  1.00  0.00     0.051 C 
ENDBRANCH  10  12
ENDBRANCH   9  10
ENDBRANCH   8   9
BRANCH   8  15
ATOM     15  C   UNL     1      -0.043  -1.741  -0.410  1.00  0.00     0.076 C 
BRANCH  15  16
ATOM     16  C   UNL     1       0.848  -1.310  -1.466  1.00  0.00    -0.074 C 
ATOM     17  C   UNL     1       2.146  -1.660  -1.390  1.00  0.00    -0.028 CG0
ATOM     18  C   UNL     1       0.341  -0.507  -2.606  1.00  0.00     0.039 C 
ATOM     19  G   UNL     1       2.619  -2.447  -0.298  1.00  0.00     0.000 G0
ENDBRANCH  15  16
ENDBRANCH   8  15
ENDBRANCH   7   8
BRANCH   1  20
ATOM     20  C   UNL     1       2.325   0.661   1.309  1.00  0.00     0.019 C 
ATOM     21  C   UNL     1       2.874  -0.405   1.034  1.00  0.00    -0.045 C 
BRANCH  21  22
ATOM     22  C   UNL     1       3.531  -1.679   0.704  1.00  0.00     0.037 C 
BRANCH  22  23
ATOM     23  C   UNL     1       2.619  -2.447  -0.298  1.00  0.00     0.032 CG0
ATOM     24  G   UNL     1       2.146  -1.660  -1.390  1.00  0.00     0.000 G0
ENDBRANCH  22  23
ENDBRANCH  21  22
BRANCH  21  25
ATOM     25  C   UNL     1       4.512   0.244   1.524  1.00  0.00     0.187 C 
BRANCH  25  26
ATOM     26  O   UNL     1       4.338   1.473   1.924  1.00  0.00    -0.392 OA
ATOM     27  H   UNL     1       3.953   1.996   1.203  1.00  0.00     0.211 HD
ENDBRANCH  25  26
ENDBRANCH  21  25
ENDBRANCH   1  20
TORSDOF 5
