REMARK SMILES CNC1=NCC[C@H]2SS[C@@H]3CC[C@@H]4[C@@H](O[C@H](c5cc(O)c(O)c(OCCc6cccnc6)c5)C[C@@H]4OC(C)=O)[C@H]3Cc3ccc(O)c(c3)O[C@@H]3CCC[C@]2(C3)N1
REMARK SMILES IDX 10 1 11 2 12 3 13 4 14 5 15 6 16 7 34 8 35 9 40 10 41 11
REMARK SMILES IDX 42 12 47 13 48 14 45 15 44 16 43 17 49 18 50 19 54 20 53 21
REMARK SMILES IDX 55 22 52 23 51 24 56 26 2 27 3 28 4 29 1 30 5 33 46 35 9 37
REMARK SMILES IDX 8 38 7 39 6 41 36 43 37 44 39 45 38 46 17 47 18 48 33 49
REMARK SMILES IDX 19 50 23 51 21 52 20 53 24 55 25 56 26 57 27 58 28 59 32 60
REMARK SMILES IDX 29 61 31 62 30 63 22 64
REMARK H PARENT 2 31 56 32 46 36 20 54 22 65
REMARK Flexibility Score:  226.800
ROOT
ATOM      1  C   UNL     1      -1.193   1.414   1.151  1.00  0.00     0.064 C 
ATOM      2  C   UNL     1      -1.204   2.737   0.405  1.00  0.00     0.016 C 
ATOM      3  C   UNL     1       0.233   3.234   0.236  1.00  0.00     0.011 C 
ATOM      4  C   UNL     1       1.267   2.133  -0.132  1.00  0.00     0.060 C 
ATOM      5  C   UNL     1       0.655   0.763  -0.617  1.00  0.00     0.130 C 
ATOM      6  O   UNL     1       1.615  -0.306  -0.733  1.00  0.00    -0.369 OA
ATOM      7  C   UNL     1       2.950   0.166  -0.894  1.00  0.00     0.152 C 
ATOM      8  C   UNL     1       3.413   0.991   0.346  1.00  0.00     0.082 C 
ATOM      9  C   UNL     1       2.297   1.830   0.969  1.00  0.00     0.185 C 
ATOM     10  C   UNL     1      -0.599   0.296   0.240  1.00  0.00     0.037 C 
ENDROOT
BRANCH  10  11
ATOM     11  C   UNL     1      -0.491  -1.069   1.014  1.00  0.00     0.043 C 
BRANCH  11  12
ATOM     12  C   UNL     1      -1.472  -2.077   0.440  1.00  0.00    -0.044 A 
ATOM     13  C   UNL     1      -3.668  -3.171   0.449  1.00  0.00     0.161 A 
ATOM     14  C   UNL     1      -2.716  -2.329   1.062  1.00  0.00     0.054 A 
ATOM     15  C   UNL     1      -3.321  -3.833  -0.747  1.00  0.00     0.157 A 
ATOM     16  C   UNL     1      -2.079  -3.602  -1.345  1.00  0.00     0.050 A 
ATOM     17  C   UNL     1      -1.170  -2.715  -0.770  1.00  0.00     0.008 A 
BRANCH  13  18
ATOM     18  O   UNL     1      -4.927  -3.370   0.938  1.00  0.00    -0.486 OA
BRANCH  18  19
ATOM     19  C   UNL     1      -5.809  -2.538   1.635  1.00  0.00     0.176 C 
ATOM     20  C   UNL     1      -5.972  -0.416  -0.021  1.00  0.00     0.056 CG1
ATOM     21  C   UNL     1      -6.404  -1.613  -0.926  1.00  0.00     0.030 C 
ATOM     22  C   UNL     1      -5.656  -0.993   1.425  1.00  0.00     0.074 C 
ATOM     23  C   UNL     1      -7.476  -2.542  -0.304  1.00  0.00     0.006 C 
ATOM     24  C   UNL     1      -7.240  -2.861   1.190  1.00  0.00     0.045 C 
ATOM     25  G   UNL     1      -4.669   0.300  -0.545  1.00  0.00     0.000 G1
BRANCH  20  26
ATOM     26  N   UNL     1      -7.124   0.481   0.050  1.00  0.00    -0.350 N 
ATOM     27  N   UNL     1      -8.445   2.535   0.035  1.00  0.00    -0.359 N 
ATOM     28  C   UNL     1      -7.342   1.797  -0.493  1.00  0.00     0.191 C 
ATOM     29  N   UNL     1      -6.642   2.372  -1.424  1.00  0.00    -0.253 NA
ATOM     30  C   UNL     1      -8.693   3.911  -0.338  1.00  0.00     0.143 C 
ATOM     31  H   UNL     1      -9.054   2.104   0.746  1.00  0.00     0.163 HD
ATOM     32  H   UNL     1      -7.925   0.109   0.584  1.00  0.00     0.164 HD
BRANCH  29  33
ATOM     33  C   UNL     1      -5.476   2.058  -2.230  1.00  0.00     0.147 CG0
ATOM     34  G   UNL     1      -4.780   0.720  -2.012  1.00  0.00     0.000 G0
ENDBRANCH  29  33
ENDBRANCH  20  26
ENDBRANCH  18  19
ENDBRANCH  13  18
BRANCH  15  35
ATOM     35  O   UNL     1      -4.186  -4.671  -1.359  1.00  0.00    -0.504 OA
ATOM     36  H   UNL     1      -5.065  -4.872  -1.009  1.00  0.00     0.293 HD
ENDBRANCH  15  35
ENDBRANCH  11  12
ENDBRANCH  10  11
BRANCH   1  37
ATOM     37  S   UNL     1      -2.808   0.946   1.873  1.00  0.00    -0.090 SA
BRANCH  37  38
ATOM     38  S   UNL     1      -4.173   1.790   0.465  1.00  0.00    -0.088 SA
BRANCH  38  39
ATOM     39  C   UNL     1      -4.669   0.300  -0.545  1.00  0.00     0.085 CG1
ATOM     40  G   UNL     1      -5.972  -0.416  -0.021  1.00  0.00     0.000 G1
BRANCH  39  41
ATOM     41  C   UNL     1      -4.780   0.720  -2.012  1.00  0.00     0.041 CG0
ATOM     42  G   UNL     1      -5.476   2.058  -2.230  1.00  0.00     0.000 G0
ENDBRANCH  39  41
ENDBRANCH  38  39
ENDBRANCH  37  38
ENDBRANCH   1  37
BRANCH   9  43
ATOM     43  O   UNL     1       1.745   1.094   2.004  1.00  0.00    -0.462 OA
BRANCH  43  44
ATOM     44  C   UNL     1       1.791   1.426   3.320  1.00  0.00     0.302 C 
ATOM     45  O   UNL     1       2.212   2.516   3.686  1.00  0.00    -0.253 OA
ATOM     46  C   UNL     1       1.349   0.431   4.341  1.00  0.00     0.139 C 
ENDBRANCH  43  44
ENDBRANCH   9  43
BRANCH   7  47
ATOM     47  C   UNL     1       3.949  -0.959  -1.125  1.00  0.00    -0.012 A 
ATOM     48  C   UNL     1       3.556  -2.302  -1.236  1.00  0.00     0.057 A 
ATOM     49  C   UNL     1       5.319  -0.650  -1.180  1.00  0.00     0.057 A 
ATOM     50  C   UNL     1       4.518  -3.315  -1.395  1.00  0.00     0.161 A 
ATOM     51  C   UNL     1       6.296  -1.654  -1.289  1.00  0.00     0.165 A 
ATOM     52  C   UNL     1       5.890  -2.990  -1.411  1.00  0.00     0.200 A 
BRANCH  50  53
ATOM     53  O   UNL     1       4.131  -4.603  -1.509  1.00  0.00    -0.504 OA
ATOM     54  H   UNL     1       3.199  -4.865  -1.497  1.00  0.00     0.293 HD
ENDBRANCH  50  53
BRANCH  51  55
ATOM     55  O   UNL     1       7.628  -1.367  -1.229  1.00  0.00    -0.489 OA
BRANCH  55  56
ATOM     56  C   UNL     1       8.155  -0.110  -0.982  1.00  0.00     0.234 C 
BRANCH  56  57
ATOM     57  C   UNL     1       9.652  -0.202  -0.687  1.00  0.00     0.078 C 
BRANCH  57  58
ATOM     58  C   UNL     1      10.211   1.161  -0.348  1.00  0.00    -0.026 A 
ATOM     59  C   UNL     1      10.240   2.183  -1.310  1.00  0.00     0.007 A 
ATOM     60  C   UNL     1      10.708   1.436   0.938  1.00  0.00     0.114 A 
ATOM     61  C   UNL     1      10.750   3.441  -0.980  1.00  0.00     0.020 A 
ATOM     62  N   UNL     1      11.196   2.671   1.234  1.00  0.00    -0.264 NA
ATOM     63  C   UNL     1      11.227   3.669   0.311  1.00  0.00     0.111 A 
ENDBRANCH  57  58
ENDBRANCH  56  57
ENDBRANCH  55  56
ENDBRANCH  51  55
BRANCH  52  64
ATOM     64  O   UNL     1       6.830  -3.953  -1.526  1.00  0.00    -0.502 OA
ATOM     65  H   UNL     1       6.613  -4.892  -1.607  1.00  0.00     0.293 HD
ENDBRANCH  52  64
ENDBRANCH   7  47
TORSDOF 10
