REMARK SMILES CC(C)(C)CC(=O)NC[C@H]1OC[C@@H](NC2COC2)[C@@H]1O
REMARK SMILES IDX 6 1 7 2 8 3 5 5 2 6 1 7 3 8 4 9 9 10 10 11 11 12 19 13 12 14
REMARK SMILES IDX 13 15 20 16 14 18 15 20 16 21 18 22 17 23
REMARK H PARENT 8 4 20 17 14 19
ROOT
ATOM      1  C   UNL     1       2.230  -0.455   0.956  1.00  0.00     0.220 C 
ATOM      2  O   UNL     1       2.238  -1.391   0.172  1.00  0.00    -0.275 OA
ATOM      3  N   UNL     1       1.236  -0.348   1.881  1.00  0.00    -0.353 N 
ATOM      4  H   UNL     1       1.264   0.429   2.559  1.00  0.00     0.163 HD
ENDROOT
BRANCH   1   5
ATOM      5  C   UNL     1       3.324   0.598   0.927  1.00  0.00     0.106 C 
BRANCH   5   6
ATOM      6  C   UNL     1       4.454   0.443  -0.140  1.00  0.00    -0.029 C 
ATOM      7  C   UNL     1       5.251  -0.863   0.076  1.00  0.00     0.011 C 
ATOM      8  C   UNL     1       3.882   0.483  -1.575  1.00  0.00     0.011 C 
ATOM      9  C   UNL     1       5.427   1.631   0.020  1.00  0.00     0.011 C 
ENDBRANCH   5   6
ENDBRANCH   1   5
BRANCH   3  10
ATOM     10  C   UNL     1       0.140  -1.298   1.978  1.00  0.00     0.150 C 
BRANCH  10  11
ATOM     11  C   UNL     1      -0.776  -1.244   0.742  1.00  0.00     0.167 C 
ATOM     12  O   UNL     1      -1.811  -2.208   0.837  1.00  0.00    -0.372 OA
ATOM     13  C   UNL     1      -1.464   0.115   0.585  1.00  0.00     0.164 C 
ATOM     14  C   UNL     1      -2.996  -1.570   0.391  1.00  0.00     0.182 C 
ATOM     15  C   UNL     1      -2.583  -0.290  -0.332  1.00  0.00     0.111 C 
BRANCH  13  16
ATOM     16  O   UNL     1      -0.637   1.131   0.075  1.00  0.00    -0.389 OA
ATOM     17  H   UNL     1      -0.256   0.809  -0.783  1.00  0.00     0.211 HD
ENDBRANCH  13  16
BRANCH  15  18
ATOM     18  N   UNL     1      -3.647   0.724  -0.417  1.00  0.00    -0.302 NA
ATOM     19  H   UNL     1      -3.207   1.604  -0.774  1.00  0.00     0.123 HD
BRANCH  18  20
ATOM     20  C   UNL     1      -4.676   0.336  -1.393  1.00  0.00     0.106 C 
ATOM     21  C   UNL     1      -5.785   1.358  -1.509  1.00  0.00     0.181 C 
ATOM     22  C   UNL     1      -5.778  -0.532  -0.825  1.00  0.00     0.181 C 
ATOM     23  O   UNL     1      -6.761   0.442  -1.076  1.00  0.00    -0.378 OA
ENDBRANCH  18  20
ENDBRANCH  15  18
ENDBRANCH  10  11
ENDBRANCH   3  10
TORSDOF 7
