REMARK SMILES C=C[C@@H](C#CC#C[C@@H](O)/C=C\CCCCCCC)OC(C)(C)[C@H](O)COc1c2ccoc2cc2oc(=O)ccc12
REMARK SMILES IDX 7 1 8 2 6 3 5 4 4 5 3 6 2 7 1 8 19 9 20 10 21 11 22 12 23 13
REMARK SMILES IDX 24 14 25 16 26 17 27 18 28 19 40 20 29 21 32 22 34 23 39 24
REMARK SMILES IDX 30 25 31 26 33 27 35 28 38 29 36 30 37 31 9 32 10 34 11 35
REMARK SMILES IDX 12 36 13 37 14 38 15 39 16 40 17 41 18 42
REMARK H PARENT 24 15 9 33
ROOT
ATOM      1  C   UNL     1       2.122  -1.843  -0.016  1.00  0.00    -0.053 C 
ATOM      2  C   UNL     1       3.179  -2.783   0.317  1.00  0.00     0.213 C 
ENDROOT
BRANCH   1   3
ATOM      3  C   UNL     1       1.329  -1.015  -0.343  1.00  0.00    -0.012 C 
ATOM      4  C   UNL     1       0.361  -0.076  -0.695  1.00  0.00    -0.012 C 
BRANCH   4   5
ATOM      5  C   UNL     1      -0.469   0.734  -0.999  1.00  0.00    -0.053 C 
ATOM      6  C   UNL     1      -1.482   1.730  -1.330  1.00  0.00     0.217 C 
BRANCH   6   7
ATOM      7  C   UNL     1      -1.020   2.676  -2.404  1.00  0.00     0.010 C 
ATOM      8  C   UNL     1      -0.607   2.196  -3.584  1.00  0.00     0.008 C 
ENDBRANCH   6   7
BRANCH   6   9
ATOM      9  O   UNL     1      -1.838   2.419  -0.139  1.00  0.00    -0.353 OA
BRANCH   9  10
ATOM     10  C   UNL     1      -3.229   2.390   0.202  1.00  0.00     0.094 C 
ATOM     11  C   UNL     1      -3.386   3.318   1.432  1.00  0.00     0.045 C 
ATOM     12  C   UNL     1      -4.080   3.014  -0.913  1.00  0.00     0.045 C 
BRANCH  10  13
ATOM     13  C   UNL     1      -3.740   0.969   0.686  1.00  0.00     0.183 C 
BRANCH  13  14
ATOM     14  O   UNL     1      -2.792   0.407   1.558  1.00  0.00    -0.387 OA
ATOM     15  H   UNL     1      -2.019   0.129   1.006  1.00  0.00     0.211 HD
ENDBRANCH  13  14
BRANCH  13  16
ATOM     16  C   UNL     1      -4.253  -0.106  -0.317  1.00  0.00     0.264 C 
BRANCH  16  17
ATOM     17  O   UNL     1      -5.462   0.300  -0.884  1.00  0.00    -0.489 OA
BRANCH  17  18
ATOM     18  C   UNL     1      -6.737  -0.090  -0.545  1.00  0.00     0.141 A 
ATOM     19  C   UNL     1      -7.720   0.910  -0.523  1.00  0.00     0.063 A 
ATOM     20  C   UNL     1      -7.179  -1.415  -0.177  1.00  0.00     0.061 A 
ATOM     21  C   UNL     1      -7.659   2.233  -0.879  1.00  0.00     0.054 A 
ATOM     22  C   UNL     1      -9.004   0.700  -0.102  1.00  0.00     0.141 A 
ATOM     23  C   UNL     1      -8.544  -1.615   0.243  1.00  0.00     0.145 A 
ATOM     24  C   UNL     1      -6.373  -2.569  -0.232  1.00  0.00     0.023 A 
ATOM     25  C   UNL     1      -8.904   2.759  -0.604  1.00  0.00     0.196 A 
ATOM     26  O   UNL     1      -9.698   1.813  -0.143  1.00  0.00    -0.464 OA
ATOM     27  C   UNL     1      -9.449  -0.545   0.295  1.00  0.00     0.095 A 
ATOM     28  O   UNL     1      -8.984  -2.822   0.584  1.00  0.00    -0.422 OA
ATOM     29  C   UNL     1      -6.891  -3.811   0.136  1.00  0.00     0.095 A 
ATOM     30  C   UNL     1      -8.220  -3.903   0.548  1.00  0.00     0.336 A 
ATOM     31  O   UNL     1      -8.688  -4.982   0.865  1.00  0.00    -0.246 OA
ENDBRANCH  17  18
ENDBRANCH  16  17
ENDBRANCH  13  16
ENDBRANCH  10  13
ENDBRANCH   9  10
ENDBRANCH   6   9
ENDBRANCH   4   5
ENDBRANCH   1   3
BRANCH   2  32
ATOM     32  O   UNL     1       3.727  -3.300  -0.870  1.00  0.00    -0.377 OA
ATOM     33  H   UNL     1       4.103  -2.543  -1.396  1.00  0.00     0.212 HD
ENDBRANCH   2  32
BRANCH   2  34
ATOM     34  C   UNL     1       4.142  -2.041   1.212  1.00  0.00     0.013 C 
ATOM     35  C   UNL     1       5.480  -2.088   1.259  1.00  0.00    -0.028 C 
BRANCH  35  36
ATOM     36  C   UNL     1       6.397  -2.927   0.424  1.00  0.00     0.027 C 
BRANCH  36  37
ATOM     37  C   UNL     1       7.503  -2.116  -0.252  1.00  0.00     0.004 C 
BRANCH  37  38
ATOM     38  C   UNL     1       8.574  -1.593   0.728  1.00  0.00     0.000 C 
BRANCH  38  39
ATOM     39  C   UNL     1       8.391  -0.248   1.488  1.00  0.00     0.000 C 
BRANCH  39  40
ATOM     40  C   UNL     1       8.302   1.036   0.636  1.00  0.00    -0.000 C 
BRANCH  40  41
ATOM     41  C   UNL     1       9.414   1.198  -0.418  1.00  0.00    -0.003 C 
ATOM     42  C   UNL     1      10.832   0.983   0.128  1.00  0.00     0.004 C 
ENDBRANCH  40  41
ENDBRANCH  39  40
ENDBRANCH  38  39
ENDBRANCH  37  38
ENDBRANCH  36  37
ENDBRANCH  35  36
ENDBRANCH   2  34
TORSDOF 18
