REMARK SMILES CCOC(=O)[C@@H]1Oc2c(c(=O)oc3ccccc23)[C@H]1c1ccc(-c2ccccc2)o1
REMARK SMILES IDX 4 1 5 2 3 3 2 4 1 5 6 6 7 7 19 8 8 9 9 10 18 11 10 12 17 13
REMARK SMILES IDX 13 14 11 15 12 16 16 17 14 18 15 19 20 20 21 21 30 22 22 23
REMARK SMILES IDX 23 24 24 25 25 26 29 27 26 28 28 29 27 30
REMARK H PARENT
ROOT
ATOM      1  C   UNL     1       1.617   2.141   0.704  1.00  0.00     0.348 C 
ATOM      2  O   UNL     1       2.726   2.574   0.984  1.00  0.00    -0.248 OA
ENDROOT
BRANCH   1   3
ATOM      3  O   UNL     1       0.565   2.980   0.509  1.00  0.00    -0.463 OA
BRANCH   3   4
ATOM      4  C   UNL     1       0.612   4.359   0.578  1.00  0.00     0.229 C 
ATOM      5  C   UNL     1       1.410   4.951  -0.581  1.00  0.00     0.049 C 
ENDBRANCH   3   4
ENDBRANCH   1   3
BRANCH   1   6
ATOM      6  C   UNL     1       1.373   0.663   0.647  1.00  0.00     0.298 C 
ATOM      7  O   UNL     1       2.475  -0.106   0.984  1.00  0.00    -0.476 OA
ATOM      8  C   UNL     1       0.925   0.160  -0.752  1.00  0.00     0.149 C 
ATOM      9  C   UNL     1       2.468  -1.232   0.250  1.00  0.00     0.143 A 
ATOM     10  C   UNL     1       1.540  -1.189  -0.750  1.00  0.00     0.095 A 
ATOM     11  C   UNL     1       3.288  -2.349   0.414  1.00  0.00     0.060 A 
ATOM     12  C   UNL     1       1.414  -2.262  -1.635  1.00  0.00     0.344 A 
ATOM     13  C   UNL     1       4.264  -2.433   1.415  1.00  0.00     0.016 A 
ATOM     14  C   UNL     1       3.101  -3.423  -0.495  1.00  0.00     0.142 A 
ATOM     15  O   UNL     1       0.624  -2.218  -2.562  1.00  0.00    -0.246 OA
ATOM     16  O   UNL     1       2.185  -3.339  -1.466  1.00  0.00    -0.422 OA
ATOM     17  C   UNL     1       5.053  -3.584   1.516  1.00  0.00     0.001 A 
ATOM     18  C   UNL     1       3.898  -4.568  -0.379  1.00  0.00     0.048 A 
ATOM     19  C   UNL     1       4.872  -4.646   0.622  1.00  0.00     0.004 A 
BRANCH   8  20
ATOM     20  C   UNL     1      -0.560   0.224  -0.975  1.00  0.00     0.116 A 
ATOM     21  C   UNL     1      -1.152   0.577  -2.170  1.00  0.00     0.047 A 
ATOM     22  O   UNL     1      -1.484   0.008  -0.063  1.00  0.00    -0.460 OA
ATOM     23  C   UNL     1      -2.505   0.555  -1.945  1.00  0.00     0.051 A 
ATOM     24  C   UNL     1      -2.666   0.209  -0.613  1.00  0.00     0.134 A 
BRANCH  24  25
ATOM     25  C   UNL     1      -3.949   0.121   0.124  1.00  0.00     0.017 A 
ATOM     26  C   UNL     1      -5.184   0.289  -0.533  1.00  0.00     0.012 A 
ATOM     27  C   UNL     1      -3.944  -0.105   1.512  1.00  0.00     0.012 A 
ATOM     28  C   UNL     1      -6.383   0.230   0.184  1.00  0.00     0.001 A 
ATOM     29  C   UNL     1      -5.146  -0.158   2.226  1.00  0.00     0.001 A 
ATOM     30  C   UNL     1      -6.364   0.009   1.563  1.00  0.00     0.000 A 
ENDBRANCH  24  25
ENDBRANCH   8  20
ENDBRANCH   1   6
TORSDOF 5
