REMARK SMILES C=C1C[C@@]23CC[C@@H]4[C@](C)(COC(C)=O)[C@H](O)CC[C@@]4(C)[C@@H]2CC[C@@H]1C3
REMARK SMILES IDX 10 1 8 2 1 3 2 4 3 5 24 6 4 7 23 8 25 9 5 10 21 11 22 12
REMARK SMILES IDX 6 13 19 14 7 15 18 16 17 17 15 18 20 19 9 20 16 21 11 23
REMARK SMILES IDX 12 24 14 25 13 26
REMARK H PARENT 16 22
ROOT
ATOM      1  C   UNL     1       2.908   1.379  -0.451  1.00  0.00     0.242 C 
ENDROOT
BRANCH   1   2
ATOM      2  C   UNL     1       2.090   0.193   0.164  1.00  0.00     0.031 C 
ATOM      3  C   UNL     1      -4.709   1.352   2.144  1.00  0.00     0.008 C 
ATOM      4  C   UNL     1      -4.058   0.977   1.038  1.00  0.00    -0.074 C 
ATOM      5  C   UNL     1      -2.766   1.580   0.574  1.00  0.00     0.038 C 
ATOM      6  C   UNL     1      -4.568  -0.058   0.067  1.00  0.00     0.015 C 
ATOM      7  C   UNL     1      -2.375   0.605  -0.562  1.00  0.00    -0.022 C 
ATOM      8  C   UNL     1      -4.181  -1.488   0.536  1.00  0.00     0.008 C 
ATOM      9  C   UNL     1      -3.773   0.343  -1.179  1.00  0.00     0.015 C 
ATOM     10  C   UNL     1      -1.431   1.261  -1.597  1.00  0.00     0.008 C 
ATOM     11  C   UNL     1      -1.774  -0.750   0.089  1.00  0.00     0.002 C 
ATOM     12  C   UNL     1      -2.787  -1.918   0.024  1.00  0.00     0.005 C 
ATOM     13  C   UNL     1       0.052   1.372  -1.178  1.00  0.00     0.005 C 
ATOM     14  C   UNL     1      -0.288  -1.096  -0.363  1.00  0.00    -0.026 C 
ATOM     15  C   UNL     1       0.515   0.272  -0.180  1.00  0.00     0.007 C 
ATOM     16  C   UNL     1       0.360  -2.120   0.594  1.00  0.00     0.010 C 
ATOM     17  C   UNL     1       1.861  -2.389   0.270  1.00  0.00     0.033 C 
ATOM     18  C   UNL     1       2.658  -1.178  -0.314  1.00  0.00     0.124 C 
ATOM     19  C   UNL     1      -0.289  -1.778  -1.777  1.00  0.00     0.012 C 
ATOM     20  C   UNL     1       2.329   0.297   1.707  1.00  0.00     0.018 C 
BRANCH  18  21
ATOM     21  O   UNL     1       2.754  -1.273  -1.720  1.00  0.00    -0.392 OA
ATOM     22  H   UNL     1       2.208  -0.574  -2.158  1.00  0.00     0.210 HD
ENDBRANCH  18  21
ENDBRANCH   1   2
BRANCH   1  23
ATOM     23  O   UNL     1       4.268   1.184  -0.266  1.00  0.00    -0.465 OA
BRANCH  23  24
ATOM     24  C   UNL     1       5.106   1.971   0.455  1.00  0.00     0.302 C 
ATOM     25  O   UNL     1       4.685   2.909   1.114  1.00  0.00    -0.253 OA
ATOM     26  C   UNL     1       6.571   1.665   0.453  1.00  0.00     0.139 C 
ENDBRANCH  23  24
ENDBRANCH   1  23
TORSDOF 4
