REMARK SMILES C=C1C(=O)O[C@@H]2C[C@H](CO)CC/C=C(/C(=O)OC)[C@H](OC(C)=O)[C@@H](OC(=O)[C@H](C)CC)[C@H]12
REMARK SMILES IDX 1 1 2 2 3 3 4 4 5 5 6 6 32 7 24 8 19 9 14 10 13 11 15 12
REMARK SMILES IDX 16 13 17 14 18 15 12 16 20 18 21 19 23 20 22 21 25 22 26 23
REMARK SMILES IDX 27 24 28 25 29 26 30 27 31 28 7 29 8 30 9 31 10 32 11 34
REMARK H PARENT 10 33
REMARK Flexibility Score:   24.900
ROOT
ATOM      1  C   UNL     1       0.170  -0.119  -3.889  1.00  0.00     0.021 C 
ATOM      2  C   UNL     1      -0.627  -0.389  -2.852  1.00  0.00     0.041 C 
ATOM      3  C   UNL     1      -2.021   0.011  -2.658  1.00  0.00     0.334 C 
ATOM      4  O   UNL     1      -2.663   0.752  -3.386  1.00  0.00    -0.247 OA
ATOM      5  O   UNL     1      -2.502  -0.533  -1.518  1.00  0.00    -0.458 OA
ATOM      6  C   UNL     1      -1.667  -1.588  -1.218  1.00  0.00     0.188 C 
ATOM      7  C   UNL     1      -0.249  -1.057  -1.560  1.00  0.00     0.112 C 
ENDROOT
BRANCH   7   8
ATOM      8  C   UNL     1       0.404   0.110  -0.690  1.00  0.00     0.233 C 
BRANCH   8   9
ATOM      9  C   UNL     1      -0.004   0.397   0.795  1.00  0.00     0.255 C 
BRANCH   9  10
ATOM     10  C   UNL     1      -1.466   0.889   0.989  1.00  0.00     0.077 C 
ATOM     11  C   UNL     1      -2.384   0.297   1.810  1.00  0.00    -0.012 C 
BRANCH  10  12
ATOM     12  C   UNL     1      -1.901   2.163   0.322  1.00  0.00     0.337 C 
ATOM     13  O   UNL     1      -1.107   2.817  -0.341  1.00  0.00    -0.246 OA
BRANCH  12  14
ATOM     14  O   UNL     1      -3.156   2.644   0.525  1.00  0.00    -0.466 OA
ATOM     15  C   UNL     1      -3.597   3.872   0.078  1.00  0.00     0.282 C 
ENDBRANCH  12  14
ENDBRANCH  10  12
BRANCH  11  16
ATOM     16  C   UNL     1      -2.176  -0.906   2.689  1.00  0.00     0.028 CG0
ATOM     17  G   UNL     1      -3.103  -2.086   2.337  1.00  0.00     0.000 G0
ENDBRANCH  11  16
ENDBRANCH   9  10
BRANCH   9  18
ATOM     18  O   UNL     1       0.800   1.435   1.245  1.00  0.00    -0.453 OA
BRANCH  18  19
ATOM     19  C   UNL     1       1.695   1.403   2.263  1.00  0.00     0.303 C 
ATOM     20  O   UNL     1       1.881   0.383   2.912  1.00  0.00    -0.253 OA
ATOM     21  C   UNL     1       2.463   2.642   2.596  1.00  0.00     0.139 C 
ENDBRANCH  18  19
ENDBRANCH   9  18
ENDBRANCH   8   9
BRANCH   8  22
ATOM     22  O   UNL     1       1.775  -0.094  -0.732  1.00  0.00    -0.457 OA
BRANCH  22  23
ATOM     23  C   UNL     1       2.700   0.728  -1.299  1.00  0.00     0.309 C 
ATOM     24  O   UNL     1       2.371   1.784  -1.821  1.00  0.00    -0.252 OA
BRANCH  23  25
ATOM     25  C   UNL     1       4.151   0.324  -1.281  1.00  0.00     0.096 C 
ATOM     26  C   UNL     1       4.312  -0.986  -2.066  1.00  0.00     0.020 C 
BRANCH  25  27
ATOM     27  C   UNL     1       4.623   0.203   0.184  1.00  0.00     0.011 C 
ATOM     28  C   UNL     1       6.111  -0.119   0.323  1.00  0.00     0.005 C 
ENDBRANCH  25  27
ENDBRANCH  23  25
ENDBRANCH  22  23
ENDBRANCH   8  22
ENDBRANCH   7   8
BRANCH   6  29
ATOM     29  C   UNL     1      -1.810  -2.392   0.104  1.00  0.00     0.052 C 
BRANCH  29  30
ATOM     30  C   UNL     1      -3.188  -2.515   0.836  1.00  0.00     0.018 C 
BRANCH  30  31
ATOM     31  C   UNL     1      -4.410  -1.893   0.122  1.00  0.00     0.159 C 
BRANCH  31  32
ATOM     32  O   UNL     1      -4.684  -2.582  -1.072  1.00  0.00    -0.396 OA
ATOM     33  H   UNL     1      -4.370  -2.030  -1.829  1.00  0.00     0.210 HD
ENDBRANCH  31  32
ENDBRANCH  30  31
BRANCH  30  34
ATOM     34  C   UNL     1      -3.103  -2.086   2.337  1.00  0.00     0.010 CG0
ATOM     35  G   UNL     1      -2.176  -0.906   2.689  1.00  0.00     0.000 G0
ENDBRANCH  30  34
ENDBRANCH  29  30
ENDBRANCH   6  29
TORSDOF 10
