REMARK SMILES CC(C)CC(=O)OCC1=CO[C@@H](OC(=O)CC(C)C)[C@@H]2[C@@H](C)[C@H](O)C[C@H]12
REMARK SMILES IDX 9 1 10 2 11 3 12 4 20 5 21 6 22 7 23 8 25 9 26 10 8 11 7 12
REMARK SMILES IDX 5 13 6 14 4 15 2 16 1 17 3 18 13 19 14 20 15 21 16 22 17 23
REMARK SMILES IDX 18 24 19 25 24 26
REMARK H PARENT 24 27
ROOT
ATOM      1  C   UNL     1       0.740   0.785  -0.025  1.00  0.00     0.006 C 
ATOM      2  C   UNL     1      -0.123   1.707  -0.516  1.00  0.00     0.194 C 
ATOM      3  O   UNL     1      -1.392   1.358  -0.863  1.00  0.00    -0.462 OA
ATOM      4  C   UNL     1      -1.979   0.249  -0.284  1.00  0.00     0.369 C 
ATOM      5  C   UNL     1      -1.073  -0.972  -0.556  1.00  0.00     0.084 C 
ATOM      6  C   UNL     1      -1.498  -2.275   0.156  1.00  0.00     0.026 C 
ATOM      7  C   UNL     1      -0.803  -3.504  -0.465  1.00  0.00     0.011 C 
ATOM      8  C   UNL     1      -1.028  -2.060   1.604  1.00  0.00     0.118 C 
ATOM      9  C   UNL     1       0.318  -1.317   1.451  1.00  0.00     0.041 C 
ATOM     10  C   UNL     1       0.324  -0.684   0.036  1.00  0.00     0.035 C 
ENDROOT
BRANCH   1  11
ATOM     11  C   UNL     1       2.089   1.214   0.493  1.00  0.00     0.267 C 
BRANCH  11  12
ATOM     12  O   UNL     1       3.131   0.586  -0.161  1.00  0.00    -0.461 OA
BRANCH  12  13
ATOM     13  C   UNL     1       4.422   0.754   0.237  1.00  0.00     0.306 C 
ATOM     14  O   UNL     1       4.668   1.374   1.264  1.00  0.00    -0.252 OA
BRANCH  13  15
ATOM     15  C   UNL     1       5.541   0.147  -0.574  1.00  0.00     0.125 C 
BRANCH  15  16
ATOM     16  C   UNL     1       6.960   0.435  -0.014  1.00  0.00    -0.006 C 
ATOM     17  C   UNL     1       8.008  -0.359  -0.804  1.00  0.00     0.008 C 
ATOM     18  C   UNL     1       7.316   1.933  -0.076  1.00  0.00     0.008 C 
ENDBRANCH  15  16
ENDBRANCH  13  15
ENDBRANCH  12  13
ENDBRANCH  11  12
ENDBRANCH   1  11
BRANCH   4  19
ATOM     19  O   UNL     1      -3.250   0.056  -0.802  1.00  0.00    -0.425 OA
BRANCH  19  20
ATOM     20  C   UNL     1      -4.394   0.097  -0.061  1.00  0.00     0.309 C 
ATOM     21  O   UNL     1      -4.353   0.304   1.142  1.00  0.00    -0.252 OA
BRANCH  20  22
ATOM     22  C   UNL     1      -5.725  -0.152  -0.723  1.00  0.00     0.125 C 
BRANCH  22  23
ATOM     23  C   UNL     1      -6.700   1.050  -0.681  1.00  0.00    -0.006 C 
ATOM     24  C   UNL     1      -7.081   1.470   0.746  1.00  0.00     0.008 C 
ATOM     25  C   UNL     1      -6.139   2.248  -1.461  1.00  0.00     0.008 C 
ENDBRANCH  22  23
ENDBRANCH  20  22
ENDBRANCH  19  20
ENDBRANCH   4  19
BRANCH   8  26
ATOM     26  O   UNL     1      -1.957  -1.248   2.273  1.00  0.00    -0.393 OA
ATOM     27  H   UNL     1      -1.626  -1.131   3.202  1.00  0.00     0.210 HD
ENDBRANCH   8  26
TORSDOF 10
