REMARK SMILES CCCCCCCCCCCC(=O)OC[C@H](COC(=O)CCCCCCCC[C]CC[C]CCC(C)C)OC(=O)CCCCCCCCCCCCCCCCCC(C)C
REMARK SMILES IDX 38 1 16 2 15 3 14 4 12 5 13 6 11 7 10 8 9 9 8 10 7 11 6 12
REMARK SMILES IDX 5 13 4 14 3 15 2 16 1 17 17 18 18 19 19 20 20 21 21 22 22 23
REMARK SMILES IDX 23 24 24 25 25 26 26 27 27 28 28 29 29 30 30 31 31 32 32 33
REMARK SMILES IDX 33 34 34 35 35 36 36 37 37 38 39 39 40 40 41 41 42 42 43 43
REMARK SMILES IDX 44 44 45 45 46 46 47 47 48 48 49 49 50 50 51 51 52 52 53 53
REMARK SMILES IDX 54 54 55 55 56 56 57 57 58 58 59 59 60 60
REMARK H PARENT
ROOT
ATOM      1  O   UNL     1      -4.148  -1.194  -0.115  1.00  0.00    -0.455 OA
ENDROOT
BRANCH   1   2
ATOM      2  C   UNL     1      -3.308  -2.255   0.307  1.00  0.00     0.251 C 
BRANCH   2   3
ATOM      3  C   UNL     1      -1.718  -1.847  -0.104  1.00  0.00     0.281 C 
BRANCH   3   4
ATOM      4  O   UNL     1      -1.052  -0.577   0.254  1.00  0.00    -0.462 OA
BRANCH   4   5
ATOM      5  C   UNL     1       0.333  -0.213   0.006  1.00  0.00     0.305 C 
ATOM      6  O   UNL     1       1.058  -1.074  -0.467  1.00  0.00    -0.252 OA
BRANCH   5   7
ATOM      7  C   UNL     1       1.065   1.240   0.293  1.00  0.00     0.123 C 
BRANCH   7   8
ATOM      8  C   UNL     1       2.706   1.506   0.015  1.00  0.00     0.012 C 
BRANCH   8   9
ATOM      9  C   UNL     1       3.539   2.962   0.239  1.00  0.00     0.001 C 
BRANCH   9  10
ATOM     10  C   UNL     1       5.196   3.000   0.000  1.00  0.00     0.000 C 
BRANCH  10  11
ATOM     11  C   UNL     1       6.495   3.750   0.000  1.00  0.00     0.000 C 
BRANCH  11  12
ATOM     12  C   UNL     1       7.794   4.500   0.000  1.00  0.00     0.000 C 
BRANCH  12  13
ATOM     13  C   UNL     1       9.093   5.250   0.000  1.00  0.00    -0.000 C 
BRANCH  13  14
ATOM     14  C   UNL     1      10.392   6.000   0.000  1.00  0.00    -0.000 C 
BRANCH  14  15
ATOM     15  C   UNL     1      11.691   6.750   0.000  1.00  0.00    -0.000 C 
BRANCH  15  16
ATOM     16  C   UNL     1      12.973   5.878  -0.085  1.00  0.00    -0.003 C 
ATOM     17  C   UNL     1      14.229   6.744  -0.032  1.00  0.00     0.004 C 
ENDBRANCH  15  16
ENDBRANCH  14  15
ENDBRANCH  13  14
ENDBRANCH  12  13
ENDBRANCH  11  12
ENDBRANCH  10  11
ENDBRANCH   9  10
ENDBRANCH   8   9
ENDBRANCH   7   8
ENDBRANCH   5   7
ENDBRANCH   4   5
ENDBRANCH   3   4
ENDBRANCH   2   3
BRANCH   2  18
ATOM     18  C   UNL     1      -3.752  -3.822  -0.183  1.00  0.00     0.281 C 
BRANCH  18  19
ATOM     19  O   UNL     1      -4.991  -4.566   0.147  1.00  0.00    -0.462 OA
BRANCH  19  20
ATOM     20  C   UNL     1      -5.196  -6.000   0.000  1.00  0.00     0.305 C 
ATOM     21  O   UNL     1      -4.180  -6.662  -0.207  1.00  0.00    -0.252 OA
BRANCH  20  22
ATOM     22  C   UNL     1      -6.495  -6.750   0.000  1.00  0.00     0.123 C 
BRANCH  22  23
ATOM     23  C   UNL     1      -7.794  -7.500   0.000  1.00  0.00     0.012 C 
BRANCH  23  24
ATOM     24  C   UNL     1      -9.093  -8.250   0.000  1.00  0.00     0.001 C 
BRANCH  24  25
ATOM     25  C   UNL     1     -10.392  -9.000   0.000  1.00  0.00     0.000 C 
BRANCH  25  26
ATOM     26  C   UNL     1     -11.691  -9.750   0.000  1.00  0.00     0.000 C 
BRANCH  26  27
ATOM     27  C   UNL     1     -13.341 -10.065   0.045  1.00  0.00     0.000 C 
BRANCH  27  28
ATOM     28  C   UNL     1     -13.944 -11.653  -0.040  1.00  0.00     0.001 C 
BRANCH  28  29
ATOM     29  C   UNL     1     -15.588 -12.000   0.000  1.00  0.00     0.008 C 
BRANCH  29  30
ATOM     30  C   UNL     1     -16.887 -12.750   0.000  1.00  0.00    -0.017 C 
BRANCH  30  31
ATOM     31  C   UNL     1     -18.186 -13.500   0.000  1.00  0.00     0.009 C 
BRANCH  31  32
ATOM     32  C   UNL     1     -19.486 -14.250   0.000  1.00  0.00     0.009 C 
BRANCH  32  33
ATOM     33  C   UNL     1     -20.785 -15.000   0.000  1.00  0.00    -0.017 C 
BRANCH  33  34
ATOM     34  C   UNL     1     -22.084 -15.750   0.000  1.00  0.00     0.008 C 
BRANCH  34  35
ATOM     35  C   UNL     1     -23.654 -16.020  -0.638  1.00  0.00     0.003 C 
BRANCH  35  36
ATOM     36  C   UNL     1     -24.682 -17.250   0.000  1.00  0.00    -0.017 C 
ATOM     37  C   UNL     1     -25.981 -18.000   0.000  1.00  0.00     0.007 C 
ATOM     38  C   UNL     1     -23.932 -18.549   0.000  1.00  0.00     0.007 C 
ENDBRANCH  35  36
ENDBRANCH  34  35
ENDBRANCH  33  34
ENDBRANCH  32  33
ENDBRANCH  31  32
ENDBRANCH  30  31
ENDBRANCH  29  30
ENDBRANCH  28  29
ENDBRANCH  27  28
ENDBRANCH  26  27
ENDBRANCH  25  26
ENDBRANCH  24  25
ENDBRANCH  23  24
ENDBRANCH  22  23
ENDBRANCH  20  22
ENDBRANCH  19  20
ENDBRANCH  18  19
ENDBRANCH   2  18
ENDBRANCH   1   2
BRANCH   1  39
ATOM     39  C   UNL     1      -5.501  -0.985   0.083  1.00  0.00     0.306 C 
ATOM     40  O   UNL     1      -6.290  -1.898  -0.096  1.00  0.00    -0.252 OA
BRANCH  39  41
ATOM     41  C   UNL     1      -6.013   0.359   0.667  1.00  0.00     0.123 C 
BRANCH  41  42
ATOM     42  C   UNL     1      -7.025   1.307  -0.117  1.00  0.00     0.012 C 
BRANCH  42  43
ATOM     43  C   UNL     1      -7.355   2.580   0.765  1.00  0.00     0.001 C 
BRANCH  43  44
ATOM     44  C   UNL     1      -7.893   3.969   0.205  1.00  0.00     0.000 C 
BRANCH  44  45
ATOM     45  C   UNL     1      -9.409   4.502   0.120  1.00  0.00     0.000 C 
BRANCH  45  46
ATOM     46  C   UNL     1      -9.348   6.093   0.000  1.00  0.00     0.000 C 
BRANCH  46  47
ATOM     47  C   UNL     1     -10.098   7.392   0.000  1.00  0.00     0.000 C 
BRANCH  47  48
ATOM     48  C   UNL     1     -10.848   8.691   0.000  1.00  0.00     0.000 C 
BRANCH  48  49
ATOM     49  C   UNL     1     -11.306  10.254  -0.420  1.00  0.00     0.000 C 
BRANCH  49  50
ATOM     50  C   UNL     1     -12.750  10.951   0.164  1.00  0.00     0.000 C 
BRANCH  50  51
ATOM     51  C   UNL     1     -13.098  12.588   0.000  1.00  0.00     0.000 C 
BRANCH  51  52
ATOM     52  C   UNL     1     -13.848  13.887   0.000  1.00  0.00     0.000 C 
BRANCH  52  53
ATOM     53  C   UNL     1     -14.598  15.187   0.000  1.00  0.00     0.000 C 
BRANCH  53  54
ATOM     54  C   UNL     1     -15.348  16.486   0.000  1.00  0.00     0.000 C 
BRANCH  54  55
ATOM     55  C   UNL     1     -16.098  17.785   0.000  1.00  0.00     0.000 C 
BRANCH  55  56
ATOM     56  C   UNL     1     -16.848  19.084   0.000  1.00  0.00     0.000 C 
BRANCH  56  57
ATOM     57  C   UNL     1     -18.017  20.082   0.618  1.00  0.00     0.003 C 
BRANCH  57  58
ATOM     58  C   UNL     1     -18.348  21.682   0.000  1.00  0.00    -0.017 C 
ATOM     59  C   UNL     1     -19.098  22.981   0.000  1.00  0.00     0.007 C 
ATOM     60  C   UNL     1     -17.049  22.432   0.000  1.00  0.00     0.007 C 
ENDBRANCH  57  58
ENDBRANCH  56  57
ENDBRANCH  55  56
ENDBRANCH  54  55
ENDBRANCH  53  54
ENDBRANCH  52  53
ENDBRANCH  51  52
ENDBRANCH  50  51
ENDBRANCH  49  50
ENDBRANCH  48  49
ENDBRANCH  47  48
ENDBRANCH  46  47
ENDBRANCH  45  46
ENDBRANCH  44  45
ENDBRANCH  43  44
ENDBRANCH  42  43
ENDBRANCH  41  42
ENDBRANCH  39  41
ENDBRANCH   1  39
TORSDOF 51
