REMARK SMILES OC[C@H]1O[C@@H](O)[C@H](O)[C@@H](O[C@@H]2O[C@@H]3CO[C@H]([C@@H]2O)[C@@H]3O[C@@H]2O[C@H](CO)[C@H](O)[C@H](O[C@@H]3O[C@H]4CO[C@@H]([C@@H]3O)[C@@H]4O[C@@H]3O[C@H](CO)[C@H](O)[C@H](O[C@@H]4O[C@H]5CO[C@@H]([C@@H]4O)[C@@H]5O)[C@H]3O)[C@H]2O)[C@H]1O
REMARK SMILES IDX 21 1 22 2 23 3 26 4 28 5 61 6 20 7 19 8 11 9 12 10 17 11
REMARK SMILES IDX 13 12 16 13 14 14 15 15 10 16 9 17 3 18 4 19 63 20 5 21 7 22
REMARK SMILES IDX 2 23 1 24 64 26 6 28 8 30 18 32 62 34 24 36 25 37 29 39
REMARK SMILES IDX 30 40 31 41 36 42 32 43 35 44 33 45 38 46 34 47 37 48 39 50
REMARK SMILES IDX 40 51 41 52 59 53 42 54 47 55 45 56 60 57 43 59 44 60 48 62
REMARK SMILES IDX 49 63 50 64 55 65 51 66 54 67 52 68 57 69 53 70 56 71 58 73
REMARK SMILES IDX 46 75 27 77
REMARK H PARENT 1 25 64 27 6 29 8 31 18 33 62 35 25 38 37 49 60 58 44 61 56 72
REMARK H PARENT 58 74 46 76 27 78
ROOT
ATOM      1  C   UNL     1       3.547  -1.709  -0.748  1.00  0.00     0.282 C 
ATOM      2  O   UNL     1       3.410  -2.063  -2.107  1.00  0.00    -0.341 OA
ATOM      3  C   UNL     1       2.257  -2.842  -2.409  1.00  0.00     0.178 C 
ATOM      4  C   UNL     1       0.915  -2.332  -1.770  1.00  0.00     0.177 C 
ATOM      5  C   UNL     1       1.081  -1.727  -0.347  1.00  0.00     0.186 C 
ATOM      6  C   UNL     1       2.338  -0.865  -0.330  1.00  0.00     0.202 C 
ENDROOT
BRANCH   1   7
ATOM      7  O   UNL     1       4.686  -0.876  -0.657  1.00  0.00    -0.341 OA
BRANCH   7   8
ATOM      8  C   UNL     1       5.675  -1.340   0.247  1.00  0.00     0.184 C 
ATOM      9  C   UNL     1       7.545   0.762  -0.634  1.00  0.00     0.282 C 
ATOM     10  O   UNL     1       6.517   0.939   0.342  1.00  0.00    -0.341 OA
ATOM     11  C   UNL     1       7.385  -0.568  -1.408  1.00  0.00     0.202 C 
ATOM     12  C   UNL     1       6.187  -0.233   1.113  1.00  0.00     0.179 C 
ATOM     13  C   UNL     1       7.008  -1.691  -0.415  1.00  0.00     0.184 C 
ATOM     14  C   UNL     1       7.396  -0.967   1.694  1.00  0.00     0.195 C 
ATOM     15  O   UNL     1       7.970  -1.722   0.632  1.00  0.00    -0.370 OA
BRANCH   9  16
ATOM     16  O   UNL     1       8.827   0.864  -0.002  1.00  0.00    -0.341 OA
BRANCH  16  17
ATOM     17  C   UNL     1       9.621   1.952  -0.483  1.00  0.00     0.186 C 
ATOM     18  C   UNL     1      11.220   2.115   1.552  1.00  0.00     0.178 C 
ATOM     19  O   UNL     1      12.266   1.538   0.766  1.00  0.00    -0.342 OA
ATOM     20  C   UNL     1      10.145   2.825   0.677  1.00  0.00     0.177 C 
ATOM     21  C   UNL     1      11.810   0.685  -0.284  1.00  0.00     0.279 C 
ATOM     22  C   UNL     1      10.840   1.416  -1.252  1.00  0.00     0.202 C 
BRANCH  18  23
ATOM     23  C   UNL     1      10.692   1.134   2.614  1.00  0.00     0.191 C 
BRANCH  23  24
ATOM     24  O   UNL     1      11.765   0.662   3.382  1.00  0.00    -0.394 OA
ATOM     25  H   UNL     1      11.368   0.107   4.103  1.00  0.00     0.210 HD
ENDBRANCH  23  24
ENDBRANCH  18  23
BRANCH  20  26
ATOM     26  O   UNL     1       9.105   3.378   1.446  1.00  0.00    -0.387 OA
ATOM     27  H   UNL     1       8.518   2.637   1.744  1.00  0.00     0.211 HD
ENDBRANCH  20  26
BRANCH  21  28
ATOM     28  O   UNL     1      11.248  -0.490   0.239  1.00  0.00    -0.366 OA
ATOM     29  H   UNL     1      11.101  -1.108  -0.522  1.00  0.00     0.213 HD
ENDBRANCH  21  28
BRANCH  22  30
ATOM     30  O   UNL     1      11.492   2.461  -1.941  1.00  0.00    -0.385 OA
ATOM     31  H   UNL     1      12.150   2.896  -1.341  1.00  0.00     0.211 HD
ENDBRANCH  22  30
ENDBRANCH  16  17
ENDBRANCH   9  16
BRANCH  11  32
ATOM     32  O   UNL     1       8.525  -0.850  -2.181  1.00  0.00    -0.385 OA
ATOM     33  H   UNL     1       9.091  -1.503  -1.696  1.00  0.00     0.211 HD
ENDBRANCH  11  32
ENDBRANCH   7   8
ENDBRANCH   1   7
BRANCH   6  34
ATOM     34  O   UNL     1       2.526  -0.279   0.939  1.00  0.00    -0.385 OA
ATOM     35  H   UNL     1       2.686  -1.014   1.597  1.00  0.00     0.211 HD
ENDBRANCH   6  34
BRANCH   3  36
ATOM     36  C   UNL     1       2.163  -2.805  -3.951  1.00  0.00     0.191 C 
BRANCH  36  37
ATOM     37  O   UNL     1       2.236  -1.464  -4.400  1.00  0.00    -0.394 OA
ATOM     38  H   UNL     1       1.370  -1.220  -4.815  1.00  0.00     0.210 HD
ENDBRANCH  36  37
ENDBRANCH   3  36
BRANCH   5  39
ATOM     39  O   UNL     1      -0.003  -0.863  -0.132  1.00  0.00    -0.341 OA
BRANCH  39  40
ATOM     40  C   UNL     1      -0.771  -1.052   1.028  1.00  0.00     0.282 C 
ATOM     41  O   UNL     1      -1.976  -1.709   0.622  1.00  0.00    -0.341 OA
ATOM     42  C   UNL     1      -0.979   0.380   1.628  1.00  0.00     0.202 C 
ATOM     43  C   UNL     1      -3.156  -1.404   1.373  1.00  0.00     0.179 C 
ATOM     44  C   UNL     1      -2.323   0.458   2.351  1.00  0.00     0.184 C 
ATOM     45  C   UNL     1      -3.003  -1.629   2.875  1.00  0.00     0.195 C 
ATOM     46  C   UNL     1      -3.410   0.069   1.348  1.00  0.00     0.184 C 
ATOM     47  O   UNL     1      -2.333  -0.500   3.396  1.00  0.00    -0.370 OA
BRANCH  42  48
ATOM     48  O   UNL     1      -0.907   1.417   0.667  1.00  0.00    -0.385 OA
ATOM     49  H   UNL     1      -1.273   1.112  -0.202  1.00  0.00     0.211 HD
ENDBRANCH  42  48
BRANCH  46  50
ATOM     50  O   UNL     1      -4.707   0.411   1.839  1.00  0.00    -0.341 OA
BRANCH  50  51
ATOM     51  C   UNL     1      -5.508   1.021   0.824  1.00  0.00     0.282 C 
ATOM     52  O   UNL     1      -6.315   2.041   1.377  1.00  0.00    -0.341 OA
ATOM     53  C   UNL     1      -6.414  -0.040   0.136  1.00  0.00     0.202 C 
ATOM     54  C   UNL     1      -6.886   2.871   0.346  1.00  0.00     0.178 C 
ATOM     55  C   UNL     1      -7.566   0.626  -0.678  1.00  0.00     0.186 C 
ATOM     56  C   UNL     1      -7.171   2.083  -0.996  1.00  0.00     0.177 C 
BRANCH  53  57
ATOM     57  O   UNL     1      -5.636  -0.881  -0.679  1.00  0.00    -0.385 OA
ATOM     58  H   UNL     1      -5.241  -0.324  -1.398  1.00  0.00     0.211 HD
ENDBRANCH  53  57
BRANCH  54  59
ATOM     59  C   UNL     1      -8.133   3.548   0.951  1.00  0.00     0.191 C 
BRANCH  59  60
ATOM     60  O   UNL     1      -8.694   4.486   0.071  1.00  0.00    -0.394 OA
ATOM     61  H   UNL     1      -8.063   5.251   0.026  1.00  0.00     0.210 HD
ENDBRANCH  59  60
ENDBRANCH  54  59
BRANCH  55  62
ATOM     62  O   UNL     1      -8.751   0.627   0.111  1.00  0.00    -0.341 OA
BRANCH  62  63
ATOM     63  C   UNL     1      -9.838  -0.084  -0.466  1.00  0.00     0.282 C 
ATOM     64  O   UNL     1     -10.896   0.825  -0.755  1.00  0.00    -0.341 OA
ATOM     65  C   UNL     1     -10.305  -1.184   0.518  1.00  0.00     0.202 C 
ATOM     66  C   UNL     1     -12.132   0.184  -1.121  1.00  0.00     0.178 C 
ATOM     67  C   UNL     1     -11.669  -1.715   0.026  1.00  0.00     0.183 C 
ATOM     68  C   UNL     1     -11.972  -0.989  -2.103  1.00  0.00     0.195 C 
ATOM     69  C   UNL     1     -12.693  -0.575   0.051  1.00  0.00     0.177 C 
ATOM     70  O   UNL     1     -11.543  -2.109  -1.336  1.00  0.00    -0.370 OA
BRANCH  65  71
ATOM     71  O   UNL     1     -10.409  -0.724   1.848  1.00  0.00    -0.385 OA
ATOM     72  H   UNL     1     -10.645   0.240   1.845  1.00  0.00     0.211 HD
ENDBRANCH  65  71
BRANCH  69  73
ATOM     73  O   UNL     1     -13.982  -1.052  -0.250  1.00  0.00    -0.387 OA
ATOM     74  H   UNL     1     -14.241  -1.658   0.491  1.00  0.00     0.211 HD
ENDBRANCH  69  73
ENDBRANCH  62  63
ENDBRANCH  55  62
BRANCH  56  75
ATOM     75  O   UNL     1      -8.071   2.742  -1.852  1.00  0.00    -0.387 OA
ATOM     76  H   UNL     1      -8.992   2.526  -1.558  1.00  0.00     0.211 HD
ENDBRANCH  56  75
ENDBRANCH  50  51
ENDBRANCH  46  50
ENDBRANCH  39  40
ENDBRANCH   5  39
BRANCH   4  77
ATOM     77  O   UNL     1       0.228  -1.434  -2.610  1.00  0.00    -0.387 OA
ATOM     78  H   UNL     1       0.658  -0.550  -2.564  1.00  0.00     0.211 HD
ENDBRANCH   4  77
TORSDOF 27
