REMARK SMILES COc1cc(O)c2c(c1)O[C@H](c1ccc(O[C@@H]3O[C@H](CO)[C@@H](O)[C@H](O)[C@H]3O[C@@H]3OC[C@](O)(CO)[C@H]3O)c(OC)c1)CC2=O
REMARK SMILES IDX 17 1 18 2 19 3 22 4 24 5 26 6 16 7 15 8 12 9 13 10 40 11
REMARK SMILES IDX 14 12 37 13 11 14 3 15 4 16 9 17 5 18 8 19 7 20 10 21 42 22
REMARK SMILES IDX 43 23 41 24 2 25 1 26 6 27 38 29 39 30 27 31 28 32 29 33
REMARK SMILES IDX 35 34 30 35 31 36 36 37 32 39 33 41 34 42 20 44 21 45 25 47
REMARK SMILES IDX 23 49
REMARK H PARENT 6 28 36 38 32 40 34 43 21 46 25 48 23 50
ROOT
ATOM      1  C   UNL     1       1.724  -1.701   0.716  1.00  0.00     0.340 C 
ATOM      2  O   UNL     1       2.042  -3.092   0.576  1.00  0.00    -0.332 OA
ATOM      3  C   UNL     1       3.274  -3.298  -0.087  1.00  0.00     0.179 C 
ATOM      4  C   UNL     1       4.463  -2.804   0.791  1.00  0.00     0.177 C 
ATOM      5  C   UNL     1       4.083  -1.521   1.595  1.00  0.00     0.181 C 
ATOM      6  C   UNL     1       2.964  -0.761   0.868  1.00  0.00     0.221 C 
ENDROOT
BRANCH   1   7
ATOM      7  O   UNL     1       0.947  -1.567   1.856  1.00  0.00    -0.458 OA
BRANCH   7   8
ATOM      8  C   UNL     1      -0.345  -1.148   1.998  1.00  0.00     0.164 A 
ATOM      9  C   UNL     1      -2.963  -0.193   2.531  1.00  0.00    -0.003 A 
ATOM     10  C   UNL     1      -1.984  -0.208   3.534  1.00  0.00     0.011 A 
ATOM     11  C   UNL     1      -2.623  -0.670   1.255  1.00  0.00     0.058 A 
ATOM     12  C   UNL     1      -0.702  -0.684   3.269  1.00  0.00     0.051 A 
ATOM     13  C   UNL     1      -1.326  -1.151   0.967  1.00  0.00     0.161 A 
BRANCH   9  14
ATOM     14  C   UNL     1      -4.353   0.342   2.852  1.00  0.00     0.211 C 
ATOM     15  C   UNL     1      -6.089   2.235  -1.290  1.00  0.00     0.126 A 
ATOM     16  C   UNL     1      -6.632   0.999  -1.659  1.00  0.00     0.093 A 
ATOM     17  C   UNL     1      -5.447   2.360  -0.042  1.00  0.00     0.093 A 
ATOM     18  C   UNL     1      -6.553  -0.109  -0.803  1.00  0.00     0.133 A 
ATOM     19  C   UNL     1      -5.356   1.265   0.823  1.00  0.00     0.138 A 
ATOM     20  C   UNL     1      -5.925   0.026   0.449  1.00  0.00     0.102 A 
ATOM     21  O   UNL     1      -4.683   1.399   2.004  1.00  0.00    -0.484 OA
ATOM     22  C   UNL     1      -5.803  -1.089   1.415  1.00  0.00     0.174 C 
ATOM     23  O   UNL     1      -5.992  -2.252   1.094  1.00  0.00    -0.294 OA
ATOM     24  C   UNL     1      -5.456  -0.730   2.825  1.00  0.00     0.131 C 
BRANCH  15  25
ATOM     25  O   UNL     1      -6.196   3.268  -2.165  1.00  0.00    -0.496 OA
ATOM     26  C   UNL     1      -5.699   4.541  -1.976  1.00  0.00     0.278 C 
ENDBRANCH  15  25
BRANCH  18  27
ATOM     27  O   UNL     1      -7.089  -1.290  -1.176  1.00  0.00    -0.507 OA
ATOM     28  H   UNL     1      -7.533  -1.411  -2.027  1.00  0.00     0.293 HD
ENDBRANCH  18  27
ENDBRANCH   9  14
BRANCH  13  29
ATOM     29  O   UNL     1      -1.021  -1.620  -0.271  1.00  0.00    -0.493 OA
ATOM     30  C   UNL     1      -1.840  -1.609  -1.382  1.00  0.00     0.278 C 
ENDBRANCH  13  29
ENDBRANCH   7   8
ENDBRANCH   1   7
BRANCH   6  31
ATOM     31  O   UNL     1       3.428  -0.367  -0.420  1.00  0.00    -0.337 OA
BRANCH  31  32
ATOM     32  C   UNL     1       3.378   1.036  -0.639  1.00  0.00     0.282 C 
ATOM     33  O   UNL     1       2.522   1.339  -1.726  1.00  0.00    -0.347 OA
ATOM     34  C   UNL     1       4.764   1.544  -1.025  1.00  0.00     0.207 C 
ATOM     35  C   UNL     1       3.210   2.290  -2.527  1.00  0.00     0.204 C 
ATOM     36  C   UNL     1       4.381   2.837  -1.700  1.00  0.00     0.142 C 
BRANCH  34  37
ATOM     37  O   UNL     1       5.658   1.676   0.053  1.00  0.00    -0.385 OA
ATOM     38  H   UNL     1       5.191   2.156   0.785  1.00  0.00     0.211 HD
ENDBRANCH  34  37
BRANCH  36  39
ATOM     39  O   UNL     1       3.916   3.761  -0.738  1.00  0.00    -0.382 OA
ATOM     40  H   UNL     1       3.499   4.518  -1.226  1.00  0.00     0.211 HD
ENDBRANCH  36  39
BRANCH  36  41
ATOM     41  C   UNL     1       5.507   3.467  -2.544  1.00  0.00     0.196 C 
BRANCH  41  42
ATOM     42  O   UNL     1       6.594   3.829  -1.736  1.00  0.00    -0.393 OA
ATOM     43  H   UNL     1       6.359   4.694  -1.309  1.00  0.00     0.210 HD
ENDBRANCH  41  42
ENDBRANCH  36  41
ENDBRANCH  31  32
ENDBRANCH   6  31
BRANCH   3  44
ATOM     44  C   UNL     1       3.443  -4.782  -0.435  1.00  0.00     0.191 C 
BRANCH  44  45
ATOM     45  O   UNL     1       2.386  -5.221  -1.246  1.00  0.00    -0.394 OA
ATOM     46  H   UNL     1       1.649  -5.486  -0.635  1.00  0.00     0.210 HD
ENDBRANCH  44  45
ENDBRANCH   3  44
BRANCH   5  47
ATOM     47  O   UNL     1       3.661  -1.836   2.905  1.00  0.00    -0.387 OA
ATOM     48  H   UNL     1       3.095  -2.651   2.882  1.00  0.00     0.211 HD
ENDBRANCH   5  47
BRANCH   4  49
ATOM     49  O   UNL     1       5.600  -2.604  -0.013  1.00  0.00    -0.387 OA
ATOM     50  H   UNL     1       5.407  -1.864  -0.643  1.00  0.00     0.211 HD
ENDBRANCH   4  49
TORSDOF 16
