REMARK SMILES C=C[C@@H]1[C@@H](O[C@@H]2O[C@H](CO)[C@@H](O)[C@H](O)[C@H]2O)OC=C(C(=O)OC)[C@H]1C[C@H]1CC(=O)C[C@H](CCc2ccc(O)cc2)O1
REMARK SMILES IDX 25 1 24 2 3 3 4 4 17 5 19 6 18 7 2 8 1 9 5 10 6 11 7 12
REMARK SMILES IDX 15 13 8 14 13 15 11 16 16 17 9 19 10 20 14 22 12 24 20 26
REMARK SMILES IDX 21 27 22 28 23 29 26 30 27 31 41 32 28 33 31 34 29 35 30 36
REMARK SMILES IDX 32 37 33 38 34 39 35 40 40 41 36 42 39 43 37 44 38 45
REMARK H PARENT 16 18 10 21 14 23 12 25 38 46
ROOT
ATOM      1  C   UNL     1       0.167  -2.863  -0.439  1.00  0.00     0.042 C 
ENDROOT
BRANCH   1   2
ATOM      2  C   UNL     1      -0.423  -1.565   0.192  1.00  0.00     0.045 C 
ATOM      3  C   UNL     1      -1.720  -1.104  -0.528  1.00  0.00     0.088 C 
ATOM      4  C   UNL     1      -2.231   0.224   0.103  1.00  0.00     0.316 C 
ATOM      5  O   UNL     1      -2.064   0.278   1.478  1.00  0.00    -0.471 OA
ATOM      6  C   UNL     1      -0.771  -1.692   1.702  1.00  0.00     0.076 C 
ATOM      7  C   UNL     1      -1.518  -0.699   2.239  1.00  0.00     0.202 C 
BRANCH   3   8
ATOM      8  C   UNL     1      -1.648  -0.855  -2.033  1.00  0.00    -0.024 C 
ATOM      9  C   UNL     1      -0.524  -0.697  -2.747  1.00  0.00     0.004 C 
ENDBRANCH   3   8
BRANCH   4  10
ATOM     10  O   UNL     1      -3.618   0.300  -0.179  1.00  0.00    -0.310 OA
BRANCH  10  11
ATOM     11  C   UNL     1      -4.037   1.556  -0.665  1.00  0.00     0.286 C 
ATOM     12  O   UNL     1      -4.136   2.467   0.421  1.00  0.00    -0.341 OA
ATOM     13  C   UNL     1      -5.429   1.327  -1.294  1.00  0.00     0.202 C 
ATOM     14  C   UNL     1      -4.575   3.750  -0.015  1.00  0.00     0.178 C 
ATOM     15  C   UNL     1      -6.029   2.659  -1.762  1.00  0.00     0.179 C 
ATOM     16  C   UNL     1      -6.016   3.655  -0.590  1.00  0.00     0.177 C 
BRANCH  13  17
ATOM     17  O   UNL     1      -5.365   0.402  -2.351  1.00  0.00    -0.385 OA
ATOM     18  H   UNL     1      -4.750   0.772  -3.037  1.00  0.00     0.211 HD
ENDBRANCH  13  17
BRANCH  14  19
ATOM     19  C   UNL     1      -4.514   4.700   1.195  1.00  0.00     0.191 C 
BRANCH  19  20
ATOM     20  O   UNL     1      -4.897   6.005   0.850  1.00  0.00    -0.394 OA
ATOM     21  H   UNL     1      -4.150   6.390   0.322  1.00  0.00     0.210 HD
ENDBRANCH  19  20
ENDBRANCH  14  19
BRANCH  15  22
ATOM     22  O   UNL     1      -7.327   2.484  -2.271  1.00  0.00    -0.387 OA
ATOM     23  H   UNL     1      -7.889   2.108  -1.543  1.00  0.00     0.211 HD
ENDBRANCH  15  22
BRANCH  16  24
ATOM     24  O   UNL     1      -6.506   4.906  -1.008  1.00  0.00    -0.387 OA
ATOM     25  H   UNL     1      -5.893   5.249  -1.710  1.00  0.00     0.211 HD
ENDBRANCH  16  24
ENDBRANCH  10  11
ENDBRANCH   4  10
BRANCH   6  26
ATOM     26  C   UNL     1      -0.447  -2.853   2.614  1.00  0.00     0.337 C 
ATOM     27  O   UNL     1      -0.660  -2.751   3.817  1.00  0.00    -0.246 OA
BRANCH  26  28
ATOM     28  O   UNL     1      -0.028  -4.044   2.123  1.00  0.00    -0.466 OA
ATOM     29  C   UNL     1       0.184  -5.169   2.890  1.00  0.00     0.282 C 
ENDBRANCH  26  28
ENDBRANCH   6  26
ENDBRANCH   1   2
BRANCH   1  30
ATOM     30  C   UNL     1       1.647  -3.140  -0.075  1.00  0.00     0.126 C 
ATOM     31  C   UNL     1       2.035  -4.534  -0.632  1.00  0.00     0.107 C 
ATOM     32  O   UNL     1       2.476  -2.110  -0.612  1.00  0.00    -0.374 OA
ATOM     33  C   UNL     1       3.497  -4.765  -0.424  1.00  0.00     0.138 C 
ATOM     34  C   UNL     1       3.891  -2.368  -0.546  1.00  0.00     0.126 C 
ATOM     35  O   UNL     1       4.040  -5.777  -0.838  1.00  0.00    -0.300 OA
ATOM     36  C   UNL     1       4.281  -3.665   0.204  1.00  0.00     0.107 C 
BRANCH  34  37
ATOM     37  C   UNL     1       4.616  -1.175   0.095  1.00  0.00     0.037 C 
BRANCH  37  38
ATOM     38  C   UNL     1       4.350   0.134  -0.664  1.00  0.00     0.038 C 
BRANCH  38  39
ATOM     39  C   UNL     1       5.123   1.281  -0.061  1.00  0.00    -0.048 A 
ATOM     40  C   UNL     1       6.529   1.278  -0.078  1.00  0.00     0.007 A 
ATOM     41  C   UNL     1       4.448   2.370   0.516  1.00  0.00     0.007 A 
ATOM     42  C   UNL     1       7.245   2.343   0.475  1.00  0.00     0.046 A 
ATOM     43  C   UNL     1       5.167   3.434   1.070  1.00  0.00     0.046 A 
ATOM     44  C   UNL     1       6.566   3.425   1.052  1.00  0.00     0.115 A 
BRANCH  44  45
ATOM     45  O   UNL     1       7.245   4.459   1.589  1.00  0.00    -0.508 OA
ATOM     46  H   UNL     1       8.212   4.491   1.594  1.00  0.00     0.293 HD
ENDBRANCH  44  45
ENDBRANCH  38  39
ENDBRANCH  37  38
ENDBRANCH  34  37
ENDBRANCH   1  30
TORSDOF 16
