REMARK SMILES C[C@@H]1CC(=O)C[C@@]2(C)[C@H](c3ccoc3)OC(=O)[C@H]3O[C@]132
REMARK SMILES IDX 1 1 2 2 3 3 4 4 5 5 6 6 7 7 8 8 9 9 15 10 16 11 17 12 18 13
REMARK SMILES IDX 19 14 20 15 10 16 14 17 11 18 13 19 12 20
REMARK H PARENT
ROOT
ATOM      1  C   UNL     1      -1.761   1.844  -1.334  1.00  0.00     0.011 C 
ATOM      2  C   UNL     1      -2.140   0.568  -0.564  1.00  0.00     0.029 C 
ATOM      3  C   UNL     1      -2.816   0.837   0.824  1.00  0.00     0.082 C 
ATOM      4  C   UNL     1      -2.138   0.247   2.073  1.00  0.00     0.134 C 
ATOM      5  O   UNL     1      -2.749   0.303   3.129  1.00  0.00    -0.300 OA
ATOM      6  C   UNL     1      -0.800  -0.490   2.064  1.00  0.00     0.089 C 
ATOM      7  C   UNL     1       0.004  -0.205   0.774  1.00  0.00     0.048 C 
ATOM      8  C   UNL     1       0.489   1.272   0.897  1.00  0.00     0.019 C 
ATOM      9  C   UNL     1       1.288  -1.118   0.647  1.00  0.00     0.219 C 
ATOM     10  O   UNL     1       0.989  -2.403   0.228  1.00  0.00    -0.455 OA
ATOM     11  C   UNL     1       0.250  -2.642  -0.884  1.00  0.00     0.339 C 
ATOM     12  O   UNL     1       0.386  -3.688  -1.497  1.00  0.00    -0.249 OA
ATOM     13  C   UNL     1      -0.807  -1.665  -1.287  1.00  0.00     0.261 C 
ATOM     14  O   UNL     1      -1.674  -1.664  -0.207  1.00  0.00    -0.353 OA
ATOM     15  C   UNL     1      -0.987  -0.440  -0.416  1.00  0.00     0.119 C 
ENDROOT
BRANCH   9  16
ATOM     16  C   UNL     1       2.350  -0.558  -0.289  1.00  0.00     0.031 A 
ATOM     17  C   UNL     1       2.256  -0.290  -1.644  1.00  0.00     0.202 A 
ATOM     18  C   UNL     1       3.632  -0.206   0.080  1.00  0.00     0.049 A 
ATOM     19  O   UNL     1       3.401   0.191  -2.073  1.00  0.00    -0.472 OA
ATOM     20  C   UNL     1       4.244   0.253  -1.066  1.00  0.00     0.195 A 
ENDBRANCH   9  16
TORSDOF 1
