REMARK SMILES O=C1CC[C@@H](O)[C@@H]2[C@@H]1[C@@H](O)C=CC21Oc2cccc3cccc(c23)O1
REMARK SMILES IDX 1 1 2 2 3 3 4 4 5 5 7 6 8 7 9 8 11 9 12 10 13 11 14 12 15 13
REMARK SMILES IDX 16 14 17 15 18 16 19 17 20 18 21 19 22 20 23 21 24 22 25 23
REMARK SMILES IDX 10 24 6 26
REMARK H PARENT 10 25 6 27
ROOT
ATOM      1  O   UNL     1      -3.348   2.105  -2.576  1.00  0.00    -0.299 OA
ATOM      2  C   UNL     1      -2.892   1.151  -1.963  1.00  0.00     0.139 C 
ATOM      3  C   UNL     1      -3.122  -0.253  -2.441  1.00  0.00     0.079 C 
ATOM      4  C   UNL     1      -1.798  -1.036  -2.555  1.00  0.00     0.040 C 
ATOM      5  C   UNL     1      -0.768  -0.692  -1.431  1.00  0.00     0.127 C 
ATOM      6  C   UNL     1      -1.443   0.028  -0.222  1.00  0.00     0.121 C 
ATOM      7  C   UNL     1      -2.097   1.352  -0.688  1.00  0.00     0.102 C 
ATOM      8  C   UNL     1      -2.958   1.952   0.453  1.00  0.00     0.148 C 
ATOM      9  C   UNL     1      -2.273   1.870   1.805  1.00  0.00     0.009 C 
ATOM     10  C   UNL     1      -1.156   1.150   2.027  1.00  0.00     0.064 C 
ATOM     11  C   UNL     1      -0.469   0.326   0.956  1.00  0.00     0.277 C 
ATOM     12  O   UNL     1      -0.078  -0.898   1.506  1.00  0.00    -0.448 OA
ATOM     13  C   UNL     1       1.201  -1.344   1.571  1.00  0.00     0.136 A 
ATOM     14  C   UNL     1       1.494  -2.603   2.107  1.00  0.00     0.047 A 
ATOM     15  C   UNL     1       2.822  -3.048   2.167  1.00  0.00     0.004 A 
ATOM     16  C   UNL     1       3.864  -2.237   1.695  1.00  0.00     0.009 A 
ATOM     17  C   UNL     1       3.577  -0.974   1.157  1.00  0.00    -0.011 A 
ATOM     18  C   UNL     1       4.589  -0.129   0.674  1.00  0.00     0.009 A 
ATOM     19  C   UNL     1       4.258   1.125   0.143  1.00  0.00     0.004 A 
ATOM     20  C   UNL     1       2.921   1.540   0.089  1.00  0.00     0.047 A 
ATOM     21  C   UNL     1       1.910   0.701   0.568  1.00  0.00     0.136 A 
ATOM     22  C   UNL     1       2.236  -0.541   1.100  1.00  0.00     0.066 A 
ATOM     23  O   UNL     1       0.615   1.084   0.511  1.00  0.00    -0.448 OA
ENDROOT
BRANCH   8  24
ATOM     24  O   UNL     1      -4.228   1.350   0.532  1.00  0.00    -0.388 OA
ATOM     25  H   UNL     1      -4.108   0.414   0.836  1.00  0.00     0.211 HD
ENDBRANCH   8  24
BRANCH   5  26
ATOM     26  O   UNL     1       0.284   0.087  -1.954  1.00  0.00    -0.392 OA
ATOM     27  H   UNL     1      -0.101   0.829  -2.487  1.00  0.00     0.210 HD
ENDBRANCH   5  26
TORSDOF 2
