REMARK SMILES CC(=O)/C=C/c1ccc(O)c(OO[C@H]2C[C@@](OOc3cc(/C=C/C(C)=O)ccc3O)(C(=O)O)C[C@H](O)[C@@H]2O)c1
REMARK SMILES IDX 14 1 15 2 16 3 34 4 35 5 37 6 13 7 12 8 11 9 6 10 7 11 39 12
REMARK SMILES IDX 8 13 9 14 5 15 4 16 2 17 3 18 1 19 10 20 38 22 17 24 18 25
REMARK SMILES IDX 19 26 20 27 29 28 21 29 28 30 27 31 30 32 22 34 23 35 24 36
REMARK SMILES IDX 26 37 25 38 31 39 32 40 33 41 36 43
REMARK H PARENT 10 21 38 23 30 33 33 42 36 44
ROOT
ATOM      1  C   UNL     1      -0.909  -1.106   0.192  1.00  0.00     0.204 C 
ATOM      2  C   UNL     1       0.373  -1.194   1.083  1.00  0.00     0.092 C 
ATOM      3  C   UNL     1       1.565  -2.054   0.531  1.00  0.00     0.216 C 
ATOM      4  C   UNL     1       1.450  -2.093  -1.016  1.00  0.00     0.087 C 
ATOM      5  C   UNL     1       0.120  -2.705  -1.535  1.00  0.00     0.149 C 
ATOM      6  C   UNL     1      -1.112  -2.387  -0.631  1.00  0.00     0.176 C 
ENDROOT
BRANCH   1   7
ATOM      7  O   UNL     1      -2.014  -0.914   1.053  1.00  0.00    -0.182 OA
BRANCH   7   8
ATOM      8  O   UNL     1      -2.722   0.080   0.613  1.00  0.00    -0.333 OA
BRANCH   8   9
ATOM      9  C   UNL     1      -4.071   0.004   0.474  1.00  0.00     0.207 A 
ATOM     10  C   UNL     1      -6.187   1.199   0.180  1.00  0.00    -0.021 A 
ATOM     11  C   UNL     1      -6.869  -0.033   0.198  1.00  0.00     0.012 A 
ATOM     12  C   UNL     1      -4.786   1.197   0.308  1.00  0.00     0.063 A 
ATOM     13  C   UNL     1      -6.166  -1.227   0.359  1.00  0.00     0.051 A 
ATOM     14  C   UNL     1      -4.774  -1.223   0.508  1.00  0.00     0.161 A 
BRANCH  10  15
ATOM     15  C   UNL     1      -6.881   2.514   0.057  1.00  0.00     0.012 C 
ATOM     16  C   UNL     1      -8.213   2.671  -0.084  1.00  0.00     0.047 C 
BRANCH  16  17
ATOM     17  C   UNL     1      -8.866   4.001  -0.167  1.00  0.00     0.152 C 
ATOM     18  O   UNL     1     -10.076   4.051  -0.319  1.00  0.00    -0.295 OA
ATOM     19  C   UNL     1      -8.095   5.286  -0.051  1.00  0.00     0.093 C 
ENDBRANCH  16  17
ENDBRANCH  10  15
BRANCH  14  20
ATOM     20  O   UNL     1      -4.120  -2.391   0.679  1.00  0.00    -0.504 OA
ATOM     21  H   UNL     1      -4.577  -3.244   0.694  1.00  0.00     0.293 HD
ENDBRANCH  14  20
ENDBRANCH   8   9
ENDBRANCH   7   8
ENDBRANCH   1   7
BRANCH   6  22
ATOM     22  O   UNL     1      -2.300  -2.381  -1.384  1.00  0.00    -0.388 OA
ATOM     23  H   UNL     1      -2.352  -1.514  -1.865  1.00  0.00     0.211 HD
ENDBRANCH   6  22
BRANCH   3  24
ATOM     24  O   UNL     1       2.771  -1.391   0.892  1.00  0.00    -0.169 OA
BRANCH  24  25
ATOM     25  O   UNL     1       3.747  -2.101   0.405  1.00  0.00    -0.332 OA
BRANCH  25  26
ATOM     26  C   UNL     1       4.981  -1.628   0.122  1.00  0.00     0.207 A 
ATOM     27  C   UNL     1       5.330  -0.278   0.312  1.00  0.00     0.063 A 
ATOM     28  C   UNL     1       5.928  -2.532  -0.375  1.00  0.00     0.161 A 
ATOM     29  C   UNL     1       6.636   0.169   0.004  1.00  0.00    -0.021 A 
ATOM     30  C   UNL     1       7.220  -2.093  -0.680  1.00  0.00     0.051 A 
ATOM     31  C   UNL     1       7.570  -0.757  -0.493  1.00  0.00     0.012 A 
BRANCH  28  32
ATOM     32  O   UNL     1       5.587  -3.825  -0.555  1.00  0.00    -0.504 OA
ATOM     33  H   UNL     1       6.210  -4.482  -0.895  1.00  0.00     0.293 HD
ENDBRANCH  28  32
BRANCH  29  34
ATOM     34  C   UNL     1       7.092   1.578   0.174  1.00  0.00     0.012 C 
ATOM     35  C   UNL     1       6.328   2.590   0.626  1.00  0.00     0.047 C 
BRANCH  35  36
ATOM     36  C   UNL     1       6.864   3.969   0.765  1.00  0.00     0.152 C 
ATOM     37  O   UNL     1       8.024   4.218   0.471  1.00  0.00    -0.295 OA
ATOM     38  C   UNL     1       5.991   5.078   1.266  1.00  0.00     0.093 C 
ENDBRANCH  35  36
ENDBRANCH  29  34
ENDBRANCH  25  26
ENDBRANCH  24  25
ENDBRANCH   3  24
BRANCH   3  39
ATOM     39  C   UNL     1       1.537  -3.464   1.175  1.00  0.00     0.340 C 
ATOM     40  O   UNL     1       0.636  -4.246   0.931  1.00  0.00    -0.249 OA
BRANCH  39  41
ATOM     41  O   UNL     1       2.476  -3.859   2.067  1.00  0.00    -0.479 OA
ATOM     42  H   UNL     1       3.178  -3.288   2.406  1.00  0.00     0.296 HD
ENDBRANCH  39  41
ENDBRANCH   3  39
BRANCH   5  43
ATOM     43  O   UNL     1      -0.080  -2.302  -2.868  1.00  0.00    -0.390 OA
ATOM     44  H   UNL     1      -0.205  -1.317  -2.871  1.00  0.00     0.211 HD
ENDBRANCH   5  43
TORSDOF 16
