REMARK SMILES COCCn1ccc2c(OCC(=O)NCCc3c[nH]c4ccc(OC)cc34)cccc21
REMARK SMILES IDX 11 1 10 2 9 3 5 4 6 5 31 6 7 7 30 8 8 9 29 10 28 11 4 12
REMARK SMILES IDX 3 13 2 14 1 15 12 16 13 17 14 18 15 20 16 21 17 22 18 23
REMARK SMILES IDX 27 24 19 25 26 26 20 27 23 28 21 29 22 30 24 32 25 33
REMARK H PARENT 14 19 19 31
ROOT
ATOM      1  C   UNL     1       0.233  -2.077  -1.577  1.00  0.00     0.329 C 
ENDROOT
BRANCH   1   2
ATOM      2  O   UNL     1      -1.099  -1.985  -1.200  1.00  0.00    -0.483 OA
BRANCH   2   3
ATOM      3  C   UNL     1      -1.934  -0.933  -1.419  1.00  0.00     0.129 A 
ATOM      4  N   UNL     1      -5.306  -0.225  -0.526  1.00  0.00    -0.345 N 
ATOM      5  C   UNL     1      -5.178  -1.460   0.019  1.00  0.00     0.087 A 
ATOM      6  C   UNL     1      -4.121   0.064  -1.100  1.00  0.00     0.052 A 
ATOM      7  C   UNL     1      -3.905  -1.960  -0.221  1.00  0.00     0.032 A 
ATOM      8  C   UNL     1      -3.747   1.232  -1.772  1.00  0.00     0.027 A 
ATOM      9  C   UNL     1      -3.243  -0.977  -0.930  1.00  0.00     0.042 A 
ATOM     10  C   UNL     1      -2.441   1.311  -2.279  1.00  0.00     0.006 A 
ATOM     11  C   UNL     1      -1.539   0.240  -2.110  1.00  0.00     0.047 A 
BRANCH   4  12
ATOM     12  C   UNL     1      -6.499   0.620  -0.469  1.00  0.00     0.150 C 
BRANCH  12  13
ATOM     13  C   UNL     1      -6.520   1.407   0.845  1.00  0.00     0.181 C 
BRANCH  13  14
ATOM     14  O   UNL     1      -7.582   2.341   0.880  1.00  0.00    -0.383 OA
ATOM     15  C   UNL     1      -8.802   1.702   1.184  1.00  0.00     0.194 C 
ENDBRANCH  13  14
ENDBRANCH  12  13
ENDBRANCH   4  12
ENDBRANCH   2   3
ENDBRANCH   1   2
BRANCH   1  16
ATOM     16  C   UNL     1       1.161  -1.138  -0.824  1.00  0.00     0.257 C 
ATOM     17  O   UNL     1       2.341  -1.144  -1.135  1.00  0.00    -0.271 OA
ATOM     18  N   UNL     1       0.713  -0.293   0.151  1.00  0.00    -0.353 N 
ATOM     19  H   UNL     1      -0.288  -0.268   0.384  1.00  0.00     0.163 HD
BRANCH  18  20
ATOM     20  C   UNL     1       1.559   0.637   0.885  1.00  0.00     0.121 C 
BRANCH  20  21
ATOM     21  C   UNL     1       2.409  -0.063   1.961  1.00  0.00     0.059 C 
BRANCH  21  22
ATOM     22  C   UNL     1       3.539  -0.895   1.431  1.00  0.00    -0.021 A 
ATOM     23  C   UNL     1       3.659  -2.276   1.537  1.00  0.00     0.087 A 
ATOM     24  C   UNL     1       4.681  -0.463   0.780  1.00  0.00     0.006 A 
ATOM     25  N   UNL     1       4.815  -2.687   0.969  1.00  0.00    -0.361 N 
ATOM     26  C   UNL     1       5.120   0.813   0.423  1.00  0.00     0.057 A 
ATOM     27  C   UNL     1       5.431  -1.580   0.518  1.00  0.00     0.046 A 
ATOM     28  C   UNL     1       6.368   0.937  -0.222  1.00  0.00     0.119 A 
ATOM     29  C   UNL     1       6.663  -1.503  -0.123  1.00  0.00     0.030 A 
ATOM     30  C   UNL     1       7.136  -0.232  -0.494  1.00  0.00     0.048 A 
ATOM     31  H   UNL     1       5.163  -3.670   0.905  1.00  0.00     0.166 HD
BRANCH  28  32
ATOM     32  O   UNL     1       6.799   2.182  -0.554  1.00  0.00    -0.497 OA
ATOM     33  C   UNL     1       8.008   2.482  -1.146  1.00  0.00     0.278 C 
ENDBRANCH  28  32
ENDBRANCH  21  22
ENDBRANCH  20  21
ENDBRANCH  18  20
ENDBRANCH   1  16
TORSDOF 10
