REMARK SMILES CC(C)=CCc1ccc(O)c(C=O)c1C=CCCC[C@H](C)O
REMARK SMILES IDX 17 1 16 2 15 3 14 4 6 5 7 6 8 7 11 8 9 9 5 10 4 11 2 12 1 13
REMARK SMILES IDX 3 14 12 15 13 16 10 17 18 19 19 20 20 21 21 22 22 23
REMARK H PARENT 10 18 22 24
ROOT
ATOM      1  C   UNL     1       2.417  -0.275  -1.076  1.00  0.00     0.027 C 
ENDROOT
BRANCH   1   2
ATOM      2  C   UNL     1       1.362  -1.295  -0.722  1.00  0.00    -0.026 C 
ATOM      3  C   UNL     1       0.106  -0.909  -0.426  1.00  0.00     0.005 C 
BRANCH   3   4
ATOM      4  C   UNL     1      -1.066  -1.794  -0.087  1.00  0.00    -0.008 A 
ATOM      5  C   UNL     1      -2.369  -1.322  -0.457  1.00  0.00    -0.036 A 
ATOM      6  C   UNL     1      -3.489  -2.138  -0.260  1.00  0.00     0.008 A 
ATOM      7  C   UNL     1      -3.366  -3.390   0.314  1.00  0.00     0.047 A 
ATOM      8  C   UNL     1      -0.952  -3.083   0.543  1.00  0.00     0.064 A 
ATOM      9  C   UNL     1      -2.123  -3.867   0.725  1.00  0.00     0.126 A 
BRANCH   5  10
ATOM     10  C   UNL     1      -2.610   0.036  -1.095  1.00  0.00     0.063 C 
BRANCH  10  11
ATOM     11  C   UNL     1      -2.538   1.133  -0.048  1.00  0.00    -0.024 C 
ATOM     12  C   UNL     1      -3.527   2.020   0.212  1.00  0.00    -0.080 C 
ATOM     13  C   UNL     1      -3.307   3.040   1.301  1.00  0.00     0.039 C 
ATOM     14  C   UNL     1      -4.828   2.025  -0.553  1.00  0.00     0.039 C 
ENDBRANCH  10  11
ENDBRANCH   5  10
BRANCH   8  15
ATOM     15  C   UNL     1       0.344  -3.601   1.085  1.00  0.00     0.264 C 
ATOM     16  O   UNL     1       0.453  -4.737   1.520  1.00  0.00    -0.298 OA
ENDBRANCH   8  15
BRANCH   9  17
ATOM     17  O   UNL     1      -2.060  -5.081   1.316  1.00  0.00    -0.507 OA
ATOM     18  H   UNL     1      -2.843  -5.631   1.464  1.00  0.00     0.293 HD
ENDBRANCH   9  17
ENDBRANCH   3   4
ENDBRANCH   1   2
BRANCH   1  19
ATOM     19  C   UNL     1       3.562  -0.326  -0.058  1.00  0.00     0.007 C 
BRANCH  19  20
ATOM     20  C   UNL     1       4.658   0.726  -0.318  1.00  0.00     0.032 C 
BRANCH  20  21
ATOM     21  C   UNL     1       4.161   2.186  -0.184  1.00  0.00     0.111 C 
ATOM     22  C   UNL     1       5.298   3.187  -0.407  1.00  0.00     0.038 C 
BRANCH  21  23
ATOM     23  O   UNL     1       3.564   2.405   1.070  1.00  0.00    -0.393 OA
ATOM     24  H   UNL     1       4.250   2.226   1.765  1.00  0.00     0.210 HD
ENDBRANCH  21  23
ENDBRANCH  20  21
ENDBRANCH  19  20
ENDBRANCH   1  19
TORSDOF 10
