REMARK SMILES COc1cc(CO)cc(OC)c1O
REMARK SMILES IDX 3 1 4 2 5 3 8 4 9 5 12 6 2 7 1 8 13 9 6 11 7 12 10 14 11 15
REMARK H PARENT 13 10 7 13
ROOT
ATOM      1  C   UNL     1       1.513   0.095   0.054  1.00  0.00     0.164 A 
ATOM      2  C   UNL     1       0.764  -1.095   0.129  1.00  0.00     0.056 A 
ATOM      3  C   UNL     1      -0.635  -1.063   0.059  1.00  0.00    -0.015 A 
ATOM      4  C   UNL     1      -1.292   0.166  -0.088  1.00  0.00     0.056 A 
ATOM      5  C   UNL     1      -0.559   1.368  -0.162  1.00  0.00     0.164 A 
ATOM      6  C   UNL     1       0.847   1.322  -0.089  1.00  0.00     0.200 A 
ENDROOT
BRANCH   1   7
ATOM      7  O   UNL     1       2.872   0.101   0.117  1.00  0.00    -0.493 OA
ATOM      8  C   UNL     1       3.681  -1.009   0.242  1.00  0.00     0.278 C 
ENDBRANCH   1   7
BRANCH   6   9
ATOM      9  O   UNL     1       1.580   2.455  -0.157  1.00  0.00    -0.502 OA
ATOM     10  H   UNL     1       1.186   3.333  -0.255  1.00  0.00     0.293 HD
ENDBRANCH   6   9
BRANCH   3  11
ATOM     11  C   UNL     1      -1.422  -2.345   0.140  1.00  0.00     0.191 C 
BRANCH  11  12
ATOM     12  O   UNL     1      -1.222  -2.961   1.384  1.00  0.00    -0.392 OA
ATOM     13  H   UNL     1      -0.401  -3.514   1.306  1.00  0.00     0.211 HD
ENDBRANCH  11  12
ENDBRANCH   3  11
BRANCH   5  14
ATOM     14  O   UNL     1      -1.169   2.576  -0.300  1.00  0.00    -0.493 OA
ATOM     15  C   UNL     1      -2.529   2.794  -0.377  1.00  0.00     0.278 C 
ENDBRANCH   5  14
TORSDOF 5
