REMARK SMILES COC(=O)[C@@H]1CN(C(=O)NC(C)C)CCN1S(=O)(=O)c1ccccc1
REMARK SMILES IDX 5 1 6 2 7 3 14 4 15 5 16 6 3 7 4 8 2 9 1 10 17 11 18 12
REMARK SMILES IDX 19 13 20 14 21 15 25 16 22 17 24 18 23 19 8 20 9 21 10 22
REMARK SMILES IDX 11 24 12 25 13 26
REMARK H PARENT 10 23
ROOT
ATOM      1  C   UNL     1      -0.744  -1.395  -0.523  1.00  0.00     0.202 C 
ATOM      2  C   UNL     1       0.307  -1.000  -1.594  1.00  0.00     0.153 C 
ATOM      3  N   UNL     1       1.287  -0.087  -1.006  1.00  0.00    -0.321 N 
ATOM      4  C   UNL     1       0.765   1.103  -0.327  1.00  0.00     0.138 C 
ATOM      5  C   UNL     1      -0.772   1.082  -0.259  1.00  0.00     0.125 C 
ATOM      6  N   UNL     1      -1.160  -0.222   0.290  1.00  0.00    -0.180 NA
ENDROOT
BRANCH   1   7
ATOM      7  C   UNL     1      -0.191  -2.450   0.405  1.00  0.00     0.326 C 
ATOM      8  O   UNL     1       0.179  -3.523  -0.051  1.00  0.00    -0.250 OA
BRANCH   7   9
ATOM      9  O   UNL     1      -0.141  -2.212   1.742  1.00  0.00    -0.468 OA
ATOM     10  C   UNL     1       0.265  -3.138   2.677  1.00  0.00     0.282 C 
ENDBRANCH   7   9
ENDBRANCH   1   7
BRANCH   6  11
ATOM     11  S   UNL     1      -2.847  -0.281   0.856  1.00  0.00     0.243 S 
ATOM     12  O   UNL     1      -3.182  -1.768   1.054  1.00  0.00    -0.207 OA
ATOM     13  O   UNL     1      -2.763   0.179   2.319  1.00  0.00    -0.207 OA
BRANCH  11  14
ATOM     14  C   UNL     1      -4.147   0.600  -0.008  1.00  0.00     0.082 A 
ATOM     15  C   UNL     1      -4.320   1.974   0.206  1.00  0.00     0.022 A 
ATOM     16  C   UNL     1      -5.012  -0.084  -0.872  1.00  0.00     0.022 A 
ATOM     17  C   UNL     1      -5.354   2.659  -0.440  1.00  0.00     0.001 A 
ATOM     18  C   UNL     1      -6.047   0.603  -1.515  1.00  0.00     0.001 A 
ATOM     19  C   UNL     1      -6.218   1.974  -1.298  1.00  0.00     0.000 A 
ENDBRANCH  11  14
ENDBRANCH   6  11
BRANCH   3  20
ATOM     20  C   UNL     1       2.639  -0.350  -1.068  1.00  0.00     0.317 C 
ATOM     21  O   UNL     1       3.030  -1.358  -1.641  1.00  0.00    -0.249 OA
ATOM     22  N   UNL     1       3.556   0.488  -0.489  1.00  0.00    -0.336 N 
ATOM     23  H   UNL     1       3.247   1.339   0.003  1.00  0.00     0.165 HD
BRANCH  22  24
ATOM     24  C   UNL     1       4.992   0.243  -0.506  1.00  0.00     0.077 C 
ATOM     25  C   UNL     1       5.705   1.415  -1.184  1.00  0.00     0.030 C 
ATOM     26  C   UNL     1       5.494   0.065   0.929  1.00  0.00     0.030 C 
ENDBRANCH  22  24
ENDBRANCH   3  20
TORSDOF 6
