REMARK SMILES CCCC[C]CC[C]CCCCCCCCCCOC[C@H](COC(=O)CC[C]CCCCCCCCC[C]CC[C]CCCCC)OC(=O)CCCCCCC/C=C\CCCCCCCC
REMARK SMILES IDX 23 1 22 2 21 3 47 4 48 5 49 6 50 7 51 8 52 9 53 10 54 11
REMARK SMILES IDX 55 12 56 13 57 14 58 15 59 16 60 17 61 18 62 19 63 20 64 21
REMARK SMILES IDX 65 22 66 23 20 24 19 25 18 26 17 27 16 28 15 29 14 30 13 31
REMARK SMILES IDX 12 32 11 33 10 34 9 35 8 36 7 37 6 38 5 39 4 40 3 41 2 42
REMARK SMILES IDX 1 43 24 44 25 45 26 46 27 47 28 48 29 49 30 50 31 51 32 52
REMARK SMILES IDX 33 53 34 54 35 55 36 56 37 57 38 58 39 59 40 60 41 61 42 62
REMARK SMILES IDX 43 63 44 64 45 65 46 66
REMARK H PARENT
ROOT
ATOM      1  O   UNL     1       9.244 -15.349   0.014  1.00  0.00    -0.462 OA
ENDROOT
BRANCH   1   2
ATOM      2  C   UNL     1       8.485 -14.226  -0.537  1.00  0.00     0.280 C 
BRANCH   2   3
ATOM      3  C   UNL     1       8.090 -12.915   0.389  1.00  0.00     0.239 C 
BRANCH   3   4
ATOM      4  O   UNL     1       7.562 -11.729  -0.336  1.00  0.00    -0.456 OA
BRANCH   4   5
ATOM      5  C   UNL     1       7.133 -10.426   0.129  1.00  0.00     0.306 C 
ATOM      6  O   UNL     1       7.418 -10.120   1.274  1.00  0.00    -0.252 OA
BRANCH   5   7
ATOM      7  C   UNL     1       6.275  -9.282  -0.714  1.00  0.00     0.123 C 
BRANCH   7   8
ATOM      8  C   UNL     1       6.000  -7.794   0.000  1.00  0.00     0.012 C 
BRANCH   8   9
ATOM      9  C   UNL     1       5.250  -6.495   0.000  1.00  0.00     0.001 C 
BRANCH   9  10
ATOM     10  C   UNL     1       4.500  -5.196   0.000  1.00  0.00     0.000 C 
BRANCH  10  11
ATOM     11  C   UNL     1       4.703  -3.678  -0.047  1.00  0.00     0.000 C 
BRANCH  11  12
ATOM     12  C   UNL     1       3.264  -3.099   0.224  1.00  0.00     0.004 C 
BRANCH  12  13
ATOM     13  C   UNL     1       3.076  -1.611   0.046  1.00  0.00     0.027 C 
BRANCH  13  14
ATOM     14  C   UNL     1       1.666  -1.069   0.318  1.00  0.00    -0.031 C 
ATOM     15  C   UNL     1       0.492  -1.606   0.779  1.00  0.00    -0.031 C 
BRANCH  15  16
ATOM     16  C   UNL     1       0.071  -3.006   1.243  1.00  0.00     0.027 C 
BRANCH  16  17
ATOM     17  C   UNL     1      -1.180  -3.489   0.465  1.00  0.00     0.004 C 
BRANCH  17  18
ATOM     18  C   UNL     1      -1.871  -4.792   0.999  1.00  0.00     0.000 C 
BRANCH  18  19
ATOM     19  C   UNL     1      -3.000  -5.196   0.000  1.00  0.00     0.000 C 
BRANCH  19  20
ATOM     20  C   UNL     1      -3.750  -6.495   0.000  1.00  0.00    -0.000 C 
BRANCH  20  21
ATOM     21  C   UNL     1      -4.500  -7.794   0.000  1.00  0.00    -0.000 C 
BRANCH  21  22
ATOM     22  C   UNL     1      -5.250  -9.093   0.000  1.00  0.00    -0.003 C 
ATOM     23  C   UNL     1      -6.000 -10.392   0.000  1.00  0.00     0.004 C 
ENDBRANCH  21  22
ENDBRANCH  20  21
ENDBRANCH  19  20
ENDBRANCH  18  19
ENDBRANCH  17  18
ENDBRANCH  16  17
ENDBRANCH  15  16
ENDBRANCH  13  14
ENDBRANCH  12  13
ENDBRANCH  11  12
ENDBRANCH  10  11
ENDBRANCH   9  10
ENDBRANCH   8   9
ENDBRANCH   7   8
ENDBRANCH   5   7
ENDBRANCH   4   5
ENDBRANCH   3   4
BRANCH   3  24
ATOM     24  C   UNL     1       9.304 -12.616   1.322  1.00  0.00     0.209 C 
BRANCH  24  25
ATOM     25  O   UNL     1      10.495 -12.377   0.592  1.00  0.00    -0.377 OA
BRANCH  25  26
ATOM     26  C   UNL     1      11.590 -13.190   1.031  1.00  0.00     0.160 C 
BRANCH  26  27
ATOM     27  C   UNL     1      12.696 -12.990   0.000  1.00  0.00     0.028 C 
BRANCH  27  28
ATOM     28  C   UNL     1      13.995 -13.740   0.000  1.00  0.00     0.002 C 
BRANCH  28  29
ATOM     29  C   UNL     1      15.294 -14.490   0.000  1.00  0.00     0.000 C 
BRANCH  29  30
ATOM     30  C   UNL     1      16.593 -15.240   0.000  1.00  0.00     0.000 C 
BRANCH  30  31
ATOM     31  C   UNL     1      17.892 -15.990   0.000  1.00  0.00     0.000 C 
BRANCH  31  32
ATOM     32  C   UNL     1      19.191 -16.740   0.000  1.00  0.00     0.000 C 
BRANCH  32  33
ATOM     33  C   UNL     1      20.783 -17.155  -0.341  1.00  0.00     0.000 C 
BRANCH  33  34
ATOM     34  C   UNL     1      21.493 -18.559   0.307  1.00  0.00     0.001 C 
BRANCH  34  35
ATOM     35  C   UNL     1      23.088 -18.990   0.000  1.00  0.00     0.008 C 
BRANCH  35  36
ATOM     36  C   UNL     1      24.387 -19.740   0.000  1.00  0.00    -0.017 C 
BRANCH  36  37
ATOM     37  C   UNL     1      25.686 -20.490   0.000  1.00  0.00     0.009 C 
BRANCH  37  38
ATOM     38  C   UNL     1      26.986 -21.240   0.000  1.00  0.00     0.009 C 
BRANCH  38  39
ATOM     39  C   UNL     1      28.285 -21.990   0.000  1.00  0.00    -0.017 C 
BRANCH  39  40
ATOM     40  C   UNL     1      29.584 -22.740   0.000  1.00  0.00     0.008 C 
BRANCH  40  41
ATOM     41  C   UNL     1      31.306 -22.760  -0.014  1.00  0.00     0.000 C 
BRANCH  41  42
ATOM     42  C   UNL     1      32.182 -24.240   0.000  1.00  0.00    -0.003 C 
ATOM     43  C   UNL     1      33.481 -24.990   0.000  1.00  0.00     0.004 C 
ENDBRANCH  41  42
ENDBRANCH  40  41
ENDBRANCH  39  40
ENDBRANCH  38  39
ENDBRANCH  37  38
ENDBRANCH  36  37
ENDBRANCH  35  36
ENDBRANCH  34  35
ENDBRANCH  33  34
ENDBRANCH  32  33
ENDBRANCH  31  32
ENDBRANCH  30  31
ENDBRANCH  29  30
ENDBRANCH  28  29
ENDBRANCH  27  28
ENDBRANCH  26  27
ENDBRANCH  25  26
ENDBRANCH  24  25
ENDBRANCH   3  24
ENDBRANCH   2   3
ENDBRANCH   1   2
BRANCH   1  44
ATOM     44  C   UNL     1       9.036 -16.758  -0.085  1.00  0.00     0.305 C 
ATOM     45  O   UNL     1       7.917 -17.147  -0.385  1.00  0.00    -0.252 OA
BRANCH  44  46
ATOM     46  C   UNL     1      10.181 -17.902   0.123  1.00  0.00     0.123 C 
BRANCH  46  47
ATOM     47  C   UNL     1       9.750 -19.486   0.000  1.00  0.00     0.020 C 
BRANCH  47  48
ATOM     48  C   UNL     1      10.500 -20.785   0.000  1.00  0.00    -0.017 C 
BRANCH  48  49
ATOM     49  C   UNL     1      11.250 -22.084   0.000  1.00  0.00     0.008 C 
BRANCH  49  50
ATOM     50  C   UNL     1      11.815 -23.605  -0.437  1.00  0.00     0.001 C 
BRANCH  50  51
ATOM     51  C   UNL     1      12.975 -24.457   0.474  1.00  0.00     0.000 C 
BRANCH  51  52
ATOM     52  C   UNL     1      13.500 -25.981   0.000  1.00  0.00     0.000 C 
BRANCH  52  53
ATOM     53  C   UNL     1      14.250 -27.280   0.000  1.00  0.00     0.000 C 
BRANCH  53  54
ATOM     54  C   UNL     1      15.000 -28.579   0.000  1.00  0.00     0.000 C 
BRANCH  54  55
ATOM     55  C   UNL     1      15.316 -30.229   0.030  1.00  0.00     0.000 C 
BRANCH  55  56
ATOM     56  C   UNL     1      16.905 -30.831  -0.035  1.00  0.00     0.001 C 
BRANCH  56  57
ATOM     57  C   UNL     1      17.250 -32.476   0.000  1.00  0.00     0.008 C 
BRANCH  57  58
ATOM     58  C   UNL     1      18.000 -33.775   0.000  1.00  0.00    -0.017 C 
BRANCH  58  59
ATOM     59  C   UNL     1      18.750 -35.074   0.000  1.00  0.00     0.009 C 
BRANCH  59  60
ATOM     60  C   UNL     1      19.500 -36.373   0.000  1.00  0.00     0.009 C 
BRANCH  60  61
ATOM     61  C   UNL     1      20.250 -37.672   0.000  1.00  0.00    -0.017 C 
BRANCH  61  62
ATOM     62  C   UNL     1      21.000 -38.971   0.000  1.00  0.00     0.008 C 
BRANCH  62  63
ATOM     63  C   UNL     1      21.486 -40.535   0.378  1.00  0.00     0.001 C 
BRANCH  63  64
ATOM     64  C   UNL     1      22.755 -41.323  -0.437  1.00  0.00    -0.000 C 
BRANCH  64  65
ATOM     65  C   UNL     1      23.250 -42.868   0.000  1.00  0.00    -0.003 C 
ATOM     66  C   UNL     1      24.000 -44.167   0.000  1.00  0.00     0.004 C 
ENDBRANCH  64  65
ENDBRANCH  63  64
ENDBRANCH  62  63
ENDBRANCH  61  62
ENDBRANCH  60  61
ENDBRANCH  59  60
ENDBRANCH  58  59
ENDBRANCH  57  58
ENDBRANCH  56  57
ENDBRANCH  55  56
ENDBRANCH  54  55
ENDBRANCH  53  54
ENDBRANCH  52  53
ENDBRANCH  51  52
ENDBRANCH  50  51
ENDBRANCH  49  50
ENDBRANCH  48  49
ENDBRANCH  47  48
ENDBRANCH  46  47
ENDBRANCH  44  46
ENDBRANCH   1  44
TORSDOF 59
