REMARK SMILES COc1cc([C@H]2Oc3cc(/C=C\CO)ccc3O[C@@H]2C(=O)O)ccc1O
REMARK SMILES IDX 6 1 7 2 8 3 9 4 10 5 15 6 16 7 17 8 18 9 19 10 5 11 3 12
REMARK SMILES IDX 4 13 25 14 24 15 23 16 2 17 1 18 26 19 20 21 21 22 22 23
REMARK SMILES IDX 11 25 12 26 13 27 14 28
REMARK H PARENT 26 20 22 24 14 29
ROOT
ATOM      1  C   UNL     1      -1.552  -1.865   0.811  1.00  0.00     0.256 C 
ATOM      2  O   UNL     1      -1.067  -1.611  -0.470  1.00  0.00    -0.477 OA
ATOM      3  C   UNL     1       0.180  -1.122  -0.706  1.00  0.00     0.163 A 
ATOM      4  C   UNL     1       0.595  -0.823  -2.006  1.00  0.00     0.058 A 
ATOM      5  C   UNL     1       1.875  -0.282  -2.253  1.00  0.00    -0.022 A 
ATOM      6  C   UNL     1       2.724  -0.049  -1.146  1.00  0.00     0.012 A 
ATOM      7  C   UNL     1       2.306  -0.351   0.155  1.00  0.00     0.051 A 
ATOM      8  C   UNL     1       1.042  -0.896   0.373  1.00  0.00     0.162 A 
ATOM      9  O   UNL     1       0.629  -1.228   1.623  1.00  0.00    -0.470 OA
ATOM     10  C   UNL     1      -0.384  -2.160   1.800  1.00  0.00     0.327 C 
ENDROOT
BRANCH   1  11
ATOM     11  C   UNL     1      -2.431  -0.714   1.280  1.00  0.00     0.001 A 
ATOM     12  C   UNL     1      -2.776   1.642   1.876  1.00  0.00     0.160 A 
ATOM     13  C   UNL     1      -1.937   0.599   1.421  1.00  0.00     0.058 A 
ATOM     14  C   UNL     1      -4.114   1.361   2.187  1.00  0.00     0.157 A 
ATOM     15  C   UNL     1      -4.609   0.060   2.044  1.00  0.00     0.050 A 
ATOM     16  C   UNL     1      -3.778  -0.965   1.595  1.00  0.00     0.012 A 
BRANCH  12  17
ATOM     17  O   UNL     1      -2.335   2.919   2.028  1.00  0.00    -0.493 OA
ATOM     18  C   UNL     1      -1.061   3.373   1.768  1.00  0.00     0.278 C 
ENDBRANCH  12  17
BRANCH  14  19
ATOM     19  O   UNL     1      -4.919   2.351   2.626  1.00  0.00    -0.504 OA
ATOM     20  H   UNL     1      -5.846   2.198   2.856  1.00  0.00     0.293 HD
ENDBRANCH  14  19
ENDBRANCH   1  11
BRANCH  10  21
ATOM     21  C   UNL     1       0.147  -3.573   1.586  1.00  0.00     0.349 C 
ATOM     22  O   UNL     1      -0.616  -4.518   1.717  1.00  0.00    -0.248 OA
BRANCH  21  23
ATOM     23  O   UNL     1       1.443  -3.830   1.292  1.00  0.00    -0.478 OA
ATOM     24  H   UNL     1       2.121  -3.148   1.216  1.00  0.00     0.296 HD
ENDBRANCH  21  23
ENDBRANCH  10  21
BRANCH   5  25
ATOM     25  C   UNL     1       2.224  -0.006  -3.686  1.00  0.00     0.006 C 
ATOM     26  C   UNL     1       3.304   0.598  -4.233  1.00  0.00     0.001 C 
BRANCH  26  27
ATOM     27  C   UNL     1       4.486   1.204  -3.530  1.00  0.00     0.183 C 
BRANCH  27  28
ATOM     28  O   UNL     1       4.083   2.254  -2.692  1.00  0.00    -0.392 OA
ATOM     29  H   UNL     1       3.810   3.003  -3.284  1.00  0.00     0.210 HD
ENDBRANCH  27  28
ENDBRANCH  26  27
ENDBRANCH   5  25
TORSDOF 8
