REMARK SMILES CC(=O)O[C@@H]1C[C@H]2[C@]3(C)CC[C@H]4C(C)(C)CCC[C@]4(C)[C@H]3C[C@@H](O)[C@]2(C)c2occc21
REMARK SMILES IDX 5 1 6 2 7 3 8 4 9 5 10 6 11 7 12 8 13 9 14 10 15 11 16 12
REMARK SMILES IDX 17 13 18 14 19 15 20 16 21 17 22 18 23 19 25 20 26 21 27 22
REMARK SMILES IDX 31 23 30 24 29 25 28 26 4 27 2 28 3 29 1 30 24 31
REMARK H PARENT 24 32
ROOT
ATOM      1  C   UNL     1       3.947  -0.356   0.684  1.00  0.00     0.210 C 
ATOM      2  C   UNL     1       2.523   0.140   1.078  1.00  0.00     0.055 C 
ATOM      3  C   UNL     1       1.451   0.082  -0.083  1.00  0.00     0.015 C 
ATOM      4  C   UNL     1       0.144   0.948   0.146  1.00  0.00    -0.025 C 
ATOM      5  C   UNL     1       0.493   2.473   0.091  1.00  0.00     0.012 C 
ATOM      6  C   UNL     1      -0.509   0.765   1.567  1.00  0.00     0.008 C 
ATOM      7  C   UNL     1      -1.533  -0.357   1.699  1.00  0.00     0.005 C 
ATOM      8  C   UNL     1      -2.657  -0.333   0.594  1.00  0.00     0.001 C 
ATOM      9  C   UNL     1      -4.149  -0.502   1.066  1.00  0.00    -0.032 C 
ATOM     10  C   UNL     1      -4.702   0.746   1.789  1.00  0.00     0.011 C 
ATOM     11  C   UNL     1      -4.282  -1.688   2.061  1.00  0.00     0.011 C 
ATOM     12  C   UNL     1      -5.002  -0.875  -0.187  1.00  0.00     0.007 C 
ATOM     13  C   UNL     1      -4.802   0.062  -1.389  1.00  0.00     0.001 C 
ATOM     14  C   UNL     1      -3.309   0.131  -1.801  1.00  0.00     0.007 C 
ATOM     15  C   UNL     1      -2.393   0.650  -0.646  1.00  0.00    -0.026 C 
ATOM     16  C   UNL     1      -2.712   2.164  -0.467  1.00  0.00     0.012 C 
ATOM     17  C   UNL     1      -0.863   0.448  -0.979  1.00  0.00     0.004 C 
ATOM     18  C   UNL     1      -0.322   0.769  -2.399  1.00  0.00     0.037 C 
ATOM     19  C   UNL     1       0.979  -0.067  -2.630  1.00  0.00     0.128 C 
ATOM     20  C   UNL     1       2.089   0.163  -1.548  1.00  0.00     0.055 C 
ATOM     21  C   UNL     1       2.885   1.458  -1.883  1.00  0.00     0.023 C 
ATOM     22  C   UNL     1       3.065  -1.005  -1.560  1.00  0.00     0.119 A 
ATOM     23  C   UNL     1       3.882  -1.276  -0.493  1.00  0.00     0.035 A 
ATOM     24  C   UNL     1       4.494  -2.478  -0.752  1.00  0.00     0.050 A 
ATOM     25  C   UNL     1       4.003  -2.873  -1.987  1.00  0.00     0.195 A 
ATOM     26  O   UNL     1       3.136  -1.985  -2.434  1.00  0.00    -0.468 OA
ENDROOT
BRANCH   1  27
ATOM     27  O   UNL     1       4.592  -0.932   1.766  1.00  0.00    -0.458 OA
BRANCH  27  28
ATOM     28  C   UNL     1       5.735  -0.475   2.342  1.00  0.00     0.303 C 
ATOM     29  O   UNL     1       6.314   0.511   1.908  1.00  0.00    -0.253 OA
ATOM     30  C   UNL     1       6.284  -1.192   3.533  1.00  0.00     0.139 C 
ENDBRANCH  27  28
ENDBRANCH   1  27
BRANCH  19  31
ATOM     31  O   UNL     1       1.472   0.081  -3.940  1.00  0.00    -0.392 OA
ATOM     32  H   UNL     1       1.461   1.049  -4.163  1.00  0.00     0.210 HD
ENDBRANCH  19  31
TORSDOF 3
