REMARK SMILES C[C@@H]1O[C@@H](O[C@@H]2CO[C@@H](O[C@H]3[C@@H](O)C[C@H](O[C@H]4CC[C@@]5(C)[C@@H](CC[C@]6(O)[C@@H]5CC[C@]5(C)[C@@H](C7=CC(=O)OC7)[C@H](O)C(=O)[C@@]56O)C4)O[C@@H]3C)[C@H](O)[C@H]2O)[C@H](O)[C@H](O)[C@H]1O
REMARK SMILES IDX 10 1 9 2 6 3 7 4 51 5 8 6 49 7 5 8 4 9 2 10 3 11 57 12 55 13
REMARK SMILES IDX 53 14 1 15 58 16 56 18 54 20 52 22 50 24 11 26 12 27 47 28
REMARK SMILES IDX 14 29 46 30 15 31 48 32 13 33 16 35 17 36 18 37 45 38 19 39
REMARK SMILES IDX 22 40 20 41 23 42 27 43 24 44 25 45 28 46 43 47 29 48 41 49
REMARK SMILES IDX 30 50 39 51 42 52 32 53 21 54 31 55 26 56 44 58 40 60 33 62
REMARK SMILES IDX 34 63 38 64 35 65 37 66 36 67
REMARK H PARENT 58 17 56 19 54 21 52 23 50 25 13 34 26 57 44 59 40 61
ROOT
ATOM      1  O   UNL     1       4.373  -0.012   1.591  1.00  0.00    -0.341 OA
ENDROOT
BRANCH   1   2
ATOM      2  C   UNL     1       5.613  -0.095   0.899  1.00  0.00     0.282 C 
ATOM      3  C   UNL     1       8.490   0.025   0.956  1.00  0.00     0.179 C 
ATOM      4  C   UNL     1       7.641  -1.252   0.862  1.00  0.00     0.198 C 
ATOM      5  C   UNL     1       7.704   1.187   0.329  1.00  0.00     0.179 C 
ATOM      6  O   UNL     1       6.405  -1.086   1.539  1.00  0.00    -0.347 OA
ATOM      7  C   UNL     1       6.312   1.281   0.983  1.00  0.00     0.202 C 
BRANCH   3   8
ATOM      8  O   UNL     1       9.694  -0.158   0.227  1.00  0.00    -0.341 OA
BRANCH   8   9
ATOM      9  C   UNL     1      10.874  -0.112   1.021  1.00  0.00     0.282 C 
ATOM     10  C   UNL     1      12.153   0.500  -0.865  1.00  0.00     0.150 C 
ATOM     11  O   UNL     1      11.790   0.830   0.474  1.00  0.00    -0.344 OA
ATOM     12  C   UNL     1      12.877  -0.873  -0.921  1.00  0.00     0.174 C 
ATOM     13  C   UNL     1      11.968  -1.954  -0.301  1.00  0.00     0.179 C 
ATOM     14  C   UNL     1      11.516  -1.518   1.107  1.00  0.00     0.202 C 
ATOM     15  C   UNL     1      13.056   1.610  -1.401  1.00  0.00     0.041 C 
BRANCH  12  16
ATOM     16  O   UNL     1      13.230  -1.216  -2.239  1.00  0.00    -0.388 OA
ATOM     17  H   UNL     1      12.395  -1.244  -2.776  1.00  0.00     0.211 HD
ENDBRANCH  12  16
BRANCH  13  18
ATOM     18  O   UNL     1      12.591  -3.215  -0.276  1.00  0.00    -0.387 OA
ATOM     19  H   UNL     1      13.452  -3.118   0.208  1.00  0.00     0.211 HD
ENDBRANCH  13  18
BRANCH  14  20
ATOM     20  O   UNL     1      12.590  -1.538   2.021  1.00  0.00    -0.385 OA
ATOM     21  H   UNL     1      13.163  -0.744   1.866  1.00  0.00     0.211 HD
ENDBRANCH  14  20
ENDBRANCH   8   9
ENDBRANCH   3   8
BRANCH   5  22
ATOM     22  O   UNL     1       8.406   2.399   0.440  1.00  0.00    -0.387 OA
ATOM     23  H   UNL     1       8.540   2.581   1.407  1.00  0.00     0.211 HD
ENDBRANCH   5  22
BRANCH   7  24
ATOM     24  O   UNL     1       5.538   2.286   0.378  1.00  0.00    -0.385 OA
ATOM     25  H   UNL     1       5.425   2.042  -0.578  1.00  0.00     0.211 HD
ENDBRANCH   7  24
ENDBRANCH   1   2
BRANCH   1  26
ATOM     26  C   UNL     1       3.233  -0.231   0.768  1.00  0.00     0.179 C 
ATOM     27  C   UNL     1       2.489  -1.503   1.246  1.00  0.00     0.151 C 
ATOM     28  C   UNL     1       2.303   1.028   0.761  1.00  0.00     0.150 C 
ATOM     29  C   UNL     1       1.133  -1.503   0.554  1.00  0.00     0.096 C 
ATOM     30  O   UNL     1       1.085   0.835   1.467  1.00  0.00    -0.347 OA
ATOM     31  C   UNL     1       0.309  -0.286   1.041  1.00  0.00     0.253 C 
ATOM     32  C   UNL     1       2.030   1.580  -0.650  1.00  0.00     0.041 C 
BRANCH  27  33
ATOM     33  O   UNL     1       2.331  -1.583   2.646  1.00  0.00    -0.390 OA
ATOM     34  H   UNL     1       2.315  -0.670   3.033  1.00  0.00     0.211 HD
ENDBRANCH  27  33
BRANCH  31  35
ATOM     35  O   UNL     1      -0.557   0.115  -0.002  1.00  0.00    -0.349 OA
BRANCH  35  36
ATOM     36  C   UNL     1      -1.936  -0.025   0.275  1.00  0.00     0.121 C 
ATOM     37  C   UNL     1      -2.528   1.370   0.581  1.00  0.00     0.033 C 
ATOM     38  C   UNL     1      -2.582  -0.693  -0.961  1.00  0.00     0.036 C 
ATOM     39  C   UNL     1      -4.081   1.355   0.613  1.00  0.00     0.010 C 
ATOM     40  C   UNL     1      -4.111  -0.696  -0.810  1.00  0.00    -0.002 C 
ATOM     41  C   UNL     1      -4.680   0.774  -0.708  1.00  0.00    -0.024 C 
ATOM     42  C   UNL     1      -4.878  -1.673  -1.756  1.00  0.00     0.007 C 
ATOM     43  C   UNL     1      -6.242   0.619  -0.660  1.00  0.00     0.031 C 
ATOM     44  C   UNL     1      -5.879  -0.989  -2.685  1.00  0.00     0.039 C 
ATOM     45  C   UNL     1      -6.861   0.012  -1.976  1.00  0.00     0.104 C 
ATOM     46  C   UNL     1      -7.069   1.843  -0.165  1.00  0.00     0.008 C 
ATOM     47  C   UNL     1      -8.270  -0.614  -1.597  1.00  0.00     0.160 C 
ATOM     48  C   UNL     1      -8.570   1.779  -0.585  1.00  0.00     0.011 C 
ATOM     49  C   UNL     1      -8.220  -1.899  -0.792  1.00  0.00     0.196 C 
ATOM     50  C   UNL     1      -9.161   0.338  -0.655  1.00  0.00     0.016 C 
ATOM     51  C   UNL     1      -9.062  -1.853   0.436  1.00  0.00     0.192 C 
ATOM     52  O   UNL     1      -7.790  -2.951  -1.245  1.00  0.00    -0.293 OA
ATOM     53  C   UNL     1      -9.167  -0.356   0.753  1.00  0.00     0.065 C 
ATOM     54  C   UNL     1      -4.256   1.729  -1.881  1.00  0.00     0.012 C 
ATOM     55  C   UNL     1     -10.618   0.425  -1.195  1.00  0.00     0.016 C 
BRANCH  45  56
ATOM     56  O   UNL     1      -7.133   0.995  -2.961  1.00  0.00    -0.386 OA
ATOM     57  H   UNL     1      -6.699   1.857  -2.750  1.00  0.00     0.211 HD
ENDBRANCH  45  56
BRANCH  47  58
ATOM     58  O   UNL     1      -8.917  -0.873  -2.831  1.00  0.00    -0.378 OA
ATOM     59  H   UNL     1      -9.612  -1.573  -2.719  1.00  0.00     0.212 HD
ENDBRANCH  47  58
BRANCH  51  60
ATOM     60  O   UNL     1      -8.529  -2.586   1.512  1.00  0.00    -0.385 OA
ATOM     61  H   UNL     1      -7.588  -2.296   1.642  1.00  0.00     0.211 HD
ENDBRANCH  51  60
BRANCH  53  62
ATOM     62  C   UNL     1     -10.321   0.011   1.694  1.00  0.00    -0.019 C 
ATOM     63  C   UNL     1     -11.261  -0.826   2.135  1.00  0.00     0.096 C 
ATOM     64  C   UNL     1     -10.584   1.387   2.274  1.00  0.00     0.265 C 
ATOM     65  C   UNL     1     -12.134  -0.044   2.969  1.00  0.00     0.331 C 
ATOM     66  O   UNL     1     -11.721   1.228   3.044  1.00  0.00    -0.458 OA
ATOM     67  O   UNL     1     -13.132  -0.466   3.531  1.00  0.00    -0.247 OA
ENDBRANCH  53  62
ENDBRANCH  35  36
ENDBRANCH  31  35
ENDBRANCH   1  26
TORSDOF 16
