REMARK SMILES CCOc1ccccc1C(=O)[C@@H]1[C@@H]2CCCN2[C@]2(C(O)=Nc3c(Cl)cc(C)cc32)[C@@]12C(O)=Nc1ccccc12
REMARK SMILES IDX 4 1 5 2 6 3 7 4 8 5 9 6 3 7 2 8 1 9 10 10 11 11 12 12 13 13
REMARK SMILES IDX 30 14 14 15 17 16 18 17 31 18 39 19 15 20 16 21 19 22 29 23
REMARK SMILES IDX 33 24 38 25 34 26 21 27 28 28 22 29 37 30 35 31 26 32 23 33
REMARK SMILES IDX 36 34 25 35 27 36 24 37 32 38 20 40
REMARK H PARENT 32 39 20 41
ROOT
ATOM      1  C   UNL     1      -4.376   0.061  -0.456  1.00  0.00     0.130 A 
ATOM      2  C   UNL     1      -5.583  -0.052  -1.177  1.00  0.00     0.047 A 
ATOM      3  C   UNL     1      -5.573  -0.149  -2.567  1.00  0.00     0.004 A 
ATOM      4  C   UNL     1      -4.366  -0.134  -3.258  1.00  0.00     0.001 A 
ATOM      5  C   UNL     1      -3.161  -0.022  -2.565  1.00  0.00     0.016 A 
ATOM      6  C   UNL     1      -3.137   0.075  -1.156  1.00  0.00     0.060 A 
ENDROOT
BRANCH   1   7
ATOM      7  O   UNL     1      -4.375   0.165   0.900  1.00  0.00    -0.493 OA
BRANCH   7   8
ATOM      8  C   UNL     1      -5.475   0.203   1.731  1.00  0.00     0.226 C 
ATOM      9  C   UNL     1      -5.006   0.335   3.172  1.00  0.00     0.049 C 
ENDBRANCH   7   8
ENDBRANCH   1   7
BRANCH   6  10
ATOM     10  C   UNL     1      -1.832   0.220  -0.416  1.00  0.00     0.172 C 
ATOM     11  O   UNL     1      -1.871   0.400   0.786  1.00  0.00    -0.294 OA
BRANCH  10  12
ATOM     12  C   UNL     1      -0.485   0.286  -1.135  1.00  0.00     0.101 C 
ATOM     13  C   UNL     1      -0.032  -1.012  -1.902  1.00  0.00     0.070 C 
ATOM     14  C   UNL     1       0.825   0.681  -0.367  1.00  0.00     0.116 C 
ATOM     15  C   UNL     1      -0.870  -2.320  -1.906  1.00  0.00     0.021 C 
ATOM     16  N   UNL     1       1.325  -1.373  -1.439  1.00  0.00    -0.281 NA
ATOM     17  C   UNL     1       1.542  -0.680  -0.150  1.00  0.00     0.145 C 
ATOM     18  C   UNL     1       1.618   1.632  -1.310  1.00  0.00     0.200 C 
ATOM     19  C   UNL     1       0.786   1.608   0.847  1.00  0.00    -0.003 A 
ATOM     20  C   UNL     1       0.048  -3.387  -1.319  1.00  0.00     0.017 C 
ATOM     21  C   UNL     1       1.438  -2.831  -1.558  1.00  0.00     0.086 C 
ATOM     22  C   UNL     1       1.079  -1.448   1.117  1.00  0.00     0.213 C 
ATOM     23  C   UNL     1       3.012  -0.551   0.218  1.00  0.00     0.011 A 
ATOM     24  N   UNL     1       1.903   2.766  -0.785  1.00  0.00    -0.217 NA
ATOM     25  C   UNL     1       0.283   1.433   2.148  1.00  0.00     0.007 A 
ATOM     26  C   UNL     1       1.421   2.783   0.520  1.00  0.00     0.071 A 
ATOM     27  N   UNL     1       2.024  -1.655   1.959  1.00  0.00    -0.214 NA
ATOM     28  C   UNL     1       4.087   0.041  -0.461  1.00  0.00     0.012 A 
ATOM     29  C   UNL     1       3.204  -1.117   1.451  1.00  0.00     0.091 A 
ATOM     30  C   UNL     1       0.415   2.478   3.077  1.00  0.00     0.000 A 
ATOM     31  C   UNL     1       1.567   3.834   1.421  1.00  0.00     0.029 A 
ATOM     32  C   UNL     1       5.352   0.077   0.161  1.00  0.00    -0.049 A 
ATOM     33  C   UNL     1       4.446  -1.115   2.089  1.00  0.00     0.067 A 
ATOM     34  C   UNL     1       1.051   3.677   2.713  1.00  0.00     0.002 A 
ATOM     35  C   UNL     1       5.526  -0.505   1.436  1.00  0.00     0.026 A 
ATOM     36  C   UNL     1       6.497   0.750  -0.535  1.00  0.00     0.044 C 
ATOM     37  Cl  UNL     1       4.652  -1.835   3.676  1.00  0.00    -0.082 Cl
BRANCH  18  38
ATOM     38  O   UNL     1       1.992   1.372  -2.584  1.00  0.00    -0.496 OA
ATOM     39  H   UNL     1       1.847   0.532  -3.030  1.00  0.00     0.295 HD
ENDBRANCH  18  38
BRANCH  22  40
ATOM     40  O   UNL     1      -0.171  -1.860   1.419  1.00  0.00    -0.495 OA
ATOM     41  H   UNL     1      -0.922  -1.773   0.830  1.00  0.00     0.295 HD
ENDBRANCH  22  40
ENDBRANCH  10  12
ENDBRANCH   6  10
TORSDOF 6
