REMARK SMILES CCCCCCCCCCCCCCCCCCCCCCC[C@@H](O)C(=O)N[C@@H](CO)[C@H](O)[C@H](O)CCCCCCCCCCCCCC
REMARK SMILES IDX 21 1 20 2 19 3 18 4 17 5 16 6 15 7 14 8 13 9 12 10 11 11
REMARK SMILES IDX 10 12 9 13 8 14 7 15 6 16 5 17 4 18 3 19 2 20 1 21 22 22
REMARK SMILES IDX 23 23 24 24 25 25 26 27 27 28 28 29 29 31 30 32 31 33 32 35
REMARK SMILES IDX 33 36 34 38 35 39 36 41 37 42 38 43 39 44 40 45 41 46 42 47
REMARK SMILES IDX 43 48 44 49 45 50 46 51 47 52 48 53 49 54
REMARK H PARENT 25 26 28 30 31 34 33 37 35 40
ROOT
ATOM      1  C   UNL     1       1.156  -3.825  -0.715  1.00  0.00     0.000 C 
ENDROOT
BRANCH   1   2
ATOM      2  C   UNL     1       2.569  -3.467  -0.240  1.00  0.00     0.000 C 
BRANCH   2   3
ATOM      3  C   UNL     1       2.834  -3.959   1.194  1.00  0.00     0.000 C 
BRANCH   3   4
ATOM      4  C   UNL     1       4.297  -3.852   1.615  1.00  0.00     0.000 C 
BRANCH   4   5
ATOM      5  C   UNL     1       4.848  -2.422   1.571  1.00  0.00     0.000 C 
BRANCH   5   6
ATOM      6  C   UNL     1       6.295  -2.438   2.062  1.00  0.00     0.000 C 
BRANCH   6   7
ATOM      7  C   UNL     1       7.020  -1.094   1.960  1.00  0.00     0.000 C 
BRANCH   7   8
ATOM      8  C   UNL     1       7.138  -0.609   0.501  1.00  0.00     0.000 C 
BRANCH   8   9
ATOM      9  C   UNL     1       8.186   0.502   0.306  1.00  0.00     0.000 C 
BRANCH   9  10
ATOM     10  C   UNL     1       9.619   0.107   0.734  1.00  0.00     0.000 C 
BRANCH  10  11
ATOM     11  C   UNL     1      10.118  -1.194   0.069  1.00  0.00     0.000 C 
BRANCH  11  12
ATOM     12  C   UNL     1      11.497  -1.651   0.576  1.00  0.00     0.000 C 
BRANCH  12  13
ATOM     13  C   UNL     1      12.640  -0.659   0.331  1.00  0.00    -0.000 C 
BRANCH  13  14
ATOM     14  C   UNL     1      12.886  -0.395  -1.163  1.00  0.00    -0.000 C 
BRANCH  14  15
ATOM     15  C   UNL     1      14.068   0.559  -1.408  1.00  0.00    -0.000 C 
BRANCH  15  16
ATOM     16  C   UNL     1      13.923   1.957  -0.773  1.00  0.00    -0.000 C 
BRANCH  16  17
ATOM     17  C   UNL     1      12.719   2.746  -1.306  1.00  0.00    -0.000 C 
BRANCH  17  18
ATOM     18  C   UNL     1      12.419   4.084  -0.597  1.00  0.00    -0.000 C 
BRANCH  18  19
ATOM     19  C   UNL     1      13.492   5.187  -0.675  1.00  0.00    -0.000 C 
BRANCH  19  20
ATOM     20  C   UNL     1      14.631   5.045   0.352  1.00  0.00    -0.003 C 
ATOM     21  C   UNL     1      15.588   6.229   0.267  1.00  0.00     0.004 C 
ENDBRANCH  19  20
ENDBRANCH  18  19
ENDBRANCH  17  18
ENDBRANCH  16  17
ENDBRANCH  15  16
ENDBRANCH  14  15
ENDBRANCH  13  14
ENDBRANCH  12  13
ENDBRANCH  11  12
ENDBRANCH  10  11
ENDBRANCH   9  10
ENDBRANCH   8   9
ENDBRANCH   7   8
ENDBRANCH   6   7
ENDBRANCH   5   6
ENDBRANCH   4   5
ENDBRANCH   3   4
ENDBRANCH   2   3
ENDBRANCH   1   2
BRANCH   1  22
ATOM     22  C   UNL     1       0.034  -3.307   0.193  1.00  0.00     0.003 C 
BRANCH  22  23
ATOM     23  C   UNL     1      -0.094  -1.781   0.394  1.00  0.00     0.042 C 
BRANCH  23  24
ATOM     24  C   UNL     1      -0.553  -0.948  -0.829  1.00  0.00     0.203 C 
BRANCH  24  25
ATOM     25  O   UNL     1       0.525  -0.651  -1.685  1.00  0.00    -0.383 OA
ATOM     26  H   UNL     1       0.715  -1.435  -2.255  1.00  0.00     0.211 HD
ENDBRANCH  24  25
BRANCH  24  27
ATOM     27  C   UNL     1      -1.732  -1.576  -1.568  1.00  0.00     0.249 C 
ATOM     28  O   UNL     1      -1.658  -1.744  -2.776  1.00  0.00    -0.272 OA
ATOM     29  N   UNL     1      -2.854  -1.960  -0.887  1.00  0.00    -0.346 N 
ATOM     30  H   UNL     1      -2.882  -1.794   0.127  1.00  0.00     0.164 HD
BRANCH  29  31
ATOM     31  C   UNL     1      -3.986  -2.623  -1.529  1.00  0.00     0.139 C 
BRANCH  31  32
ATOM     32  C   UNL     1      -3.546  -4.015  -2.088  1.00  0.00     0.183 C 
BRANCH  32  33
ATOM     33  O   UNL     1      -3.310  -4.973  -1.084  1.00  0.00    -0.394 OA
ATOM     34  H   UNL     1      -2.884  -4.527  -0.311  1.00  0.00     0.210 HD
ENDBRANCH  32  33
ENDBRANCH  31  32
BRANCH  31  35
ATOM     35  C   UNL     1      -5.192  -2.817  -0.550  1.00  0.00     0.167 C 
BRANCH  35  36
ATOM     36  O   UNL     1      -6.149  -3.633  -1.177  1.00  0.00    -0.388 OA
ATOM     37  H   UNL     1      -6.444  -3.168  -2.003  1.00  0.00     0.211 HD
ENDBRANCH  35  36
BRANCH  35  38
ATOM     38  C   UNL     1      -5.876  -1.507  -0.035  1.00  0.00     0.145 C 
BRANCH  38  39
ATOM     39  O   UNL     1      -4.927  -0.592   0.454  1.00  0.00    -0.390 OA
ATOM     40  H   UNL     1      -4.584  -0.936   1.320  1.00  0.00     0.211 HD
ENDBRANCH  38  39
BRANCH  38  41
ATOM     41  C   UNL     1      -6.933  -1.765   1.083  1.00  0.00     0.034 C 
BRANCH  41  42
ATOM     42  C   UNL     1      -8.117  -2.686   0.729  1.00  0.00     0.003 C 
BRANCH  42  43
ATOM     43  C   UNL     1      -9.015  -2.165  -0.410  1.00  0.00     0.000 C 
BRANCH  43  44
ATOM     44  C   UNL     1      -9.755  -0.846  -0.111  1.00  0.00     0.000 C 
BRANCH  44  45
ATOM     45  C   UNL     1     -10.690  -0.978   1.102  1.00  0.00     0.000 C 
BRANCH  45  46
ATOM     46  C   UNL     1     -11.491   0.269   1.508  1.00  0.00     0.000 C 
BRANCH  46  47
ATOM     47  C   UNL     1     -12.666   0.677   0.601  1.00  0.00     0.000 C 
BRANCH  47  48
ATOM     48  C   UNL     1     -12.292   1.505  -0.642  1.00  0.00    -0.000 C 
BRANCH  48  49
ATOM     49  C   UNL     1     -13.529   1.940  -1.455  1.00  0.00    -0.000 C 
BRANCH  49  50
ATOM     50  C   UNL     1     -14.593   2.732  -0.670  1.00  0.00    -0.000 C 
BRANCH  50  51
ATOM     51  C   UNL     1     -14.046   4.029  -0.050  1.00  0.00    -0.000 C 
BRANCH  51  52
ATOM     52  C   UNL     1     -15.092   4.772   0.800  1.00  0.00    -0.000 C 
BRANCH  52  53
ATOM     53  C   UNL     1     -16.370   5.194   0.054  1.00  0.00    -0.003 C 
ATOM     54  C   UNL     1     -16.095   6.128  -1.122  1.00  0.00     0.004 C 
ENDBRANCH  52  53
ENDBRANCH  51  52
ENDBRANCH  50  51
ENDBRANCH  49  50
ENDBRANCH  48  49
ENDBRANCH  47  48
ENDBRANCH  46  47
ENDBRANCH  45  46
ENDBRANCH  44  45
ENDBRANCH  43  44
ENDBRANCH  42  43
ENDBRANCH  41  42
ENDBRANCH  38  41
ENDBRANCH  35  38
ENDBRANCH  31  35
ENDBRANCH  29  31
ENDBRANCH  24  27
ENDBRANCH  23  24
ENDBRANCH  22  23
ENDBRANCH   1  22
TORSDOF 44
