REMARK SMILES CC[C@@H](C)[C@H](NC(=O)[C@H]1CC[C@@H](CNC(=O)[C@@H]2CCCN2C(=O)OC(C)(C)C)CC1)C(=O)O
REMARK SMILES IDX 13 1 12 2 9 3 30 4 10 5 29 6 11 7 7 8 6 9 8 10 5 12 3 13
REMARK SMILES IDX 4 14 2 15 1 16 31 17 32 18 33 19 14 21 15 22 16 23 17 25
REMARK SMILES IDX 18 26 21 27 19 28 20 29 22 30 23 31 24 32 25 33 26 34 27 35
REMARK SMILES IDX 28 36
REMARK H PARENT 6 11 33 20 14 24
ROOT
ATOM      1  C   UNL     1       1.862  -0.449   1.607  1.00  0.00     0.119 C 
ENDROOT
BRANCH   1   2
ATOM      2  C   UNL     1       0.345  -0.126   1.591  1.00  0.00     0.008 C 
ATOM      3  C   UNL     1      -2.426   0.304   1.431  1.00  0.00     0.078 C 
ATOM      4  C   UNL     1      -1.797  -0.105   0.094  1.00  0.00     0.014 C 
ATOM      5  C   UNL     1      -1.560   1.447   2.062  1.00  0.00     0.014 C 
ATOM      6  C   UNL     1      -0.390  -0.731   0.351  1.00  0.00     0.006 C 
ATOM      7  C   UNL     1      -0.046   1.343   1.730  1.00  0.00     0.006 C 
BRANCH   3   8
ATOM      8  C   UNL     1      -3.898   0.683   1.347  1.00  0.00     0.223 C 
ATOM      9  N   UNL     1      -4.814  -0.210   0.867  1.00  0.00    -0.342 N 
ATOM     10  O   UNL     1      -4.263   1.782   1.744  1.00  0.00    -0.275 OA
ATOM     11  H   UNL     1      -4.479  -1.123   0.529  1.00  0.00     0.164 HD
BRANCH   9  12
ATOM     12  C   UNL     1      -6.250   0.058   0.834  1.00  0.00     0.194 C 
BRANCH  12  13
ATOM     13  C   UNL     1      -6.743   0.145  -0.648  1.00  0.00     0.019 C 
ATOM     14  C   UNL     1      -8.199   0.640  -0.755  1.00  0.00     0.010 C 
BRANCH  13  15
ATOM     15  C   UNL     1      -6.509  -1.117  -1.525  1.00  0.00     0.002 C 
ATOM     16  C   UNL     1      -7.303  -2.366  -1.134  1.00  0.00     0.004 C 
ENDBRANCH  13  15
ENDBRANCH  12  13
BRANCH  12  17
ATOM     17  C   UNL     1      -7.008  -0.936   1.710  1.00  0.00     0.326 C 
ATOM     18  O   UNL     1      -8.210  -0.801   1.869  1.00  0.00    -0.250 OA
BRANCH  17  19
ATOM     19  O   UNL     1      -6.388  -1.948   2.363  1.00  0.00    -0.480 OA
ATOM     20  H   UNL     1      -5.439  -2.120   2.318  1.00  0.00     0.296 HD
ENDBRANCH  17  19
ENDBRANCH  12  17
ENDBRANCH   9  12
ENDBRANCH   3   8
ENDBRANCH   1   2
BRANCH   1  21
ATOM     21  N   UNL     1       2.606  -0.037   0.425  1.00  0.00    -0.354 N 
ATOM     22  C   UNL     1       2.913   1.258   0.111  1.00  0.00     0.242 C 
ATOM     23  O   UNL     1       2.547   2.170   0.835  1.00  0.00    -0.273 OA
ATOM     24  H   UNL     1       2.953  -0.798  -0.174  1.00  0.00     0.163 HD
BRANCH  22  25
ATOM     25  C   UNL     1       3.736   1.621  -1.121  1.00  0.00     0.178 C 
ATOM     26  C   UNL     1       2.894   2.336  -2.182  1.00  0.00     0.037 C 
ATOM     27  N   UNL     1       4.215   0.452  -1.833  1.00  0.00    -0.296 N 
ATOM     28  C   UNL     1       2.284   1.167  -2.935  1.00  0.00     0.024 C 
ATOM     29  C   UNL     1       3.471   0.211  -3.051  1.00  0.00     0.124 C 
BRANCH  27  30
ATOM     30  C   UNL     1       5.288  -0.286  -1.432  1.00  0.00     0.410 C 
ATOM     31  O   UNL     1       5.645  -1.251  -2.094  1.00  0.00    -0.224 OA
BRANCH  30  32
ATOM     32  O   UNL     1       5.961   0.074  -0.301  1.00  0.00    -0.444 OA
BRANCH  32  33
ATOM     33  C   UNL     1       7.069  -0.532   0.282  1.00  0.00     0.106 C 
ATOM     34  C   UNL     1       7.450   0.301   1.516  1.00  0.00     0.056 C 
ATOM     35  C   UNL     1       6.727  -1.965   0.735  1.00  0.00     0.056 C 
ATOM     36  C   UNL     1       8.266  -0.546  -0.692  1.00  0.00     0.056 C 
ENDBRANCH  32  33
ENDBRANCH  30  32
ENDBRANCH  27  30
ENDBRANCH  22  25
ENDBRANCH   1  21
TORSDOF 12
