REMARK SMILES C=C(C)[C@@H](O)CC[C@]1(C)[C@H]2C[C@@H]3[C@H](C2)[C@@]31C
REMARK SMILES IDX 6 1 4 2 2 3 1 4 3 5 5 6 7 8 8 9 10 10 15 11 11 12 14 13
REMARK SMILES IDX 13 14 12 15 9 16 16 17
REMARK H PARENT 5 7
ROOT
ATOM      1  C   UNL     1       1.397  -0.929  -0.683  1.00  0.00     0.037 C 
ENDROOT
BRANCH   1   2
ATOM      2  C   UNL     1       2.229  -0.177   0.383  1.00  0.00     0.139 C 
BRANCH   2   3
ATOM      3  C   UNL     1       3.750  -0.281   0.211  1.00  0.00    -0.052 C 
ATOM      4  C   UNL     1       4.344  -0.906  -0.826  1.00  0.00     0.010 C 
ATOM      5  C   UNL     1       4.611   0.368   1.265  1.00  0.00     0.041 C 
ENDBRANCH   2   3
BRANCH   2   6
ATOM      6  O   UNL     1       1.879   1.180   0.415  1.00  0.00    -0.389 OA
ATOM      7  H   UNL     1       2.192   1.591  -0.433  1.00  0.00     0.211 HD
ENDBRANCH   2   6
ENDBRANCH   1   2
BRANCH   1   8
ATOM      8  C   UNL     1      -0.121  -1.111  -0.416  1.00  0.00     0.010 C 
BRANCH   8   9
ATOM      9  C   UNL     1      -1.076   0.140  -0.393  1.00  0.00    -0.024 C 
ATOM     10  C   UNL     1      -1.129   0.956   0.941  1.00  0.00    -0.004 C 
ATOM     11  C   UNL     1      -2.545  -0.298  -0.316  1.00  0.00    -0.021 C 
ATOM     12  C   UNL     1      -2.335   1.883   0.764  1.00  0.00     0.008 C 
ATOM     13  C   UNL     1      -1.714  -0.030   1.960  1.00  0.00     0.008 C 
ATOM     14  C   UNL     1      -2.929  -0.440   1.146  1.00  0.00    -0.000 C 
ATOM     15  C   UNL     1      -3.333   0.813   0.358  1.00  0.00    -0.000 C 
ATOM     16  C   UNL     1      -0.822   0.981  -1.673  1.00  0.00     0.012 C 
ATOM     17  C   UNL     1      -3.277  -1.147  -1.357  1.00  0.00     0.012 C 
ENDBRANCH   8   9
ENDBRANCH   1   8
TORSDOF 5
