REMARK SMILES COc1c(OC)c(O)c2c(=O)cc(-c3cc(O)ccc3O)oc2c1OC
REMARK SMILES IDX 3 1 4 2 7 3 9 4 10 5 11 6 12 7 13 8 22 9 23 10 24 11 2 12
REMARK SMILES IDX 1 13 5 14 6 15 25 16 26 17 8 18 14 20 15 21 20 22 16 23
REMARK SMILES IDX 19 24 18 25 21 26 17 28
REMARK H PARENT 8 19 21 27 17 29
ROOT
ATOM      1  C   UNL     1      -2.802  -0.509  -0.217  1.00  0.00     0.211 A 
ATOM      2  C   UNL     1      -3.212   0.614   0.546  1.00  0.00     0.208 A 
ATOM      3  C   UNL     1      -2.242   1.456   1.139  1.00  0.00     0.177 A 
ATOM      4  C   UNL     1      -0.865   1.194   0.948  1.00  0.00     0.114 A 
ATOM      5  C   UNL     1       0.154   1.993   1.511  1.00  0.00     0.197 A 
ATOM      6  O   UNL     1      -0.109   2.963   2.202  1.00  0.00    -0.289 OA
ATOM      7  C   UNL     1       1.492   1.677   1.276  1.00  0.00     0.100 A 
ATOM      8  C   UNL     1       1.818   0.566   0.477  1.00  0.00     0.142 A 
ATOM      9  O   UNL     1       0.825  -0.161  -0.034  1.00  0.00    -0.451 OA
ATOM     10  C   UNL     1      -0.468   0.088   0.166  1.00  0.00     0.188 A 
ATOM     11  C   UNL     1      -1.437  -0.755  -0.406  1.00  0.00     0.209 A 
ENDROOT
BRANCH   1  12
ATOM     12  O   UNL     1      -3.662  -1.406  -0.777  1.00  0.00    -0.490 OA
ATOM     13  C   UNL     1      -5.006  -1.576  -0.521  1.00  0.00     0.279 C 
ENDBRANCH   1  12
BRANCH   2  14
ATOM     14  O   UNL     1      -4.526   0.886   0.708  1.00  0.00    -0.490 OA
ATOM     15  C   UNL     1      -5.160   1.886  -0.005  1.00  0.00     0.278 C 
ENDBRANCH   2  14
BRANCH  11  16
ATOM     16  O   UNL     1      -1.081  -1.830  -1.151  1.00  0.00    -0.490 OA
ATOM     17  C   UNL     1      -0.400  -2.916  -0.647  1.00  0.00     0.278 C 
ENDBRANCH  11  16
BRANCH   3  18
ATOM     18  O   UNL     1      -2.624   2.507   1.902  1.00  0.00    -0.504 OA
ATOM     19  H   UNL     1      -3.543   2.706   2.124  1.00  0.00     0.293 HD
ENDBRANCH   3  18
BRANCH   8  20
ATOM     20  C   UNL     1       3.241   0.163   0.182  1.00  0.00     0.063 A 
ATOM     21  C   UNL     1       4.340   0.818   0.791  1.00  0.00     0.062 A 
ATOM     22  C   UNL     1       3.523  -0.901  -0.717  1.00  0.00     0.126 A 
ATOM     23  C   UNL     1       5.661   0.428   0.521  1.00  0.00     0.116 A 
ATOM     24  C   UNL     1       4.850  -1.280  -0.976  1.00  0.00     0.051 A 
ATOM     25  C   UNL     1       5.909  -0.620  -0.360  1.00  0.00     0.050 A 
BRANCH  22  26
ATOM     26  O   UNL     1       2.526  -1.560  -1.343  1.00  0.00    -0.507 OA
ATOM     27  H   UNL     1       2.689  -2.289  -1.959  1.00  0.00     0.293 HD
ENDBRANCH  22  26
BRANCH  23  28
ATOM     28  O   UNL     1       6.700   1.056   1.108  1.00  0.00    -0.508 OA
ATOM     29  H   UNL     1       6.578   1.789   1.728  1.00  0.00     0.293 HD
ENDBRANCH  23  28
ENDBRANCH   8  20
TORSDOF 7
