REMARK SMILES COC1=C(C)C(=O)O/C1=C1/OC2=CC[C@@H]3CC[C@](O)(CCC(C)C)[C@@H]4CCC[C@@H]([C@H]2[C@@H]1C)N34
REMARK SMILES IDX 15 1 16 2 17 3 18 4 25 5 26 6 27 7 28 8 29 9 33 10 30 11
REMARK SMILES IDX 3 12 4 13 9 14 6 15 8 16 10 17 7 18 11 19 31 20 12 21 13 22
REMARK SMILES IDX 5 23 32 24 2 26 1 27 14 28 19 30 20 32 21 33 22 34 23 35
REMARK SMILES IDX 24 36
REMARK H PARENT 19 31
REMARK Flexibility Score:   11.900
ROOT
ATOM      1  C   UNL     1       0.537   0.761   1.936  1.00  0.00     0.061 C 
ATOM      2  C   UNL     1       1.816   1.480   2.384  1.00  0.00     0.022 C 
ATOM      3  C   UNL     1       3.081   0.844   1.751  1.00  0.00     0.038 C 
ATOM      4  C   UNL     1       2.808   0.124   0.385  1.00  0.00     0.080 C 
ATOM      5  C   UNL     1       1.674   0.884  -0.353  1.00  0.00     0.089 C 
ATOM      6  C   UNL     1       2.086   2.319  -0.817  1.00  0.00     0.022 C 
ATOM      7  C   UNL     1       0.898   3.199  -1.236  1.00  0.00     0.003 C 
ATOM      8  C   UNL     1      -0.351   2.357  -1.472  1.00  0.00     0.020 C 
ATOM      9  C   UNL     1      -0.701   1.677  -0.120  1.00  0.00     0.068 C 
ATOM     10  N   UNL     1       0.409   0.861   0.442  1.00  0.00    -0.291 NA
ENDROOT
BRANCH   9  11
ATOM     11  C   UNL     1      -2.022   0.883  -0.137  1.00  0.00     0.083 C 
ATOM     12  C   UNL     1      -5.848  -1.778  -0.263  1.00  0.00     0.175 C 
ATOM     13  C   UNL     1      -6.612  -2.364  -1.179  1.00  0.00     0.080 C 
ATOM     14  C   UNL     1      -4.554  -1.466  -0.893  1.00  0.00     0.212 C 
ATOM     15  C   UNL     1      -5.794  -2.426  -2.390  1.00  0.00     0.343 C 
ATOM     16  O   UNL     1      -4.583  -1.872  -2.181  1.00  0.00    -0.415 OA
ATOM     17  C   UNL     1      -3.507  -0.860  -0.299  1.00  0.00     0.154 C 
ATOM     18  O   UNL     1      -6.147  -2.898  -3.458  1.00  0.00    -0.246 OA
ATOM     19  O   UNL     1      -3.537  -0.476   0.997  1.00  0.00    -0.462 OA
ATOM     20  C   UNL     1      -2.188  -0.430  -0.929  1.00  0.00     0.069 C 
ATOM     21  C   UNL     1      -2.490   0.346   1.197  1.00  0.00     0.105 C 
ATOM     22  C   UNL     1      -1.943   0.491   2.420  1.00  0.00     0.017 CG0
ATOM     23  C   UNL     1      -8.021  -2.849  -1.024  1.00  0.00     0.056 C 
ATOM     24  C   UNL     1      -2.165  -0.353  -2.459  1.00  0.00     0.017 C 
ATOM     25  G   UNL     1      -0.695   1.280   2.731  1.00  0.00     0.000 G0
BRANCH  12  26
ATOM     26  O   UNL     1      -6.217  -1.486   1.005  1.00  0.00    -0.492 OA
ATOM     27  C   UNL     1      -6.853  -0.301   1.306  1.00  0.00     0.278 C 
ENDBRANCH  12  26
ENDBRANCH   9  11
BRANCH   1  28
ATOM     28  C   UNL     1      -0.695   1.280   2.731  1.00  0.00     0.050 CG0
ATOM     29  G   UNL     1      -1.943   0.491   2.420  1.00  0.00     0.000 G0
ENDBRANCH   1  28
BRANCH   4  30
ATOM     30  O   UNL     1       2.313  -1.182   0.605  1.00  0.00    -0.388 OA
ATOM     31  H   UNL     1       2.902  -1.648   1.251  1.00  0.00     0.211 HD
ENDBRANCH   4  30
BRANCH   4  32
ATOM     32  C   UNL     1       4.084   0.037  -0.505  1.00  0.00     0.037 C 
BRANCH  32  33
ATOM     33  C   UNL     1       5.259  -0.756   0.101  1.00  0.00     0.006 C 
BRANCH  33  34
ATOM     34  C   UNL     1       6.514  -0.742  -0.808  1.00  0.00    -0.017 C 
ATOM     35  C   UNL     1       6.275  -1.441  -2.158  1.00  0.00     0.007 C 
ATOM     36  C   UNL     1       7.686  -1.420  -0.087  1.00  0.00     0.007 C 
ENDBRANCH  33  34
ENDBRANCH  32  33
ENDBRANCH   4  32
TORSDOF 5
