REMARK SMILES C=C[C@@]1(C)CC[C@@H]2[C@@]3(C)CC(=O)OC(C)(C)[C@H]3CC[C@@]2(C)O1
REMARK SMILES IDX 3 1 4 2 5 3 6 4 7 5 8 6 9 7 10 8 11 9 12 10 13 11 14 12
REMARK SMILES IDX 15 13 16 14 17 15 18 16 19 17 20 18 21 19 22 20 2 21 1 22
REMARK H PARENT
ROOT
ATOM      1  C   UNL     1       3.253   0.243  -0.261  1.00  0.00     0.084 C 
ATOM      2  C   UNL     1       4.634   0.137  -0.935  1.00  0.00     0.047 C 
ATOM      3  C   UNL     1       2.962  -1.096   0.445  1.00  0.00     0.040 C 
ATOM      4  C   UNL     1       1.573  -1.133   1.083  1.00  0.00     0.010 C 
ATOM      5  C   UNL     1       0.550  -0.258   0.309  1.00  0.00     0.028 C 
ATOM      6  C   UNL     1      -0.976  -0.665   0.531  1.00  0.00    -0.010 C 
ATOM      7  C   UNL     1      -1.201  -2.212   0.370  1.00  0.00     0.013 C 
ATOM      8  C   UNL     1      -1.402  -0.284   1.975  1.00  0.00     0.130 C 
ATOM      9  C   UNL     1      -2.843  -0.694   2.149  1.00  0.00     0.306 C 
ATOM     10  O   UNL     1      -3.180  -1.389   3.094  1.00  0.00    -0.252 OA
ATOM     11  O   UNL     1      -3.701  -0.500   1.114  1.00  0.00    -0.459 OA
ATOM     12  C   UNL     1      -3.411   0.358   0.065  1.00  0.00     0.110 C 
ATOM     13  C   UNL     1      -4.434   0.108  -1.058  1.00  0.00     0.057 C 
ATOM     14  C   UNL     1      -3.652   1.801   0.591  1.00  0.00     0.057 C 
ATOM     15  C   UNL     1      -1.932   0.094  -0.497  1.00  0.00     0.040 C 
ATOM     16  C   UNL     1      -1.273   1.388  -1.017  1.00  0.00     0.011 C 
ATOM     17  C   UNL     1       0.057   1.148  -1.760  1.00  0.00     0.036 C 
ATOM     18  C   UNL     1       0.970   0.016  -1.181  1.00  0.00     0.070 C 
ATOM     19  C   UNL     1       0.838  -1.224  -2.099  1.00  0.00     0.043 C 
ATOM     20  O   UNL     1       2.317   0.504  -1.312  1.00  0.00    -0.365 OA
ENDROOT
BRANCH   1  21
ATOM     21  C   UNL     1       3.270   1.406   0.720  1.00  0.00    -0.000 C 
ATOM     22  C   UNL     1       4.088   1.453   1.779  1.00  0.00     0.007 C 
ENDBRANCH   1  21
TORSDOF 1
