REMARK SMILES COc1ccc(C=CC(=O)c2ccc(O)c([C@H]3C=C(C)C[C@@H](c4ccc(O)cc4O)[C@@H]3C(=O)c3ccc(O)c(CC=C(C)C)c3OC)c2O)c(OC)c1
REMARK SMILES IDX 11 1 12 2 13 3 14 4 16 5 48 6 9 7 10 8 8 9 7 10 6 11 3 12
REMARK SMILES IDX 4 13 53 14 5 15 50 16 2 17 1 18 51 19 52 20 49 21 17 23
REMARK SMILES IDX 18 24 31 25 19 26 22 27 21 28 20 29 32 30 33 31 34 32 35 33
REMARK SMILES IDX 45 34 36 35 39 36 37 37 46 38 47 39 40 40 41 41 42 42 43 43
REMARK SMILES IDX 44 44 38 45 23 47 24 48 29 49 25 50 28 51 26 52 30 53 27 55
REMARK SMILES IDX 15 57
REMARK H PARENT 49 22 38 46 30 54 27 56 15 58
ROOT
ATOM      1  C   UNL     1       2.434   0.543  -0.926  1.00  0.00     0.064 A 
ATOM      2  C   UNL     1       2.252   1.936  -0.981  1.00  0.00     0.020 A 
ATOM      3  C   UNL     1       1.061   2.485  -1.447  1.00  0.00     0.047 A 
ATOM      4  C   UNL     1       0.016   1.670  -1.892  1.00  0.00     0.123 A 
ATOM      5  C   UNL     1       0.146   0.265  -1.856  1.00  0.00     0.044 A 
ATOM      6  C   UNL     1       1.366  -0.295  -1.347  1.00  0.00     0.134 A 
ENDROOT
BRANCH   1   7
ATOM      7  C   UNL     1       3.740  -0.065  -0.460  1.00  0.00     0.189 C 
ATOM      8  O   UNL     1       3.855  -1.283  -0.448  1.00  0.00    -0.289 OA
BRANCH   7   9
ATOM      9  C   UNL     1       4.930   0.733  -0.045  1.00  0.00     0.053 C 
ATOM     10  C   UNL     1       6.096   0.123   0.268  1.00  0.00     0.016 C 
BRANCH  10  11
ATOM     11  C   UNL     1       7.353   0.809   0.694  1.00  0.00     0.017 A 
ATOM     12  C   UNL     1       9.754   2.052   1.528  1.00  0.00     0.122 A 
ATOM     13  C   UNL     1       8.607   2.819   1.268  1.00  0.00     0.047 A 
ATOM     14  C   UNL     1       9.697   0.666   1.365  1.00  0.00     0.093 A 
ATOM     15  C   UNL     1       7.424   2.207   0.856  1.00  0.00     0.016 A 
ATOM     16  C   UNL     1       8.508   0.030   0.950  1.00  0.00     0.129 A 
BRANCH  12  17
ATOM     17  O   UNL     1      10.924   2.605   1.938  1.00  0.00    -0.497 OA
ATOM     18  C   UNL     1      11.140   3.948   2.166  1.00  0.00     0.278 C 
ENDBRANCH  12  17
BRANCH  16  19
ATOM     19  O   UNL     1       8.445  -1.321   0.788  1.00  0.00    -0.496 OA
ATOM     20  C   UNL     1       9.474  -2.218   0.986  1.00  0.00     0.278 C 
ENDBRANCH  16  19
ENDBRANCH  10  11
ENDBRANCH   7   9
ENDBRANCH   1   7
BRANCH   6  21
ATOM     21  O   UNL     1       1.563  -1.631  -1.267  1.00  0.00    -0.507 OA
ATOM     22  H   UNL     1       0.952  -2.329  -1.504  1.00  0.00     0.293 HD
ENDBRANCH   6  21
BRANCH   5  23
ATOM     23  C   UNL     1      -1.018  -0.611  -2.357  1.00  0.00     0.061 C 
ATOM     24  C   UNL     1      -0.511  -1.664  -3.331  1.00  0.00    -0.019 C 
ATOM     25  C   UNL     1      -1.757  -1.307  -1.170  1.00  0.00     0.081 C 
ATOM     26  C   UNL     1      -1.284  -2.718  -3.653  1.00  0.00    -0.076 C 
ATOM     27  C   UNL     1      -2.801  -2.402  -1.615  1.00  0.00     0.039 C 
ATOM     28  C   UNL     1      -2.690  -2.759  -3.124  1.00  0.00     0.039 C 
ATOM     29  C   UNL     1      -0.762  -3.830  -4.519  1.00  0.00     0.039 C 
BRANCH  25  30
ATOM     30  C   UNL     1      -2.360  -0.300  -0.191  1.00  0.00     0.171 C 
ATOM     31  O   UNL     1      -1.884  -0.294   0.935  1.00  0.00    -0.294 OA
BRANCH  30  32
ATOM     32  C   UNL     1      -3.490   0.657  -0.520  1.00  0.00     0.060 A 
ATOM     33  C   UNL     1      -4.150   0.615  -1.767  1.00  0.00     0.019 A 
ATOM     34  C   UNL     1      -3.943   1.618   0.431  1.00  0.00     0.136 A 
ATOM     35  C   UNL     1      -5.221   1.451  -2.057  1.00  0.00     0.047 A 
ATOM     36  C   UNL     1      -5.046   2.461   0.137  1.00  0.00     0.040 A 
ATOM     37  C   UNL     1      -5.684   2.365  -1.114  1.00  0.00     0.122 A 
BRANCH  34  38
ATOM     38  O   UNL     1      -3.341   1.721   1.639  1.00  0.00    -0.496 OA
ATOM     39  C   UNL     1      -2.248   2.538   1.848  1.00  0.00     0.278 C 
ENDBRANCH  34  38
BRANCH  36  40
ATOM     40  C   UNL     1      -5.562   3.457   1.157  1.00  0.00     0.070 C 
BRANCH  40  41
ATOM     41  C   UNL     1      -6.876   2.969   1.727  1.00  0.00    -0.023 C 
ATOM     42  C   UNL     1      -7.131   2.667   3.027  1.00  0.00    -0.080 C 
ATOM     43  C   UNL     1      -8.500   2.165   3.411  1.00  0.00     0.039 C 
ATOM     44  C   UNL     1      -6.136   2.781   4.164  1.00  0.00     0.039 C 
ENDBRANCH  40  41
ENDBRANCH  36  40
BRANCH  37  45
ATOM     45  O   UNL     1      -6.732   3.163  -1.410  1.00  0.00    -0.508 OA
ATOM     46  H   UNL     1      -7.188   3.125  -2.264  1.00  0.00     0.293 HD
ENDBRANCH  37  45
ENDBRANCH  30  32
ENDBRANCH  25  30
BRANCH  27  47
ATOM     47  C   UNL     1      -2.786  -3.607  -0.669  1.00  0.00    -0.002 A 
ATOM     48  C   UNL     1      -3.940  -3.878   0.096  1.00  0.00     0.011 A 
ATOM     49  C   UNL     1      -1.660  -4.452  -0.509  1.00  0.00     0.122 A 
ATOM     50  C   UNL     1      -3.974  -4.945   0.995  1.00  0.00     0.047 A 
ATOM     51  C   UNL     1      -1.705  -5.519   0.404  1.00  0.00     0.092 A 
ATOM     52  C   UNL     1      -2.854  -5.766   1.155  1.00  0.00     0.119 A 
BRANCH  49  53
ATOM     53  O   UNL     1      -0.537  -4.240  -1.221  1.00  0.00    -0.508 OA
ATOM     54  H   UNL     1       0.253  -4.790  -1.119  1.00  0.00     0.293 HD
ENDBRANCH  49  53
BRANCH  52  55
ATOM     55  O   UNL     1      -2.871  -6.794   2.028  1.00  0.00    -0.508 OA
ATOM     56  H   UNL     1      -3.647  -6.996   2.570  1.00  0.00     0.293 HD
ENDBRANCH  52  55
ENDBRANCH  27  47
ENDBRANCH   5  23
BRANCH   4  57
ATOM     57  O   UNL     1      -1.125   2.240  -2.338  1.00  0.00    -0.508 OA
ATOM     58  H   UNL     1      -1.256   3.199  -2.349  1.00  0.00     0.293 HD
ENDBRANCH   4  57
TORSDOF 17
