REMARK SMILES CCCCCCCCCCCCCCCCCCCCCCC(=O)N[C@H](CO[C@H]1O[C@H](CO)[C@@H](O[C@H]2O[C@@H](CO)[C@@H](O)[C@@H](O[C@]3(C(=O)O)C[C@@H](O)[C@@H](NC(C)=O)[C@H]([C@@H](O)[C@H](O)CO)O3)[C@H]2O)[C@H](O)[C@@H]1O)[C@@H](O)CCCCCCCCCCCCCCC
REMARK SMILES IDX 20 1 19 2 18 3 17 4 16 5 15 6 14 7 13 8 12 9 11 10 10 11
REMARK SMILES IDX 9 12 8 13 7 14 6 15 5 16 4 17 3 18 2 19 1 20 21 21 22 22
REMARK SMILES IDX 23 23 24 24 25 25 26 27 27 28 28 29 29 30 30 31 69 32 31 33
REMARK SMILES IDX 67 34 34 35 70 36 32 38 33 39 68 41 35 43 36 44 37 45 65 46
REMARK SMILES IDX 38 47 43 48 41 49 66 50 39 52 40 53 44 55 45 56 49 57 64 58
REMARK SMILES IDX 50 59 57 60 52 61 46 62 47 63 48 64 51 66 58 68 59 69 60 71
REMARK SMILES IDX 61 72 62 74 63 75 53 77 54 78 56 79 55 81 42 82 71 84 72 85
REMARK SMILES IDX 73 87 74 88 75 89 76 90 77 91 78 92 79 93 80 94 81 95 82 96
REMARK SMILES IDX 83 97 84 98 85 99 86 100 87 101
REMARK H PARENT 25 26 70 37 33 40 68 42 66 51 40 54 48 65 51 67 59 70 61 73
REMARK H PARENT 63 76 53 80 42 83 72 86
ROOT
ATOM      1  C   UNL     1       1.939  -5.960   0.000  1.00  0.00     0.001 C 
ENDROOT
BRANCH   1   2
ATOM      2  C   UNL     1       1.426  -7.370  -0.000  1.00  0.00     0.000 C 
BRANCH   2   3
ATOM      3  C   UNL     1       1.675  -8.967   0.510  1.00  0.00     0.000 C 
BRANCH   3   4
ATOM      4  C   UNL     1       0.732 -10.283  -0.065  1.00  0.00     0.000 C 
BRANCH   4   5
ATOM      5  C   UNL     1       0.767 -11.838   0.610  1.00  0.00     0.000 C 
BRANCH   5   6
ATOM      6  C   UNL     1       0.388 -13.484   0.224  1.00  0.00     0.000 C 
BRANCH   6   7
ATOM      7  C   UNL     1      -0.893 -14.565  -0.087  1.00  0.00     0.000 C 
BRANCH   7   8
ATOM      8  C   UNL     1      -0.634 -16.245   0.053  1.00  0.00     0.000 C 
BRANCH   8   9
ATOM      9  C   UNL     1      -1.282 -17.792  -0.378  1.00  0.00     0.000 C 
BRANCH   9  10
ATOM     10  C   UNL     1      -2.679 -18.646   0.000  1.00  0.00     0.000 C 
BRANCH  10  11
ATOM     11  C   UNL     1      -3.192 -20.056   0.000  1.00  0.00     0.000 C 
BRANCH  11  12
ATOM     12  C   UNL     1      -3.704 -21.465   0.000  1.00  0.00    -0.000 C 
BRANCH  12  13
ATOM     13  C   UNL     1      -4.461 -22.786   0.738  1.00  0.00    -0.000 C 
BRANCH  13  14
ATOM     14  C   UNL     1      -4.661 -24.260  -0.104  1.00  0.00    -0.000 C 
BRANCH  14  15
ATOM     15  C   UNL     1      -5.413 -25.677   0.463  1.00  0.00    -0.000 C 
BRANCH  15  16
ATOM     16  C   UNL     1      -5.545 -27.130  -0.416  1.00  0.00    -0.000 C 
BRANCH  16  17
ATOM     17  C   UNL     1      -6.325 -28.538   0.135  1.00  0.00    -0.000 C 
BRANCH  17  18
ATOM     18  C   UNL     1      -6.460 -30.030  -0.686  1.00  0.00    -0.000 C 
BRANCH  18  19
ATOM     19  C   UNL     1      -7.296 -31.332   0.000  1.00  0.00    -0.003 C 
ATOM     20  C   UNL     1      -7.809 -32.742   0.000  1.00  0.00     0.004 C 
ENDBRANCH  18  19
ENDBRANCH  17  18
ENDBRANCH  16  17
ENDBRANCH  15  16
ENDBRANCH  14  15
ENDBRANCH  13  14
ENDBRANCH  12  13
ENDBRANCH  11  12
ENDBRANCH  10  11
ENDBRANCH   9  10
ENDBRANCH   8   9
ENDBRANCH   7   8
ENDBRANCH   6   7
ENDBRANCH   5   6
ENDBRANCH   4   5
ENDBRANCH   3   4
ENDBRANCH   2   3
ENDBRANCH   1   2
BRANCH   1  21
ATOM     21  C   UNL     1       2.452  -4.551  -0.000  1.00  0.00     0.010 C 
BRANCH  21  22
ATOM     22  C   UNL     1       3.822  -4.397   0.708  1.00  0.00     0.100 C 
BRANCH  22  23
ATOM     23  C   UNL     1       4.146  -2.946   1.044  1.00  0.00     0.220 C 
ATOM     24  O   UNL     1       3.408  -2.353   1.817  1.00  0.00    -0.275 OA
ATOM     25  N   UNL     1       5.269  -2.337   0.556  1.00  0.00    -0.348 N 
ATOM     26  H   UNL     1       5.882  -2.902  -0.052  1.00  0.00     0.163 HD
BRANCH  25  27
ATOM     27  C   UNL     1       5.697  -0.970   0.896  1.00  0.00     0.136 C 
BRANCH  27  28
ATOM     28  C   UNL     1       4.661   0.147   0.320  1.00  0.00     0.191 C 
BRANCH  28  29
ATOM     29  O   UNL     1       3.294  -0.017   0.758  1.00  0.00    -0.348 OA
BRANCH  29  30
ATOM     30  C   UNL     1       2.389   1.124   0.644  1.00  0.00     0.282 C 
ATOM     31  O   UNL     1       2.092   1.469  -0.703  1.00  0.00    -0.341 OA
ATOM     32  C   UNL     1       1.058   0.737   1.374  1.00  0.00     0.202 C 
ATOM     33  C   UNL     1       1.166   2.590  -0.862  1.00  0.00     0.178 C 
ATOM     34  C   UNL     1      -0.236   1.306   0.701  1.00  0.00     0.180 C 
ATOM     35  C   UNL     1      -0.020   2.732   0.192  1.00  0.00     0.184 C 
BRANCH  32  36
ATOM     36  O   UNL     1       1.159   1.153   2.714  1.00  0.00    -0.385 OA
ATOM     37  H   UNL     1       0.667   0.488   3.265  1.00  0.00     0.211 HD
ENDBRANCH  32  36
BRANCH  33  38
ATOM     38  C   UNL     1       1.919   3.914  -1.016  1.00  0.00     0.191 C 
BRANCH  38  39
ATOM     39  O   UNL     1       2.868   3.805  -2.040  1.00  0.00    -0.394 OA
ATOM     40  H   UNL     1       3.365   4.664  -2.045  1.00  0.00     0.210 HD
ENDBRANCH  38  39
ENDBRANCH  33  38
BRANCH  34  41
ATOM     41  O   UNL     1      -1.316   1.236   1.597  1.00  0.00    -0.387 OA
ATOM     42  H   UNL     1      -2.144   1.190   1.051  1.00  0.00     0.211 HD
ENDBRANCH  34  41
BRANCH  35  43
ATOM     43  O   UNL     1      -1.237   3.234  -0.446  1.00  0.00    -0.341 OA
BRANCH  43  44
ATOM     44  C   UNL     1      -1.898   4.359   0.189  1.00  0.00     0.282 C 
ATOM     45  O   UNL     1      -1.151   5.532  -0.085  1.00  0.00    -0.341 OA
ATOM     46  C   UNL     1      -3.390   4.563  -0.365  1.00  0.00     0.202 C 
ATOM     47  C   UNL     1      -1.702   6.660   0.584  1.00  0.00     0.178 C 
ATOM     48  C   UNL     1      -4.094   5.874   0.225  1.00  0.00     0.187 C 
ATOM     49  C   UNL     1      -3.096   7.039  -0.001  1.00  0.00     0.177 C 
BRANCH  46  50
ATOM     50  O   UNL     1      -3.328   4.649  -1.766  1.00  0.00    -0.385 OA
ATOM     51  H   UNL     1      -4.239   4.453  -2.107  1.00  0.00     0.211 HD
ENDBRANCH  46  50
BRANCH  47  52
ATOM     52  C   UNL     1      -0.707   7.822   0.458  1.00  0.00     0.191 C 
BRANCH  52  53
ATOM     53  O   UNL     1      -1.180   8.943   1.153  1.00  0.00    -0.394 OA
ATOM     54  H   UNL     1      -0.504   9.656   1.016  1.00  0.00     0.210 HD
ENDBRANCH  52  53
ENDBRANCH  47  52
BRANCH  48  55
ATOM     55  O   UNL     1      -5.409   6.159  -0.365  1.00  0.00    -0.332 OA
BRANCH  55  56
ATOM     56  C   UNL     1      -6.408   6.979   0.353  1.00  0.00     0.272 C 
ATOM     57  C   UNL     1      -7.387   6.035   1.129  1.00  0.00     0.113 C 
ATOM     58  O   UNL     1      -7.146   7.772  -0.634  1.00  0.00    -0.332 OA
ATOM     59  C   UNL     1      -8.481   5.499   0.192  1.00  0.00     0.145 C 
ATOM     60  C   UNL     1      -8.533   8.056  -0.299  1.00  0.00     0.178 C 
ATOM     61  C   UNL     1      -9.361   6.660  -0.429  1.00  0.00     0.142 C 
BRANCH  56  62
ATOM     62  C   UNL     1      -5.801   7.963   1.362  1.00  0.00     0.364 C 
ATOM     63  O   UNL     1      -5.860   9.162   1.139  1.00  0.00    -0.246 OA
BRANCH  62  64
ATOM     64  O   UNL     1      -5.266   7.560   2.538  1.00  0.00    -0.477 OA
ATOM     65  H   UNL     1      -5.295   6.647   2.849  1.00  0.00     0.296 HD
ENDBRANCH  62  64
ENDBRANCH  56  62
BRANCH  59  66
ATOM     66  O   UNL     1      -9.256   4.554   0.879  1.00  0.00    -0.391 OA
ATOM     67  H   UNL     1      -8.768   3.690   0.836  1.00  0.00     0.211 HD
ENDBRANCH  59  66
BRANCH  60  68
ATOM     68  C   UNL     1      -9.026   9.457  -1.032  1.00  0.00     0.176 C 
BRANCH  68  69
ATOM     69  O   UNL     1     -10.054   9.183  -1.947  1.00  0.00    -0.388 OA
ATOM     70  H   UNL     1     -10.163   9.998  -2.503  1.00  0.00     0.211 HD
ENDBRANCH  68  69
BRANCH  68  71
ATOM     71  C   UNL     1      -9.468  10.614  -0.000  1.00  0.00     0.171 C 
BRANCH  71  72
ATOM     72  O   UNL     1     -10.574  10.061   0.680  1.00  0.00    -0.388 OA
ATOM     73  H   UNL     1     -10.305   9.880   1.621  1.00  0.00     0.211 HD
ENDBRANCH  71  72
BRANCH  71  74
ATOM     74  C   UNL     1      -9.728  12.091   0.000  1.00  0.00     0.190 C 
BRANCH  74  75
ATOM     75  O   UNL     1      -9.989  13.568   0.000  1.00  0.00    -0.394 OA
ATOM     76  H   UNL     1     -10.940  13.656  -0.263  1.00  0.00     0.210 HD
ENDBRANCH  74  75
ENDBRANCH  71  74
ENDBRANCH  68  71
ENDBRANCH  60  68
BRANCH  61  77
ATOM     77  N   UNL     1     -10.769   6.722   0.066  1.00  0.00    -0.348 N 
ATOM     78  C   UNL     1     -11.766   5.731   0.000  1.00  0.00     0.217 C 
ATOM     79  O   UNL     1     -11.505   4.578  -0.317  1.00  0.00    -0.275 OA
ATOM     80  H   UNL     1     -11.085   7.663   0.337  1.00  0.00     0.163 HD
ATOM     81  C   UNL     1     -13.175   6.244   0.000  1.00  0.00     0.114 C 
ENDBRANCH  61  77
ENDBRANCH  55  56
ENDBRANCH  48  55
BRANCH  49  82
ATOM     82  O   UNL     1      -2.990   7.315  -1.377  1.00  0.00    -0.387 OA
ATOM     83  H   UNL     1      -2.910   8.300  -1.479  1.00  0.00     0.211 HD
ENDBRANCH  49  82
ENDBRANCH  43  44
ENDBRANCH  35  43
ENDBRANCH  29  30
ENDBRANCH  28  29
ENDBRANCH  27  28
BRANCH  27  84
ATOM     84  C   UNL     1       7.205  -0.768   0.368  1.00  0.00     0.139 C 
BRANCH  84  85
ATOM     85  O   UNL     1       7.574   0.574   0.576  1.00  0.00    -0.391 OA
ATOM     86  H   UNL     1       7.788   0.971  -0.308  1.00  0.00     0.211 HD
ENDBRANCH  84  85
BRANCH  84  87
ATOM     87  C   UNL     1       8.410  -1.701   0.934  1.00  0.00     0.034 C 
BRANCH  87  88
ATOM     88  C   UNL     1       9.697  -1.601   0.000  1.00  0.00     0.003 C 
BRANCH  88  89
ATOM     89  C   UNL     1      11.106  -2.114  -0.000  1.00  0.00     0.000 C 
BRANCH  89  90
ATOM     90  C   UNL     1      12.516  -2.627  -0.000  1.00  0.00     0.000 C 
BRANCH  90  91
ATOM     91  C   UNL     1      13.487  -3.888  -0.563  1.00  0.00     0.000 C 
BRANCH  91  92
ATOM     92  C   UNL     1      15.196  -4.076  -0.828  1.00  0.00     0.000 C 
BRANCH  92  93
ATOM     93  C   UNL     1      16.656  -4.317   0.027  1.00  0.00     0.000 C 
BRANCH  93  94
ATOM     94  C   UNL     1      18.114  -4.820  -0.735  1.00  0.00    -0.000 C 
BRANCH  94  95
ATOM     95  C   UNL     1      19.681  -5.021  -0.056  1.00  0.00    -0.000 C 
BRANCH  95  96
ATOM     96  C   UNL     1      21.010  -5.621  -0.948  1.00  0.00    -0.000 C 
BRANCH  96  97
ATOM     97  C   UNL     1      22.744  -5.739  -0.869  1.00  0.00    -0.000 C 
BRANCH  97  98
ATOM     98  C   UNL     1      23.792  -6.731   0.000  1.00  0.00    -0.000 C 
BRANCH  98  99
ATOM     99  C   UNL     1      25.202  -7.244   0.000  1.00  0.00    -0.000 C 
BRANCH  99 100
ATOM    100  C   UNL     1      26.611  -7.757   0.000  1.00  0.00    -0.003 C 
ATOM    101  C   UNL     1      28.021  -8.270   0.000  1.00  0.00     0.004 C 
ENDBRANCH  99 100
ENDBRANCH  98  99
ENDBRANCH  97  98
ENDBRANCH  96  97
ENDBRANCH  95  96
ENDBRANCH  94  95
ENDBRANCH  93  94
ENDBRANCH  92  93
ENDBRANCH  91  92
ENDBRANCH  90  91
ENDBRANCH  89  90
ENDBRANCH  88  89
ENDBRANCH  87  88
ENDBRANCH  84  87
ENDBRANCH  27  84
ENDBRANCH  25  27
ENDBRANCH  22  23
ENDBRANCH  21  22
ENDBRANCH   1  21
TORSDOF 63
