REMARK SMILES COc1cc(-c2oc3cc(O)cc(O)c3c(=O)c2O[C@@H]2O[C@H](CO)[C@@H](O)[C@H](O)[C@H]2O)ccc1O[C@@H]1O[C@H](CO)[C@@H](O)[C@H](O)[C@H]1O
REMARK SMILES IDX 6 1 18 2 16 3 17 4 15 5 13 6 12 7 10 8 9 9 8 10 7 11 5 12
REMARK SMILES IDX 3 13 4 14 33 15 32 16 31 17 2 18 1 19 34 20 35 21 36 22
REMARK SMILES IDX 44 23 37 24 42 25 40 26 45 27 38 29 39 30 43 32 41 34 19 36
REMARK SMILES IDX 20 37 21 38 29 39 22 40 27 41 25 42 30 43 23 45 24 46 28 48
REMARK SMILES IDX 26 50 14 52 11 54
REMARK H PARENT 45 28 39 31 43 33 41 35 30 44 24 47 28 49 26 51 14 53 11 55
ROOT
ATOM      1  C   UNL     1      -1.736  -2.445  -0.925  1.00  0.00     0.180 A 
ATOM      2  C   UNL     1      -2.774  -2.237   0.018  1.00  0.00     0.214 A 
ATOM      3  C   UNL     1      -3.962  -2.977  -0.095  1.00  0.00     0.239 A 
ATOM      4  O   UNL     1      -4.835  -2.799   0.730  1.00  0.00    -0.285 OA
ATOM      5  C   UNL     1      -4.132  -3.901  -1.153  1.00  0.00     0.111 A 
ATOM      6  C   UNL     1      -5.301  -4.700  -1.369  1.00  0.00     0.134 A 
ATOM      7  C   UNL     1      -5.351  -5.565  -2.470  1.00  0.00     0.093 A 
ATOM      8  C   UNL     1      -4.280  -5.664  -3.361  1.00  0.00     0.123 A 
ATOM      9  C   UNL     1      -3.139  -4.894  -3.155  1.00  0.00     0.094 A 
ATOM     10  C   UNL     1      -3.054  -4.022  -2.068  1.00  0.00     0.146 A 
ATOM     11  O   UNL     1      -1.946  -3.310  -1.915  1.00  0.00    -0.452 OA
ENDROOT
BRANCH   1  12
ATOM     12  C   UNL     1      -0.410  -1.734  -0.915  1.00  0.00     0.025 A 
ATOM     13  C   UNL     1       1.353  -0.386   0.167  1.00  0.00     0.161 A 
ATOM     14  C   UNL     1       0.111  -1.059   0.209  1.00  0.00     0.062 A 
ATOM     15  C   UNL     1       2.105  -0.402  -1.036  1.00  0.00     0.164 A 
ATOM     16  C   UNL     1       1.594  -1.086  -2.143  1.00  0.00     0.051 A 
ATOM     17  C   UNL     1       0.366  -1.745  -2.086  1.00  0.00     0.016 A 
BRANCH  13  18
ATOM     18  O   UNL     1       1.820   0.284   1.254  1.00  0.00    -0.493 OA
ATOM     19  C   UNL     1       1.220   0.370   2.494  1.00  0.00     0.278 C 
ENDBRANCH  13  18
BRANCH  15  20
ATOM     20  O   UNL     1       3.311   0.214  -1.209  1.00  0.00    -0.458 OA
BRANCH  20  21
ATOM     21  C   UNL     1       4.163   0.780  -0.275  1.00  0.00     0.339 C 
ATOM     22  O   UNL     1       3.890   2.186  -0.209  1.00  0.00    -0.332 OA
ATOM     23  C   UNL     1       5.612   0.497  -0.716  1.00  0.00     0.214 C 
ATOM     24  C   UNL     1       4.945   3.018   0.298  1.00  0.00     0.179 C 
ATOM     25  C   UNL     1       6.622   1.069   0.308  1.00  0.00     0.180 C 
ATOM     26  C   UNL     1       6.013   2.245   1.115  1.00  0.00     0.177 C 
BRANCH  23  27
ATOM     27  O   UNL     1       5.850  -0.871  -0.937  1.00  0.00    -0.384 OA
ATOM     28  H   UNL     1       5.599  -1.352  -0.104  1.00  0.00     0.211 HD
ENDBRANCH  23  27
BRANCH  24  29
ATOM     29  C   UNL     1       5.521   3.895  -0.829  1.00  0.00     0.191 C 
BRANCH  29  30
ATOM     30  O   UNL     1       6.491   4.779  -0.330  1.00  0.00    -0.394 OA
ATOM     31  H   UNL     1       6.003   5.493   0.159  1.00  0.00     0.210 HD
ENDBRANCH  29  30
ENDBRANCH  24  29
BRANCH  25  32
ATOM     32  O   UNL     1       7.843   1.398  -0.308  1.00  0.00    -0.387 OA
ATOM     33  H   UNL     1       7.666   2.031  -1.047  1.00  0.00     0.211 HD
ENDBRANCH  25  32
BRANCH  26  34
ATOM     34  O   UNL     1       5.348   1.728   2.245  1.00  0.00    -0.387 OA
ATOM     35  H   UNL     1       6.040   1.533   2.930  1.00  0.00     0.211 HD
ENDBRANCH  26  34
ENDBRANCH  20  21
ENDBRANCH  15  20
ENDBRANCH   1  12
BRANCH   2  36
ATOM     36  O   UNL     1      -2.658  -1.308   1.000  1.00  0.00    -0.454 OA
BRANCH  36  37
ATOM     37  C   UNL     1      -3.190  -0.032   0.891  1.00  0.00     0.339 C 
ATOM     38  O   UNL     1      -2.109   0.883   0.784  1.00  0.00    -0.332 OA
ATOM     39  C   UNL     1      -4.028   0.303   2.147  1.00  0.00     0.214 C 
ATOM     40  C   UNL     1      -2.570   2.202   0.545  1.00  0.00     0.179 C 
ATOM     41  C   UNL     1      -4.549   1.751   2.037  1.00  0.00     0.180 C 
ATOM     42  C   UNL     1      -3.372   2.708   1.770  1.00  0.00     0.177 C 
BRANCH  39  43
ATOM     43  O   UNL     1      -5.091  -0.597   2.322  1.00  0.00    -0.384 OA
ATOM     44  H   UNL     1      -5.707  -0.485   1.551  1.00  0.00     0.211 HD
ENDBRANCH  39  43
BRANCH  40  45
ATOM     45  C   UNL     1      -1.355   3.103   0.285  1.00  0.00     0.191 C 
BRANCH  45  46
ATOM     46  O   UNL     1      -0.650   2.660  -0.844  1.00  0.00    -0.394 OA
ATOM     47  H   UNL     1       0.029   2.012  -0.523  1.00  0.00     0.210 HD
ENDBRANCH  45  46
ENDBRANCH  40  45
BRANCH  41  48
ATOM     48  O   UNL     1      -5.264   2.127   3.187  1.00  0.00    -0.387 OA
ATOM     49  H   UNL     1      -4.641   2.073   3.958  1.00  0.00     0.211 HD
ENDBRANCH  41  48
BRANCH  42  50
ATOM     50  O   UNL     1      -3.833   4.024   1.585  1.00  0.00    -0.387 OA
ATOM     51  H   UNL     1      -4.394   4.032   0.766  1.00  0.00     0.211 HD
ENDBRANCH  42  50
ENDBRANCH  36  37
ENDBRANCH   2  36
BRANCH   6  52
ATOM     52  O   UNL     1      -6.397  -4.686  -0.575  1.00  0.00    -0.507 OA
ATOM     53  H   UNL     1      -6.532  -4.164   0.222  1.00  0.00     0.293 HD
ENDBRANCH   6  52
BRANCH   8  54
ATOM     54  O   UNL     1      -4.339  -6.497  -4.420  1.00  0.00    -0.508 OA
ATOM     55  H   UNL     1      -5.116  -7.046  -4.600  1.00  0.00     0.293 HD
ENDBRANCH   8  54
TORSDOF 18
