REMARK SMILES C=C[C@]1(C)C=C2CC[C@H]3[C@](C)(CO)C[C@H](O)C[C@]3(C)[C@H]2CC1
REMARK SMILES IDX 3 1 4 2 5 3 6 4 7 5 8 6 9 7 10 8 11 9 14 10 15 11 17 12
REMARK SMILES IDX 18 13 19 14 20 15 21 16 22 17 2 18 1 19 12 20 13 21 16 23
REMARK H PARENT 13 22 16 24
ROOT
ATOM      1  C   UNL     1       3.805   0.092  -0.217  1.00  0.00     0.003 C 
ATOM      2  C   UNL     1       4.675  -1.143  -0.536  1.00  0.00     0.020 C 
ATOM      3  C   UNL     1       2.726   0.144  -1.295  1.00  0.00    -0.017 C 
ATOM      4  C   UNL     1       1.409  -0.027  -1.050  1.00  0.00    -0.070 C 
ATOM      5  C   UNL     1       0.476  -0.218  -2.222  1.00  0.00     0.031 C 
ATOM      6  C   UNL     1      -0.967   0.262  -1.998  1.00  0.00     0.009 C 
ATOM      7  C   UNL     1      -1.437   0.255  -0.511  1.00  0.00     0.004 C 
ATOM      8  C   UNL     1      -3.013   0.419  -0.251  1.00  0.00    -0.004 C 
ATOM      9  C   UNL     1      -3.861   0.156  -1.527  1.00  0.00     0.014 C 
ATOM     10  C   UNL     1      -3.500  -0.612   0.806  1.00  0.00     0.041 C 
ATOM     11  C   UNL     1      -2.641  -0.757   2.087  1.00  0.00     0.115 C 
ATOM     12  C   UNL     1      -1.150  -0.403   1.897  1.00  0.00     0.039 C 
ATOM     13  C   UNL     1      -0.607  -0.685   0.464  1.00  0.00    -0.020 C 
ATOM     14  C   UNL     1      -0.682  -2.212   0.166  1.00  0.00     0.012 C 
ATOM     15  C   UNL     1       0.895  -0.184   0.378  1.00  0.00     0.021 C 
ATOM     16  C   UNL     1       1.944  -0.924   1.241  1.00  0.00     0.010 C 
ATOM     17  C   UNL     1       3.221  -0.066   1.220  1.00  0.00     0.015 C 
ENDROOT
BRANCH   1  18
ATOM     18  C   UNL     1       4.676   1.336  -0.290  1.00  0.00    -0.024 C 
ATOM     19  C   UNL     1       4.182   2.569  -0.115  1.00  0.00     0.005 C 
ENDBRANCH   1  18
BRANCH   8  20
ATOM     20  C   UNL     1      -3.349   1.864   0.229  1.00  0.00     0.163 C 
BRANCH  20  21
ATOM     21  O   UNL     1      -3.067   2.812  -0.772  1.00  0.00    -0.396 OA
ATOM     22  H   UNL     1      -2.187   3.218  -0.563  1.00  0.00     0.210 HD
ENDBRANCH  20  21
ENDBRANCH   8  20
BRANCH  11  23
ATOM     23  O   UNL     1      -3.179  -0.054   3.179  1.00  0.00    -0.393 OA
ATOM     24  H   UNL     1      -3.247   0.901   2.930  1.00  0.00     0.210 HD
ENDBRANCH  11  23
TORSDOF 4
