REMARK SMILES C/C=C(\C)C(=O)OC1=CCN2CC=C(COC(=O)[C@@](O)(C(C)C)[C@H](C)O)[C@H]12
REMARK SMILES IDX 15 1 14 2 8 3 9 4 27 5 10 6 11 7 13 8 12 9 7 10 5 11 6 12
REMARK SMILES IDX 3 13 2 14 1 15 4 16 16 17 17 18 18 19 19 20 20 21 21 23
REMARK SMILES IDX 22 24 23 25 24 26 25 27 26 28
REMARK H PARENT 20 22 26 29
ROOT
ATOM      1  C   UNL     1      -0.077  -1.049  -0.867  1.00  0.00     0.266 C 
ENDROOT
BRANCH   1   2
ATOM      2  C   UNL     1       0.234  -0.144  -2.038  1.00  0.00    -0.011 C 
ATOM      3  C   UNL     1       2.703   0.293  -2.038  1.00  0.00     0.127 C 
ATOM      4  C   UNL     1       3.274   1.303  -2.671  1.00  0.00     0.033 C 
ATOM      5  C   UNL     1       1.516  -0.194  -2.799  1.00  0.00     0.154 C 
ATOM      6  C   UNL     1       2.539   1.625  -3.914  1.00  0.00     0.117 C 
ATOM      7  N   UNL     1       1.361   0.730  -3.939  1.00  0.00    -0.282 NA
ATOM      8  C   UNL     1      -0.568   0.755  -2.566  1.00  0.00    -0.007 C 
ATOM      9  C   UNL     1       0.074   1.427  -3.720  1.00  0.00     0.113 C 
BRANCH   3  10
ATOM     10  O   UNL     1       3.136  -0.239  -0.862  1.00  0.00    -0.426 OA
BRANCH  10  11
ATOM     11  C   UNL     1       4.409  -0.159  -0.381  1.00  0.00     0.338 C 
ATOM     12  O   UNL     1       5.350  -0.047  -1.155  1.00  0.00    -0.246 OA
BRANCH  11  13
ATOM     13  C   UNL     1       4.674  -0.220   1.082  1.00  0.00     0.030 C 
ATOM     14  C   UNL     1       3.639  -0.253   1.953  1.00  0.00    -0.020 C 
ATOM     15  C   UNL     1       3.799  -0.281   3.447  1.00  0.00     0.036 C 
ATOM     16  C   UNL     1       6.120  -0.216   1.536  1.00  0.00     0.052 C 
ENDBRANCH  11  13
ENDBRANCH  10  11
ENDBRANCH   3  10
ENDBRANCH   1   2
BRANCH   1  17
ATOM     17  O   UNL     1      -1.362  -0.911  -0.366  1.00  0.00    -0.459 OA
BRANCH  17  18
ATOM     18  C   UNL     1      -1.782   0.072   0.475  1.00  0.00     0.341 C 
ATOM     19  O   UNL     1      -1.047   1.019   0.723  1.00  0.00    -0.249 OA
BRANCH  18  20
ATOM     20  C   UNL     1      -3.140  -0.062   1.185  1.00  0.00     0.190 C 
BRANCH  20  21
ATOM     21  O   UNL     1      -3.331   1.007   2.091  1.00  0.00    -0.376 OA
ATOM     22  H   UNL     1      -3.177   1.865   1.619  1.00  0.00     0.212 HD
ENDBRANCH  20  21
BRANCH  20  23
ATOM     23  C   UNL     1      -4.318  -0.083   0.134  1.00  0.00     0.029 C 
ATOM     24  C   UNL     1      -4.394   1.212  -0.699  1.00  0.00     0.011 C 
ATOM     25  C   UNL     1      -5.702  -0.304   0.779  1.00  0.00     0.011 C 
ENDBRANCH  20  23
BRANCH  20  26
ATOM     26  C   UNL     1      -3.128  -1.377   2.038  1.00  0.00     0.155 C 
ATOM     27  C   UNL     1      -1.992  -1.422   3.082  1.00  0.00     0.042 C 
BRANCH  26  28
ATOM     28  O   UNL     1      -3.117  -2.527   1.222  1.00  0.00    -0.390 OA
ATOM     29  H   UNL     1      -2.178  -2.777   1.027  1.00  0.00     0.211 HD
ENDBRANCH  26  28
ENDBRANCH  20  26
ENDBRANCH  18  20
ENDBRANCH  17  18
ENDBRANCH   1  17
TORSDOF 11
