REMARK SMILES C[C@@H]1CC[C@@]2(OC1)O[C@H]1C[C@H]3[C@@H]4CC=C5C[C@@H](O[C@@H]6O[C@@H](C)[C@H](O[C@@H]7O[C@@H](C)[C@H](O)[C@@H](O)[C@H]7O)[C@@H](O[C@@H]7O[C@@H](C)[C@H](O)[C@@H](O)[C@H]7O)[C@H]6O[C@@H]6O[C@H](CO)[C@@H](O)[C@H](O)[C@H]6O)CC[C@]5(C)[C@H]4CC[C@]3(C)[C@H]1[C@@H]2C
REMARK SMILES IDX 19 1 20 2 21 3 22 4 23 5 35 6 47 7 18 8 17 9 2 10 3 11 7 12
REMARK SMILES IDX 4 13 6 14 5 15 8 16 70 17 9 18 69 19 10 20 67 21 11 22 66 23
REMARK SMILES IDX 12 24 65 25 13 26 64 27 14 28 62 29 15 30 61 31 16 32 60 33
REMARK SMILES IDX 1 34 71 35 68 36 63 37 48 38 49 39 50 40 58 41 51 42 56 43
REMARK SMILES IDX 54 44 59 45 52 47 53 48 57 50 55 52 36 54 37 55 38 56 45 57
REMARK SMILES IDX 39 58 43 59 41 60 40 61 46 62 44 64 42 66 24 68 25 69 26 70
REMARK SMILES IDX 33 71 27 72 31 73 29 74 28 75 34 76 32 78 30 80
REMARK H PARENT 59 46 53 49 57 51 55 53 46 63 44 65 42 67 34 77 32 79 30 81
ROOT
ATOM      1  C   UNL     1      -2.766   0.392  -0.537  1.00  0.00     0.282 C 
ATOM      2  O   UNL     1      -2.688   1.713  -0.040  1.00  0.00    -0.344 OA
ATOM      3  C   UNL     1      -3.921   2.416  -0.140  1.00  0.00     0.150 C 
ATOM      4  C   UNL     1      -4.121   2.981  -1.558  1.00  0.00     0.041 C 
ATOM      5  C   UNL     1      -5.145   1.593   0.373  1.00  0.00     0.182 C 
ATOM      6  C   UNL     1      -4.634   0.419   1.223  1.00  0.00     0.187 C 
ATOM      7  C   UNL     1      -3.736  -0.474   0.328  1.00  0.00     0.209 C 
ENDROOT
BRANCH   1   8
ATOM      8  O   UNL     1      -1.482  -0.207  -0.491  1.00  0.00    -0.346 OA
BRANCH   8   9
ATOM      9  C   UNL     1      -0.519   0.457  -1.306  1.00  0.00     0.125 C 
ATOM     10  C   UNL     1      13.086   0.866   0.292  1.00  0.00     0.012 C 
ATOM     11  C   UNL     1      12.560  -0.569   0.403  1.00  0.00     0.011 C 
ATOM     12  C   UNL     1      11.893   1.823   0.440  1.00  0.00     0.167 C 
ATOM     13  C   UNL     1      11.474  -0.789  -0.641  1.00  0.00     0.066 C 
ATOM     14  O   UNL     1      10.875   1.618  -0.537  1.00  0.00    -0.349 OA
ATOM     15  C   UNL     1      10.345   0.283  -0.578  1.00  0.00     0.171 C 
ATOM     16  O   UNL     1       9.632   0.150  -1.802  1.00  0.00    -0.346 OA
ATOM     17  C   UNL     1       9.249  -0.006   0.499  1.00  0.00     0.052 C 
ATOM     18  C   UNL     1       8.400   0.800  -1.589  1.00  0.00     0.126 C 
ATOM     19  C   UNL     1       8.028   0.693  -0.099  1.00  0.00     0.033 C 
ATOM     20  C   UNL     1       7.205   0.247  -2.394  1.00  0.00     0.037 C 
ATOM     21  C   UNL     1       6.624   0.003  -0.070  1.00  0.00    -0.024 C 
ATOM     22  C   UNL     1       6.077   0.582  -1.424  1.00  0.00     0.002 C 
ATOM     23  C   UNL     1       5.667   0.346   1.129  1.00  0.00     0.008 C 
ATOM     24  C   UNL     1       4.629   0.137  -1.624  1.00  0.00     0.000 C 
ATOM     25  C   UNL     1       4.526   1.293   0.728  1.00  0.00     0.005 C 
ATOM     26  C   UNL     1       4.008   0.343  -3.002  1.00  0.00     0.031 C 
ATOM     27  C   UNL     1       3.722   0.839  -0.558  1.00  0.00     0.003 C 
ATOM     28  C   UNL     1       2.550  -0.080  -2.978  1.00  0.00    -0.027 C 
ATOM     29  C   UNL     1       2.400  -0.011  -0.403  1.00  0.00    -0.008 C 
ATOM     30  C   UNL     1       1.837  -0.281  -1.833  1.00  0.00    -0.065 C 
ATOM     31  C   UNL     1       1.307   0.765   0.429  1.00  0.00     0.014 C 
ATOM     32  C   UNL     1       0.378  -0.653  -1.925  1.00  0.00     0.063 C 
ATOM     33  C   UNL     1       0.311   1.492  -0.475  1.00  0.00     0.033 C 
ATOM     34  C   UNL     1      13.858   1.129  -1.014  1.00  0.00     0.010 C 
ATOM     35  C   UNL     1       9.421   0.318   1.987  1.00  0.00     0.014 C 
ATOM     36  C   UNL     1       6.768  -1.567  -0.048  1.00  0.00     0.012 C 
ATOM     37  C   UNL     1       2.653  -1.346   0.341  1.00  0.00     0.016 C 
ENDBRANCH   8   9
ENDBRANCH   1   8
BRANCH   7  38
ATOM     38  O   UNL     1      -4.593  -1.240  -0.501  1.00  0.00    -0.338 OA
BRANCH  38  39
ATOM     39  C   UNL     1      -3.954  -2.335  -1.126  1.00  0.00     0.282 C 
ATOM     40  O   UNL     1      -3.850  -2.031  -2.508  1.00  0.00    -0.341 OA
ATOM     41  C   UNL     1      -4.857  -3.572  -0.916  1.00  0.00     0.202 C 
ATOM     42  C   UNL     1      -3.230  -3.082  -3.232  1.00  0.00     0.178 C 
ATOM     43  C   UNL     1      -4.306  -4.771  -1.708  1.00  0.00     0.179 C 
ATOM     44  C   UNL     1      -4.111  -4.357  -3.178  1.00  0.00     0.177 C 
BRANCH  41  45
ATOM     45  O   UNL     1      -4.988  -3.884   0.449  1.00  0.00    -0.385 OA
ATOM     46  H   UNL     1      -4.080  -4.085   0.798  1.00  0.00     0.211 HD
ENDBRANCH  41  45
BRANCH  42  47
ATOM     47  C   UNL     1      -3.039  -2.616  -4.681  1.00  0.00     0.191 C 
BRANCH  47  48
ATOM     48  O   UNL     1      -2.210  -1.486  -4.727  1.00  0.00    -0.394 OA
ATOM     49  H   UNL     1      -2.780  -0.702  -4.511  1.00  0.00     0.210 HD
ENDBRANCH  47  48
ENDBRANCH  42  47
BRANCH  43  50
ATOM     50  O   UNL     1      -5.153  -5.888  -1.598  1.00  0.00    -0.387 OA
ATOM     51  H   UNL     1      -6.037  -5.634  -1.973  1.00  0.00     0.211 HD
ENDBRANCH  43  50
BRANCH  44  52
ATOM     52  O   UNL     1      -3.552  -5.411  -3.922  1.00  0.00    -0.387 OA
ATOM     53  H   UNL     1      -2.651  -5.596  -3.550  1.00  0.00     0.211 HD
ENDBRANCH  44  52
ENDBRANCH  38  39
ENDBRANCH   7  38
BRANCH   6  54
ATOM     54  O   UNL     1      -5.758  -0.312   1.701  1.00  0.00    -0.341 OA
BRANCH  54  55
ATOM     55  C   UNL     1      -5.522  -0.984   2.926  1.00  0.00     0.282 C 
ATOM     56  O   UNL     1      -4.574  -2.021   2.762  1.00  0.00    -0.344 OA
ATOM     57  C   UNL     1      -6.887  -1.570   3.398  1.00  0.00     0.202 C 
ATOM     58  C   UNL     1      -4.241  -2.677   3.995  1.00  0.00     0.150 C 
ATOM     59  C   UNL     1      -6.702  -2.774   4.356  1.00  0.00     0.179 C 
ATOM     60  C   UNL     1      -5.361  -2.628   5.087  1.00  0.00     0.174 C 
ATOM     61  C   UNL     1      -2.910  -2.167   4.543  1.00  0.00     0.041 C 
BRANCH  57  62
ATOM     62  O   UNL     1      -7.662  -0.545   3.969  1.00  0.00    -0.385 OA
ATOM     63  H   UNL     1      -7.194  -0.229   4.784  1.00  0.00     0.211 HD
ENDBRANCH  57  62
BRANCH  59  64
ATOM     64  O   UNL     1      -7.804  -2.940   5.214  1.00  0.00    -0.387 OA
ATOM     65  H   UNL     1      -7.728  -2.270   5.942  1.00  0.00     0.211 HD
ENDBRANCH  59  64
BRANCH  60  66
ATOM     66  O   UNL     1      -5.167  -3.631   6.056  1.00  0.00    -0.388 OA
ATOM     67  H   UNL     1      -5.294  -4.510   5.612  1.00  0.00     0.211 HD
ENDBRANCH  60  66
ENDBRANCH  54  55
ENDBRANCH   6  54
BRANCH   5  68
ATOM     68  O   UNL     1      -5.972   2.405   1.197  1.00  0.00    -0.341 OA
BRANCH  68  69
ATOM     69  C   UNL     1      -7.178   2.797   0.573  1.00  0.00     0.282 C 
ATOM     70  O   UNL     1      -6.909   3.933  -0.256  1.00  0.00    -0.344 OA
ATOM     71  C   UNL     1      -8.184   3.132   1.694  1.00  0.00     0.202 C 
ATOM     72  C   UNL     1      -7.945   4.913  -0.358  1.00  0.00     0.150 C 
ATOM     73  C   UNL     1      -9.542   3.592   1.115  1.00  0.00     0.179 C 
ATOM     74  C   UNL     1      -9.351   4.276  -0.257  1.00  0.00     0.174 C 
ATOM     75  C   UNL     1      -7.772   5.623  -1.703  1.00  0.00     0.041 C 
BRANCH  71  76
ATOM     76  O   UNL     1      -8.339   2.100   2.636  1.00  0.00    -0.385 OA
ATOM     77  H   UNL     1      -8.494   1.258   2.133  1.00  0.00     0.211 HD
ENDBRANCH  71  76
BRANCH  73  78
ATOM     78  O   UNL     1     -10.474   2.546   0.998  1.00  0.00    -0.387 OA
ATOM     79  H   UNL     1     -10.072   1.846   0.420  1.00  0.00     0.211 HD
ENDBRANCH  73  78
BRANCH  74  80
ATOM     80  O   UNL     1     -10.395   5.182  -0.510  1.00  0.00    -0.388 OA
ATOM     81  H   UNL     1     -10.284   5.941   0.121  1.00  0.00     0.211 HD
ENDBRANCH  74  80
ENDBRANCH  68  69
ENDBRANCH   5  68
TORSDOF 19
