REMARK SMILES CC(C)CCNC(=O)[C@@H]1CCC(=O)N1[C@@H]1OC(=O)c2ccccc21
REMARK SMILES IDX 5 1 4 2 2 3 1 4 3 5 6 6 7 7 8 8 9 10 10 11 14 12 11 13 12 14
REMARK SMILES IDX 13 15 15 16 16 17 24 18 17 19 23 20 19 21 18 22 22 23 20 24
REMARK SMILES IDX 21 25
REMARK H PARENT 6 9
ROOT
ATOM      1  C   UNL     1       2.572   0.317   0.254  1.00  0.00     0.116 C 
ENDROOT
BRANCH   1   2
ATOM      2  C   UNL     1       3.577  -0.306   1.241  1.00  0.00     0.024 C 
BRANCH   2   3
ATOM      3  C   UNL     1       4.971   0.371   1.273  1.00  0.00    -0.016 C 
ATOM      4  C   UNL     1       4.896   1.847   1.686  1.00  0.00     0.007 C 
ATOM      5  C   UNL     1       5.717   0.225  -0.062  1.00  0.00     0.007 C 
ENDBRANCH   2   3
ENDBRANCH   1   2
BRANCH   1   6
ATOM      6  N   UNL     1       1.321  -0.420   0.254  1.00  0.00    -0.354 N 
ATOM      7  C   UNL     1       0.281  -0.054  -0.545  1.00  0.00     0.242 C 
ATOM      8  O   UNL     1       0.379   0.932  -1.263  1.00  0.00    -0.273 OA
ATOM      9  H   UNL     1       1.218  -1.249   0.859  1.00  0.00     0.163 HD
BRANCH   7  10
ATOM     10  C   UNL     1      -0.992  -0.887  -0.563  1.00  0.00     0.179 C 
ATOM     11  C   UNL     1      -0.706  -2.279  -1.136  1.00  0.00     0.045 C 
ATOM     12  N   UNL     1      -1.951  -0.356  -1.515  1.00  0.00    -0.291 N 
ATOM     13  C   UNL     1      -0.813  -2.088  -2.651  1.00  0.00     0.103 C 
ATOM     14  C   UNL     1      -1.835  -1.004  -2.697  1.00  0.00     0.226 C 
ATOM     15  O   UNL     1      -2.445  -0.682  -3.706  1.00  0.00    -0.275 OA
BRANCH  12  16
ATOM     16  C   UNL     1      -2.861   0.753  -1.259  1.00  0.00     0.311 C 
ATOM     17  O   UNL     1      -2.175   1.859  -0.764  1.00  0.00    -0.433 OA
ATOM     18  C   UNL     1      -3.824   0.402  -0.163  1.00  0.00     0.028 A 
ATOM     19  C   UNL     1      -2.617   2.176   0.474  1.00  0.00     0.340 C 
ATOM     20  C   UNL     1      -4.772  -0.621  -0.110  1.00  0.00     0.010 A 
ATOM     21  C   UNL     1      -3.663   1.270   0.879  1.00  0.00     0.069 A 
ATOM     22  O   UNL     1      -2.180   3.102   1.137  1.00  0.00    -0.246 OA
ATOM     23  C   UNL     1      -5.561  -0.737   1.048  1.00  0.00     0.001 A 
ATOM     24  C   UNL     1      -4.426   1.186   2.042  1.00  0.00     0.016 A 
ATOM     25  C   UNL     1      -5.389   0.163   2.121  1.00  0.00     0.001 A 
ENDBRANCH  12  16
ENDBRANCH   7  10
ENDBRANCH   1   6
TORSDOF 5
