REMARK SMILES COc1ccc(C(=O)C2=C(O)C(=O)N(c3ccccc3O)[C@]23C(=O)N2C(=C3C(N)=O)[C@@]3(C=C(C)C(=O)C=C3C)CC2(C)C)cc1
REMARK SMILES IDX 9 1 10 2 12 3 13 4 14 5 22 6 23 7 24 8 25 9 26 10 27 11
REMARK SMILES IDX 31 12 32 13 33 14 34 15 35 16 36 17 37 18 38 19 39 20 40 21
REMARK SMILES IDX 41 22 42 23 43 24 7 25 8 26 6 27 3 28 4 29 45 30 5 31 44 32
REMARK SMILES IDX 2 33 1 34 11 35 15 37 16 38 20 39 17 40 19 41 18 42 21 43
REMARK SMILES IDX 28 45 29 46 30 47
REMARK H PARENT 11 36 21 44 29 48 29 49
ROOT
ATOM      1  C   UNL     1       1.826   0.279   0.663  1.00  0.00     0.088 C 
ATOM      2  C   UNL     1       2.806   1.186   0.873  1.00  0.00     0.192 C 
ATOM      3  C   UNL     1       2.206   2.506   0.931  1.00  0.00     0.295 C 
ATOM      4  O   UNL     1       2.821   3.547   1.114  1.00  0.00    -0.265 OA
ATOM      5  N   UNL     1       0.870   2.432   0.777  1.00  0.00    -0.278 N 
ATOM      6  C   UNL     1       0.493   1.032   0.643  1.00  0.00     0.192 C 
ATOM      7  C   UNL     1      -0.371   0.595   1.794  1.00  0.00     0.263 C 
ATOM      8  O   UNL     1      -0.064   0.622   2.976  1.00  0.00    -0.271 OA
ATOM      9  N   UNL     1      -1.527   0.114   1.330  1.00  0.00    -0.306 N 
ATOM     10  C   UNL     1      -1.561   0.167  -0.050  1.00  0.00     0.048 C 
ATOM     11  C   UNL     1      -0.415   0.684  -0.555  1.00  0.00     0.078 C 
ATOM     12  C   UNL     1      -2.820  -0.467  -0.589  1.00  0.00     0.053 C 
ATOM     13  C   UNL     1      -2.446  -1.839  -1.145  1.00  0.00    -0.002 C 
ATOM     14  C   UNL     1      -2.777  -2.263  -2.377  1.00  0.00    -0.006 C 
ATOM     15  C   UNL     1      -2.385  -3.639  -2.849  1.00  0.00     0.048 C 
ATOM     16  C   UNL     1      -3.535  -1.375  -3.277  1.00  0.00     0.181 C 
ATOM     17  O   UNL     1      -3.851  -1.748  -4.396  1.00  0.00    -0.290 OA
ATOM     18  C   UNL     1      -3.900  -0.026  -2.834  1.00  0.00     0.052 C 
ATOM     19  C   UNL     1      -3.583   0.424  -1.603  1.00  0.00    -0.053 C 
ATOM     20  C   UNL     1      -3.990   1.844  -1.251  1.00  0.00     0.041 C 
ATOM     21  C   UNL     1      -3.641  -0.649   0.743  1.00  0.00     0.050 C 
ATOM     22  C   UNL     1      -2.642  -0.557   1.940  1.00  0.00     0.044 C 
ATOM     23  C   UNL     1      -3.230   0.258   3.110  1.00  0.00     0.035 C 
ATOM     24  C   UNL     1      -2.201  -1.940   2.450  1.00  0.00     0.035 C 
ENDROOT
BRANCH   1  25
ATOM     25  C   UNL     1       1.912  -1.221   0.576  1.00  0.00     0.196 C 
ATOM     26  O   UNL     1       0.886  -1.840   0.815  1.00  0.00    -0.289 OA
BRANCH  25  27
ATOM     27  C   UNL     1       3.119  -2.029   0.215  1.00  0.00     0.023 A 
ATOM     28  C   UNL     1       5.351  -3.654  -0.420  1.00  0.00     0.118 A 
ATOM     29  C   UNL     1       5.290  -2.317  -0.861  1.00  0.00     0.047 A 
ATOM     30  C   UNL     1       4.282  -4.172   0.315  1.00  0.00     0.047 A 
ATOM     31  C   UNL     1       4.183  -1.517  -0.552  1.00  0.00     0.016 A 
ATOM     32  C   UNL     1       3.179  -3.376   0.623  1.00  0.00     0.016 A 
BRANCH  28  33
ATOM     33  O   UNL     1       6.404  -4.471  -0.679  1.00  0.00    -0.497 OA
ATOM     34  C   UNL     1       7.553  -4.119  -1.356  1.00  0.00     0.278 C 
ENDBRANCH  28  33
ENDBRANCH  25  27
ENDBRANCH   1  25
BRANCH   2  35
ATOM     35  O   UNL     1       4.121   0.971   1.096  1.00  0.00    -0.503 OA
ATOM     36  H   UNL     1       4.497   0.104   1.281  1.00  0.00     0.293 HD
ENDBRANCH   2  35
BRANCH   5  37
ATOM     37  C   UNL     1      -0.030   3.539   0.894  1.00  0.00     0.088 A 
ATOM     38  C   UNL     1      -0.964   3.806  -0.118  1.00  0.00     0.030 A 
ATOM     39  C   UNL     1      -0.002   4.370   2.035  1.00  0.00     0.139 A 
ATOM     40  C   UNL     1      -1.852   4.878  -0.005  1.00  0.00     0.002 A 
ATOM     41  C   UNL     1      -0.906   5.439   2.146  1.00  0.00     0.048 A 
ATOM     42  C   UNL     1      -1.826   5.691   1.128  1.00  0.00     0.004 A 
BRANCH  39  43
ATOM     43  O   UNL     1       0.866   4.116   3.037  1.00  0.00    -0.506 OA
ATOM     44  H   UNL     1       0.890   4.646   3.847  1.00  0.00     0.293 HD
ENDBRANCH  39  43
ENDBRANCH   5  37
BRANCH  11  45
ATOM     45  C   UNL     1      -0.084   0.830  -2.001  1.00  0.00     0.249 C 
ATOM     46  N   UNL     1       1.089   1.376  -2.402  1.00  0.00    -0.366 N 
ATOM     47  O   UNL     1      -0.880   0.457  -2.846  1.00  0.00    -0.270 OA
ATOM     48  H   UNL     1       1.788   1.710  -1.729  1.00  0.00     0.159 HD
ATOM     49  H   UNL     1       1.299   1.470  -3.408  1.00  0.00     0.159 HD
ENDBRANCH  11  45
TORSDOF 7
