REMARK SMILES CC(=O)O[C@H]1CC[C@]2(C)[C@H]3COC(=O)C3=CC[C@H]2C1(C)C
REMARK SMILES IDX 4 1 2 2 3 3 1 4 5 5 6 6 19 7 7 8 18 9 8 10 17 11 10 12 16 13
REMARK SMILES IDX 11 14 15 15 12 16 13 17 14 18 20 19 21 20 9 21
REMARK H PARENT
ROOT
ATOM      1  O   UNL     1       2.327   0.523   0.077  1.00  0.00    -0.462 OA
ENDROOT
BRANCH   1   2
ATOM      2  C   UNL     1       3.656   0.763  -0.145  1.00  0.00     0.302 C 
ATOM      3  O   UNL     1       4.522   0.081   0.386  1.00  0.00    -0.253 OA
ATOM      4  C   UNL     1       4.062   1.867  -1.067  1.00  0.00     0.139 C 
ENDBRANCH   1   2
BRANCH   1   5
ATOM      5  C   UNL     1       1.825  -0.540   0.816  1.00  0.00     0.182 C 
ATOM      6  C   UNL     1       1.096  -0.024   2.098  1.00  0.00     0.046 C 
ATOM      7  C   UNL     1       0.936  -1.440  -0.094  1.00  0.00     0.005 C 
ATOM      8  C   UNL     1      -0.454  -0.008   2.039  1.00  0.00     0.011 C 
ATOM      9  C   UNL     1      -0.509  -0.787  -0.361  1.00  0.00     0.009 C 
ATOM     10  C   UNL     1      -0.982   0.343   0.645  1.00  0.00    -0.018 C 
ATOM     11  C   UNL     1      -0.919  -0.423  -1.824  1.00  0.00     0.032 C 
ATOM     12  C   UNL     1      -2.541   0.263   0.587  1.00  0.00     0.070 C 
ATOM     13  C   UNL     1      -2.347   0.113  -1.911  1.00  0.00    -0.015 C 
ATOM     14  C   UNL     1      -3.451   1.225   1.385  1.00  0.00     0.242 C 
ATOM     15  C   UNL     1      -3.044   0.420  -0.798  1.00  0.00     0.040 C 
ATOM     16  O   UNL     1      -4.598   1.361   0.613  1.00  0.00    -0.462 OA
ATOM     17  C   UNL     1      -4.367   0.986  -0.662  1.00  0.00     0.334 C 
ATOM     18  O   UNL     1      -5.155   1.179  -1.574  1.00  0.00    -0.247 OA
ATOM     19  C   UNL     1       0.775  -2.813   0.628  1.00  0.00     0.015 C 
ATOM     20  C   UNL     1       1.680  -1.750  -1.417  1.00  0.00     0.015 C 
ATOM     21  C   UNL     1      -0.530   1.789   0.261  1.00  0.00     0.012 C 
ENDBRANCH   1   5
TORSDOF 2
