REMARK SMILES CO[C@H]1O[C@H]([C@@H]2CC(=O)[C@H](OC(C)=O)CC/C(C)=C\[C@H]3C=C(C)[C@@H](C)[C@H]4[C@H](CC(C)C)NC(=O)[C@]43C2=O)c2c(OC(C)=O)c(OC(C)=O)c(OC(C)=O)c(C)c21
REMARK SMILES IDX 6 1 5 2 3 3 4 4 56 5 54 6 38 7 49 8 39 9 44 10 55 11 2 12
REMARK SMILES IDX 1 13 50 14 51 15 53 16 52 17 40 18 41 19 43 20 42 21 45 22
REMARK SMILES IDX 46 23 48 24 47 25 7 26 8 27 9 28 10 29 11 30 12 31 14 32
REMARK SMILES IDX 13 33 15 34 16 35 36 37 37 38 35 39 33 40 20 41 26 42 32 43
REMARK SMILES IDX 34 44 21 45 24 46 27 47 22 48 25 50 23 51 19 52 17 53 18 54
REMARK SMILES IDX 28 56 29 57 30 58 31 59
REMARK H PARENT 32 49
REMARK Flexibility Score:   54.900
ROOT
ATOM      1  C   UNL     1       0.354   0.667   0.010  1.00  0.00     0.098 C 
ENDROOT
BRANCH   1   2
ATOM      2  C   UNL     1       1.062   0.341   1.379  1.00  0.00     0.167 C 
ATOM      3  C   UNL     1       0.814  -1.760   2.320  1.00  0.00     0.283 C 
ATOM      4  O   UNL     1       0.185  -0.508   2.112  1.00  0.00    -0.339 OA
ATOM      5  C   UNL     1       2.179  -1.647   1.767  1.00  0.00     0.024 A 
ATOM      6  C   UNL     1       3.185  -2.622   1.761  1.00  0.00     0.005 A 
ATOM      7  C   UNL     1       2.364  -0.399   1.276  1.00  0.00     0.037 A 
ATOM      8  C   UNL     1       4.454  -2.266   1.232  1.00  0.00     0.180 A 
ATOM      9  C   UNL     1       3.632   0.023   0.839  1.00  0.00     0.183 A 
ATOM     10  C   UNL     1       4.694  -0.924   0.815  1.00  0.00     0.216 A 
ATOM     11  C   UNL     1       2.886  -3.990   2.329  1.00  0.00     0.049 C 
BRANCH   3  12
ATOM     12  O   UNL     1       0.933  -2.005   3.708  1.00  0.00    -0.352 OA
ATOM     13  C   UNL     1      -0.322  -2.331   4.255  1.00  0.00     0.198 C 
ENDBRANCH   3  12
BRANCH   8  14
ATOM     14  O   UNL     1       5.450  -3.180   1.104  1.00  0.00    -0.422 OA
BRANCH  14  15
ATOM     15  C   UNL     1       5.360  -4.339   0.400  1.00  0.00     0.308 C 
ATOM     16  O   UNL     1       4.374  -4.584  -0.281  1.00  0.00    -0.252 OA
ATOM     17  C   UNL     1       6.492  -5.313   0.427  1.00  0.00     0.139 C 
ENDBRANCH  14  15
ENDBRANCH   8  14
BRANCH   9  18
ATOM     18  O   UNL     1       3.804   1.323   0.475  1.00  0.00    -0.422 OA
BRANCH  18  19
ATOM     19  C   UNL     1       4.895   2.107   0.691  1.00  0.00     0.308 C 
ATOM     20  O   UNL     1       5.744   1.798   1.515  1.00  0.00    -0.252 OA
ATOM     21  C   UNL     1       5.025   3.406  -0.035  1.00  0.00     0.139 C 
ENDBRANCH  18  19
ENDBRANCH   9  18
BRANCH  10  22
ATOM     22  O   UNL     1       5.909  -0.533   0.338  1.00  0.00    -0.419 OA
BRANCH  22  23
ATOM     23  C   UNL     1       7.138  -0.923   0.775  1.00  0.00     0.308 C 
ATOM     24  O   UNL     1       7.279  -1.499   1.844  1.00  0.00    -0.252 OA
ATOM     25  C   UNL     1       8.351  -0.569  -0.024  1.00  0.00     0.139 C 
ENDBRANCH  22  23
ENDBRANCH  10  22
ENDBRANCH   1   2
BRANCH   1  26
ATOM     26  C   UNL     1       1.081   1.699  -0.907  1.00  0.00     0.094 C 
BRANCH  26  27
ATOM     27  C   UNL     1       1.016   3.157  -0.458  1.00  0.00     0.174 C 
ATOM     28  O   UNL     1       1.382   3.446   0.672  1.00  0.00    -0.295 OA
BRANCH  27  29
ATOM     29  C   UNL     1       0.594   4.278  -1.417  1.00  0.00     0.243 C 
BRANCH  29  30
ATOM     30  O   UNL     1       0.585   5.499  -0.759  1.00  0.00    -0.455 OA
BRANCH  30  31
ATOM     31  C   UNL     1       1.346   6.581  -1.070  1.00  0.00     0.303 C 
ATOM     32  O   UNL     1       2.172   6.538  -1.970  1.00  0.00    -0.253 OA
ATOM     33  C   UNL     1       1.156   7.852  -0.306  1.00  0.00     0.139 C 
ENDBRANCH  30  31
ENDBRANCH  29  30
BRANCH  29  34
ATOM     34  C   UNL     1      -0.780   4.074  -2.091  1.00  0.00     0.058 C 
BRANCH  34  35
ATOM     35  C   UNL     1      -1.974   4.122  -1.123  1.00  0.00     0.034 CG0
ATOM     36  G   UNL     1      -3.250   3.602  -1.759  1.00  0.00     0.000 G0
ENDBRANCH  34  35
ENDBRANCH  29  34
ENDBRANCH  27  29
ENDBRANCH  26  27
ENDBRANCH   1  26
BRANCH   1  37
ATOM     37  C   UNL     1      -1.062   1.149   0.295  1.00  0.00     0.156 C 
ATOM     38  O   UNL     1      -1.177   1.951   1.214  1.00  0.00    -0.298 OA
BRANCH  37  39
ATOM     39  C   UNL     1      -2.343   0.589  -0.372  1.00  0.00     0.123 C 
ATOM     40  C   UNL     1      -2.156   0.254  -1.833  1.00  0.00     0.235 C 
ATOM     41  C   UNL     1      -3.587   1.583  -0.142  1.00  0.00     0.058 C 
ATOM     42  C   UNL     1      -2.631  -0.867   0.149  1.00  0.00     0.042 C 
ATOM     43  N   UNL     1      -2.620  -0.954  -2.178  1.00  0.00    -0.352 N 
ATOM     44  O   UNL     1      -1.696   1.013  -2.665  1.00  0.00    -0.274 OA
ATOM     45  C   UNL     1      -4.846   0.886   0.357  1.00  0.00    -0.019 C 
ATOM     46  C   UNL     1      -3.424  -0.792   1.481  1.00  0.00     0.018 C 
ATOM     47  C   UNL     1      -3.315  -1.562  -1.077  1.00  0.00     0.087 C 
ATOM     48  C   UNL     1      -4.790  -0.203   1.155  1.00  0.00    -0.073 C 
ATOM     49  H   UNL     1      -2.615  -1.274  -3.154  1.00  0.00     0.163 HD
ATOM     50  C   UNL     1      -3.485  -2.117   2.257  1.00  0.00     0.013 C 
ATOM     51  C   UNL     1      -6.071  -0.855   1.624  1.00  0.00     0.039 C 
BRANCH  41  52
ATOM     52  C   UNL     1      -3.935   2.514  -1.310  1.00  0.00    -0.019 C 
ATOM     53  C   UNL     1      -3.250   3.602  -1.759  1.00  0.00    -0.077 CG0
ATOM     54  C   UNL     1      -3.818   4.340  -2.945  1.00  0.00     0.039 C 
ATOM     55  G   UNL     1      -1.974   4.122  -1.123  1.00  0.00     0.000 G0
ENDBRANCH  41  52
BRANCH  47  56
ATOM     56  C   UNL     1      -3.285  -3.107  -1.146  1.00  0.00     0.028 C 
BRANCH  56  57
ATOM     57  C   UNL     1      -4.356  -3.721  -2.104  1.00  0.00    -0.015 C 
ATOM     58  C   UNL     1      -4.346  -5.250  -1.986  1.00  0.00     0.007 C 
ATOM     59  C   UNL     1      -4.204  -3.331  -3.581  1.00  0.00     0.007 C 
ENDBRANCH  56  57
ENDBRANCH  47  56
ENDBRANCH  37  39
ENDBRANCH   1  37
TORSDOF 12
