REMARK SMILES Cc1ccc2c(c1C)C1=CC[C@@H]3[C@@]4(C)[C@H](O)[C@@H](O)[C@@H](O)[C@@](C)(CO)[C@@H]4CC[C@@]3(C)[C@]1(C)CC2
REMARK SMILES IDX 1 1 2 2 3 3 4 4 5 5 33 6 32 7 30 8 31 9 9 10 10 11 11 12
REMARK SMILES IDX 12 13 13 14 14 15 15 16 17 17 19 18 21 19 22 20 25 21 26 22
REMARK SMILES IDX 27 23 28 24 29 25 6 26 7 27 8 28 16 29 23 31 24 32 18 34
REMARK SMILES IDX 20 36
REMARK H PARENT 16 30 24 33 18 35 20 37
ROOT
ATOM      1  C   UNL     1      -6.762   1.973  -1.943  1.00  0.00     0.044 C 
ATOM      2  C   UNL     1      -5.972   1.090  -1.003  1.00  0.00    -0.048 A 
ATOM      3  C   UNL     1      -6.642   0.531   0.086  1.00  0.00     0.004 A 
ATOM      4  C   UNL     1      -5.961  -0.228   1.021  1.00  0.00     0.004 A 
ATOM      5  C   UNL     1      -4.600  -0.500   0.873  1.00  0.00    -0.040 A 
ATOM      6  C   UNL     1      -3.947  -1.285   1.988  1.00  0.00     0.037 C 
ATOM      7  C   UNL     1      -2.510  -1.713   1.691  1.00  0.00     0.017 C 
ATOM      8  C   UNL     1      -1.648  -0.637   0.966  1.00  0.00    -0.001 C 
ATOM      9  C   UNL     1      -1.680   0.693   1.789  1.00  0.00     0.017 C 
ATOM     10  C   UNL     1      -2.401  -0.347  -0.345  1.00  0.00    -0.038 C 
ATOM     11  C   UNL     1      -1.788  -0.445  -1.544  1.00  0.00    -0.022 C 
ATOM     12  C   UNL     1      -0.316  -0.620  -1.749  1.00  0.00     0.032 C 
ATOM     13  C   UNL     1       0.511  -0.359  -0.465  1.00  0.00     0.008 C 
ATOM     14  C   UNL     1       2.109  -0.421  -0.670  1.00  0.00     0.003 C 
ATOM     15  C   UNL     1       2.585  -1.793  -1.258  1.00  0.00     0.015 C 
ATOM     16  C   UNL     1       2.562   0.710  -1.686  1.00  0.00     0.152 C 
ATOM     17  C   UNL     1       4.100   0.984  -1.670  1.00  0.00     0.172 C 
ATOM     18  C   UNL     1       4.616   1.355  -0.263  1.00  0.00     0.154 C 
ATOM     19  C   UNL     1       4.293   0.256   0.815  1.00  0.00     0.023 C 
ATOM     20  C   UNL     1       5.201  -0.986   0.620  1.00  0.00     0.017 C 
ATOM     21  C   UNL     1       2.739  -0.087   0.754  1.00  0.00     0.009 C 
ATOM     22  C   UNL     1       2.255  -1.133   1.806  1.00  0.00     0.005 C 
ATOM     23  C   UNL     1       0.740  -0.991   2.009  1.00  0.00     0.008 C 
ATOM     24  C   UNL     1      -0.125  -1.186   0.721  1.00  0.00    -0.019 C 
ATOM     25  C   UNL     1      -0.142  -2.717   0.394  1.00  0.00     0.012 C 
ATOM     26  C   UNL     1      -3.879  -0.003  -0.251  1.00  0.00    -0.016 A 
ATOM     27  C   UNL     1      -4.579   0.855  -1.179  1.00  0.00    -0.040 A 
ATOM     28  C   UNL     1      -3.901   1.633  -2.299  1.00  0.00     0.045 C 
ENDROOT
BRANCH  16  29
ATOM     29  O   UNL     1       2.150   0.447  -3.008  1.00  0.00    -0.390 OA
ATOM     30  H   UNL     1       2.761  -0.225  -3.407  1.00  0.00     0.211 HD
ENDBRANCH  16  29
BRANCH  19  31
ATOM     31  C   UNL     1       4.658   0.850   2.220  1.00  0.00     0.165 C 
BRANCH  31  32
ATOM     32  O   UNL     1       5.977   1.337   2.250  1.00  0.00    -0.396 OA
ATOM     33  H   UNL     1       6.542   0.644   2.679  1.00  0.00     0.210 HD
ENDBRANCH  31  32
ENDBRANCH  19  31
BRANCH  17  34
ATOM     34  O   UNL     1       4.441   1.988  -2.595  1.00  0.00    -0.388 OA
ATOM     35  H   UNL     1       3.880   2.785  -2.405  1.00  0.00     0.211 HD
ENDBRANCH  17  34
BRANCH  18  36
ATOM     36  O   UNL     1       4.156   2.637   0.117  1.00  0.00    -0.390 OA
ATOM     37  H   UNL     1       3.174   2.629   0.211  1.00  0.00     0.211 HD
ENDBRANCH  18  36
TORSDOF 5
