REMARK SMILES Cc1coc2c1c(C)cc1oc(=O)c(CC(=O)N[C@@H](C)CO)c(C)c12
REMARK SMILES IDX 16 1 17 2 18 3 15 5 14 6 2 7 3 8 6 9 4 10 5 11 7 12 25 13
REMARK SMILES IDX 9 14 10 15 23 16 11 17 12 18 13 19 1 20 8 21 24 22 19 23
REMARK SMILES IDX 20 24 21 25 22 26
REMARK H PARENT 18 4 22 27
ROOT
ATOM      1  C   UNL     1      -2.856   0.210  -0.069  1.00  0.00     0.224 C 
ATOM      2  O   UNL     1      -2.303  -0.547  -0.857  1.00  0.00    -0.275 OA
ATOM      3  N   UNL     1      -4.168   0.035   0.249  1.00  0.00    -0.351 N 
ATOM      4  H   UNL     1      -4.608   0.699   0.905  1.00  0.00     0.163 HD
ENDROOT
BRANCH   1   5
ATOM      5  C   UNL     1      -2.099   1.376   0.529  1.00  0.00     0.143 C 
BRANCH   5   6
ATOM      6  C   UNL     1      -0.642   1.428   0.077  1.00  0.00     0.051 A 
ATOM      7  C   UNL     1       4.796  -1.101   0.392  1.00  0.00    -0.005 A 
ATOM      8  C   UNL     1       3.946  -1.812   1.218  1.00  0.00     0.199 A 
ATOM      9  C   UNL     1       4.019  -0.087  -0.164  1.00  0.00     0.027 A 
ATOM     10  O   UNL     1       2.744  -1.286   1.180  1.00  0.00    -0.463 OA
ATOM     11  C   UNL     1       2.748  -0.255   0.368  1.00  0.00     0.145 A 
ATOM     12  C   UNL     1       4.298   0.953  -1.074  1.00  0.00    -0.036 A 
ATOM     13  C   UNL     1       1.664   0.594   0.036  1.00  0.00     0.064 A 
ATOM     14  C   UNL     1       3.240   1.811  -1.413  1.00  0.00     0.052 A 
ATOM     15  C   UNL     1       1.953   1.644  -0.876  1.00  0.00     0.142 A 
ATOM     16  C   UNL     1       0.327   0.484   0.532  1.00  0.00    -0.025 A 
ATOM     17  O   UNL     1       1.013   2.498  -1.247  1.00  0.00    -0.422 OA
ATOM     18  C   UNL     1      -0.234   2.438  -0.818  1.00  0.00     0.340 A 
ATOM     19  O   UNL     1      -1.029   3.268  -1.227  1.00  0.00    -0.246 OA
ATOM     20  C   UNL     1       6.242  -1.430   0.198  1.00  0.00     0.048 C 
ATOM     21  C   UNL     1       5.635   1.218  -1.712  1.00  0.00     0.045 C 
ATOM     22  C   UNL     1      -0.118  -0.569   1.538  1.00  0.00     0.046 C 
ENDBRANCH   5   6
ENDBRANCH   1   5
BRANCH   3  23
ATOM     23  C   UNL     1      -4.992  -1.030  -0.305  1.00  0.00     0.104 C 
ATOM     24  C   UNL     1      -5.532  -1.909   0.826  1.00  0.00     0.033 C 
BRANCH  23  25
ATOM     25  C   UNL     1      -6.126  -0.418  -1.143  1.00  0.00     0.180 C 
BRANCH  25  26
ATOM     26  O   UNL     1      -6.913   0.460  -0.382  1.00  0.00    -0.394 OA
ATOM     27  H   UNL     1      -7.622  -0.085   0.047  1.00  0.00     0.210 HD
ENDBRANCH  25  26
ENDBRANCH  23  25
ENDBRANCH   3  23
TORSDOF 5
