REMARK SMILES COc1cc(/C=C/C(=O)O[C@@H]2[C@@H](O)[C@H](O[C@H]3[C@H](Oc4c(-c5ccc(O)c(O)c5)oc5cc(O[C@@H]6O[C@H](CO)[C@@H](O)[C@H](O)[C@H]6O)cc(O)c5c4=O)O[C@H](CO)[C@@H](O)[C@@H]3O)O[C@H](CO)[C@H]2O)ccc1O
REMARK SMILES IDX 16 1 17 2 51 3 52 4 55 5 57 6 15 7 14 8 11 9 12 10 63 11
REMARK SMILES IDX 60 12 59 13 10 14 8 15 9 16 7 17 6 18 5 19 3 20 4 21 67 22
REMARK SMILES IDX 66 23 65 24 2 25 1 26 68 27 13 29 64 31 61 33 62 34 18 36
REMARK SMILES IDX 19 37 20 38 49 39 29 40 48 41 50 42 30 43 46 44 31 45 45 46
REMARK SMILES IDX 32 47 21 48 22 49 28 50 23 51 26 52 24 53 27 54 25 56 47 58
REMARK SMILES IDX 33 60 34 61 35 62 43 63 36 64 41 65 39 66 44 67 37 69 38 70
REMARK SMILES IDX 42 72 40 74 58 76 56 78 53 80 54 81
REMARK H PARENT 68 28 13 30 64 32 62 35 27 55 25 57 47 59 44 68 38 71 42 73
REMARK H PARENT 40 75 58 77 56 79 54 82
ROOT
ATOM      1  C   UNL     1       0.955  -1.272   1.184  1.00  0.00     0.221 C 
ATOM      2  C   UNL     1      -0.097  -1.851   0.201  1.00  0.00     0.340 C 
ATOM      3  O   UNL     1      -0.979  -2.748   0.866  1.00  0.00    -0.332 OA
ATOM      4  C   UNL     1      -0.289  -3.922   1.257  1.00  0.00     0.179 C 
ATOM      5  C   UNL     1       0.781  -3.562   2.309  1.00  0.00     0.177 C 
ATOM      6  C   UNL     1       1.750  -2.506   1.740  1.00  0.00     0.181 C 
ENDROOT
BRANCH   1   7
ATOM      7  O   UNL     1       1.763  -0.367   0.428  1.00  0.00    -0.337 OA
BRANCH   7   8
ATOM      8  C   UNL     1       2.679   0.400   1.198  1.00  0.00     0.283 C 
ATOM      9  C   UNL     1       5.104   1.104   1.341  1.00  0.00     0.242 C 
ATOM     10  C   UNL     1       4.053   0.330   0.495  1.00  0.00     0.214 C 
ATOM     11  C   UNL     1       4.554   2.532   1.569  1.00  0.00     0.189 C 
ATOM     12  C   UNL     1       3.101   2.490   2.135  1.00  0.00     0.179 C 
ATOM     13  O   UNL     1       2.251   1.749   1.263  1.00  0.00    -0.341 OA
BRANCH   9  14
ATOM     14  O   UNL     1       6.361   1.209   0.742  1.00  0.00    -0.453 OA
BRANCH  14  15
ATOM     15  C   UNL     1       7.208   0.202   0.379  1.00  0.00     0.331 C 
ATOM     16  O   UNL     1       6.875  -0.968   0.466  1.00  0.00    -0.247 OA
BRANCH  15  17
ATOM     17  C   UNL     1       8.559   0.482  -0.143  1.00  0.00     0.094 C 
ATOM     18  C   UNL     1       9.187   1.661   0.006  1.00  0.00     0.016 C 
BRANCH  18  19
ATOM     19  C   UNL     1      10.574   1.901  -0.488  1.00  0.00    -0.021 A 
ATOM     20  C   UNL     1      12.659   3.180  -0.337  1.00  0.00     0.161 A 
ATOM     21  C   UNL     1      11.330   2.941   0.079  1.00  0.00     0.058 A 
ATOM     22  C   UNL     1      13.214   2.388  -1.352  1.00  0.00     0.157 A 
ATOM     23  C   UNL     1      12.461   1.360  -1.930  1.00  0.00     0.051 A 
ATOM     24  C   UNL     1      11.160   1.110  -1.497  1.00  0.00     0.012 A 
BRANCH  20  25
ATOM     25  O   UNL     1      13.438   4.144   0.221  1.00  0.00    -0.493 OA
ATOM     26  C   UNL     1      13.108   4.917   1.315  1.00  0.00     0.278 C 
ENDBRANCH  20  25
BRANCH  22  27
ATOM     27  O   UNL     1      14.480   2.618  -1.762  1.00  0.00    -0.504 OA
ATOM     28  H   UNL     1      14.898   2.093  -2.460  1.00  0.00     0.293 HD
ENDBRANCH  22  27
ENDBRANCH  18  19
ENDBRANCH  15  17
ENDBRANCH  14  15
ENDBRANCH   9  14
BRANCH  10  29
ATOM     29  O   UNL     1       4.397  -1.013   0.286  1.00  0.00    -0.384 OA
ATOM     30  H   UNL     1       4.515  -1.433   1.177  1.00  0.00     0.211 HD
ENDBRANCH  10  29
BRANCH  11  31
ATOM     31  O   UNL     1       5.420   3.261   2.404  1.00  0.00    -0.386 OA
ATOM     32  H   UNL     1       5.426   2.811   3.289  1.00  0.00     0.211 HD
ENDBRANCH  11  31
BRANCH  12  33
ATOM     33  C   UNL     1       2.506   3.901   2.285  1.00  0.00     0.191 C 
BRANCH  33  34
ATOM     34  O   UNL     1       3.248   4.682   3.183  1.00  0.00    -0.394 OA
ATOM     35  H   UNL     1       3.013   4.368   4.095  1.00  0.00     0.210 HD
ENDBRANCH  33  34
ENDBRANCH  12  33
ENDBRANCH   7   8
ENDBRANCH   1   7
BRANCH   2  36
ATOM     36  O   UNL     1      -0.815  -0.824  -0.403  1.00  0.00    -0.454 OA
BRANCH  36  37
ATOM     37  C   UNL     1      -2.168  -0.758  -0.572  1.00  0.00     0.214 A 
ATOM     38  C   UNL     1      -2.940  -1.749  -1.251  1.00  0.00     0.180 A 
ATOM     39  C   UNL     1      -2.840   0.350  -0.028  1.00  0.00     0.239 A 
ATOM     40  O   UNL     1      -4.260  -1.594  -1.332  1.00  0.00    -0.452 OA
ATOM     41  C   UNL     1      -4.240   0.468  -0.160  1.00  0.00     0.111 A 
ATOM     42  O   UNL     1      -2.196   1.205   0.557  1.00  0.00    -0.285 OA
ATOM     43  C   UNL     1      -4.922  -0.558  -0.845  1.00  0.00     0.146 A 
ATOM     44  C   UNL     1      -4.986   1.558   0.350  1.00  0.00     0.134 A 
ATOM     45  C   UNL     1      -6.303  -0.486  -1.052  1.00  0.00     0.094 A 
ATOM     46  C   UNL     1      -6.373   1.612   0.141  1.00  0.00     0.093 A 
ATOM     47  C   UNL     1      -7.043   0.610  -0.570  1.00  0.00     0.130 A 
BRANCH  38  48
ATOM     48  C   UNL     1      -2.404  -2.951  -1.951  1.00  0.00     0.025 A 
ATOM     49  C   UNL     1      -1.125  -2.992  -2.530  1.00  0.00     0.016 A 
ATOM     50  C   UNL     1      -3.237  -4.080  -2.088  1.00  0.00     0.062 A 
ATOM     51  C   UNL     1      -0.676  -4.141  -3.188  1.00  0.00     0.051 A 
ATOM     52  C   UNL     1      -2.793  -5.234  -2.744  1.00  0.00     0.158 A 
ATOM     53  C   UNL     1      -1.502  -5.268  -3.293  1.00  0.00     0.157 A 
BRANCH  52  54
ATOM     54  O   UNL     1      -3.623  -6.294  -2.834  1.00  0.00    -0.504 OA
ATOM     55  H   UNL     1      -3.375  -7.119  -3.275  1.00  0.00     0.293 HD
ENDBRANCH  52  54
BRANCH  53  56
ATOM     56  O   UNL     1      -1.066  -6.376  -3.928  1.00  0.00    -0.504 OA
ATOM     57  H   UNL     1      -0.184  -6.432  -4.321  1.00  0.00     0.293 HD
ENDBRANCH  53  56
ENDBRANCH  38  48
BRANCH  44  58
ATOM     58  O   UNL     1      -4.376   2.555   1.028  1.00  0.00    -0.507 OA
ATOM     59  H   UNL     1      -4.864   3.309   1.387  1.00  0.00     0.293 HD
ENDBRANCH  44  58
BRANCH  47  60
ATOM     60  O   UNL     1      -8.378   0.774  -0.778  1.00  0.00    -0.462 OA
BRANCH  60  61
ATOM     61  C   UNL     1      -9.260  -0.001  -1.518  1.00  0.00     0.339 C 
ATOM     62  O   UNL     1      -9.464   0.572  -2.810  1.00  0.00    -0.332 OA
ATOM     63  C   UNL     1     -10.585  -0.220  -0.752  1.00  0.00     0.214 C 
ATOM     64  C   UNL     1     -10.181   1.810  -2.803  1.00  0.00     0.179 C 
ATOM     65  C   UNL     1     -11.361   1.104  -0.648  1.00  0.00     0.180 C 
ATOM     66  C   UNL     1     -11.549   1.691  -2.063  1.00  0.00     0.177 C 
BRANCH  63  67
ATOM     67  O   UNL     1     -11.371  -1.172  -1.424  1.00  0.00    -0.384 OA
ATOM     68  H   UNL     1     -10.984  -2.064  -1.224  1.00  0.00     0.211 HD
ENDBRANCH  63  67
BRANCH  64  69
ATOM     69  C   UNL     1      -9.300   3.006  -2.366  1.00  0.00     0.191 C 
BRANCH  69  70
ATOM     70  O   UNL     1      -9.987   4.216  -2.550  1.00  0.00    -0.394 OA
ATOM     71  H   UNL     1      -9.899   4.453  -3.510  1.00  0.00     0.210 HD
ENDBRANCH  69  70
ENDBRANCH  64  69
BRANCH  65  72
ATOM     72  O   UNL     1     -10.658   1.996   0.176  1.00  0.00    -0.387 OA
ATOM     73  H   UNL     1     -11.284   2.733   0.403  1.00  0.00     0.211 HD
ENDBRANCH  65  72
BRANCH  66  74
ATOM     74  O   UNL     1     -12.464   0.896  -2.787  1.00  0.00    -0.387 OA
ATOM     75  H   UNL     1     -11.975   0.273  -3.385  1.00  0.00     0.211 HD
ENDBRANCH  66  74
ENDBRANCH  60  61
ENDBRANCH  47  60
ENDBRANCH  36  37
ENDBRANCH   2  36
BRANCH   6  76
ATOM     76  O   UNL     1       2.691  -2.177   2.728  1.00  0.00    -0.387 OA
ATOM     77  H   UNL     1       2.195  -1.801   3.502  1.00  0.00     0.211 HD
ENDBRANCH   6  76
BRANCH   5  78
ATOM     78  O   UNL     1       1.486  -4.702   2.739  1.00  0.00    -0.387 OA
ATOM     79  H   UNL     1       1.943  -5.088   1.947  1.00  0.00     0.211 HD
ENDBRANCH   5  78
BRANCH   4  80
ATOM     80  C   UNL     1      -1.299  -4.918   1.843  1.00  0.00     0.191 C 
BRANCH  80  81
ATOM     81  O   UNL     1      -2.260  -5.263   0.883  1.00  0.00    -0.394 OA
ATOM     82  H   UNL     1      -2.964  -4.564   0.920  1.00  0.00     0.210 HD
ENDBRANCH  80  81
ENDBRANCH   4  80
TORSDOF 29
