REMARK SMILES COc1ccc(OC)c([C@@H]2C(C(C)=O)=C(O)C(=O)N2Cc2cccnc2)c1
REMARK SMILES IDX 3 1 4 2 5 3 6 4 9 5 27 6 2 7 1 8 10 9 11 10 19 11 15 12
REMARK SMILES IDX 17 13 18 14 12 15 14 16 13 17 20 18 21 19 22 20 26 21 23 22
REMARK SMILES IDX 25 23 24 24 16 25 7 27 8 28
REMARK H PARENT 16 26
ROOT
ATOM      1  C   UNL     1      -2.606   1.267  -1.236  1.00  0.00     0.119 A 
ATOM      2  C   UNL     1      -3.426   1.018  -0.122  1.00  0.00     0.050 A 
ATOM      3  C   UNL     1      -2.959   0.243   0.938  1.00  0.00     0.050 A 
ATOM      4  C   UNL     1      -1.658  -0.298   0.916  1.00  0.00     0.124 A 
ATOM      5  C   UNL     1      -0.823  -0.050  -0.201  1.00  0.00     0.025 A 
ATOM      6  C   UNL     1      -1.316   0.727  -1.266  1.00  0.00     0.056 A 
ENDROOT
BRANCH   1   7
ATOM      7  O   UNL     1      -3.016   2.017  -2.292  1.00  0.00    -0.497 OA
ATOM      8  C   UNL     1      -4.244   2.635  -2.411  1.00  0.00     0.278 C 
ENDBRANCH   1   7
BRANCH   5   9
ATOM      9  C   UNL     1       0.595  -0.607  -0.283  1.00  0.00     0.158 C 
ATOM     10  C   UNL     1       0.603  -2.126  -0.156  1.00  0.00     0.070 C 
ATOM     11  N   UNL     1       1.400  -0.161   0.843  1.00  0.00    -0.320 N 
ATOM     12  C   UNL     1       1.339  -2.461   0.926  1.00  0.00     0.190 C 
ATOM     13  C   UNL     1       1.805  -1.237   1.545  1.00  0.00     0.290 C 
ATOM     14  O   UNL     1       2.504  -1.181   2.546  1.00  0.00    -0.265 OA
BRANCH  10  15
ATOM     15  C   UNL     1      -0.113  -2.995  -1.141  1.00  0.00     0.162 C 
ATOM     16  O   UNL     1      -0.462  -2.491  -2.198  1.00  0.00    -0.295 OA
ATOM     17  C   UNL     1      -0.504  -4.427  -0.908  1.00  0.00     0.093 C 
ENDBRANCH  10  15
BRANCH  11  18
ATOM     18  C   UNL     1       1.734   1.220   1.179  1.00  0.00     0.158 C 
BRANCH  18  19
ATOM     19  C   UNL     1       2.688   1.826   0.173  1.00  0.00    -0.010 A 
ATOM     20  C   UNL     1       4.008   2.130   0.552  1.00  0.00     0.009 A 
ATOM     21  C   UNL     1       2.295   2.111  -1.144  1.00  0.00     0.116 A 
ATOM     22  C   UNL     1       4.896   2.683  -0.372  1.00  0.00     0.020 A 
ATOM     23  N   UNL     1       3.179   2.651  -2.025  1.00  0.00    -0.264 NA
ATOM     24  C   UNL     1       4.460   2.936  -1.672  1.00  0.00     0.111 A 
ENDBRANCH  18  19
ENDBRANCH  11  18
BRANCH  12  25
ATOM     25  O   UNL     1       1.676  -3.687   1.383  1.00  0.00    -0.503 OA
ATOM     26  H   UNL     1       1.546  -4.507   0.899  1.00  0.00     0.293 HD
ENDBRANCH  12  25
ENDBRANCH   5   9
BRANCH   4  27
ATOM     27  O   UNL     1      -1.188  -1.060   1.939  1.00  0.00    -0.496 OA
ATOM     28  C   UNL     1      -1.890  -1.437   3.065  1.00  0.00     0.278 C 
ENDBRANCH   4  27
TORSDOF 7
