REMARK SMILES CN(C)[C@@H](Cc1ccccc1)C(=O)NCC(=O)c1c[nH]c2ccccc12
REMARK SMILES IDX 12 1 13 2 14 3 4 5 2 6 1 7 3 8 5 9 6 10 7 11 11 12 8 13
REMARK SMILES IDX 10 14 9 15 15 16 16 17 17 18 18 19 19 20 26 21 20 22 25 23
REMARK SMILES IDX 21 24 24 25 22 26 23 27
REMARK H PARENT 14 4 20 28
ROOT
ATOM      1  C   UNL     1      -0.493  -0.656   0.195  1.00  0.00     0.238 C 
ATOM      2  O   UNL     1      -0.007  -0.298   1.260  1.00  0.00    -0.273 OA
ATOM      3  N   UNL     1       0.292  -1.347  -0.686  1.00  0.00    -0.347 N 
ATOM      4  H   UNL     1      -0.066  -1.679  -1.585  1.00  0.00     0.163 HD
ENDROOT
BRANCH   1   5
ATOM      5  C   UNL     1      -1.944  -0.227  -0.067  1.00  0.00     0.150 C 
BRANCH   5   6
ATOM      6  N   UNL     1      -2.550  -0.594  -1.380  1.00  0.00    -0.298 NA
ATOM      7  C   UNL     1      -1.994   0.127  -2.537  1.00  0.00     0.105 C 
ATOM      8  C   UNL     1      -2.811  -2.026  -1.632  1.00  0.00     0.105 C 
ENDBRANCH   5   6
BRANCH   5   9
ATOM      9  C   UNL     1      -2.867  -0.658   1.102  1.00  0.00     0.064 C 
BRANCH   9  10
ATOM     10  C   UNL     1      -4.204   0.043   1.027  1.00  0.00    -0.046 A 
ATOM     11  C   UNL     1      -5.391  -0.676   0.812  1.00  0.00     0.004 A 
ATOM     12  C   UNL     1      -4.269   1.441   1.185  1.00  0.00     0.004 A 
ATOM     13  C   UNL     1      -6.618  -0.005   0.743  1.00  0.00     0.000 A 
ATOM     14  C   UNL     1      -5.495   2.106   1.121  1.00  0.00     0.000 A 
ATOM     15  C   UNL     1      -6.669   1.384   0.897  1.00  0.00     0.000 A 
ENDBRANCH   9  10
ENDBRANCH   5   9
ENDBRANCH   1   5
BRANCH   3  16
ATOM     16  C   UNL     1       1.694  -1.626  -0.410  1.00  0.00     0.197 C 
BRANCH  16  17
ATOM     17  C   UNL     1       2.511  -0.350  -0.323  1.00  0.00     0.184 C 
ATOM     18  O   UNL     1       1.973   0.730  -0.515  1.00  0.00    -0.292 OA
BRANCH  17  19
ATOM     19  C   UNL     1       3.956  -0.393  -0.005  1.00  0.00     0.045 A 
ATOM     20  C   UNL     1       4.726  -1.536   0.202  1.00  0.00     0.095 A 
ATOM     21  C   UNL     1       4.822   0.678   0.156  1.00  0.00     0.010 A 
ATOM     22  N   UNL     1       6.005  -1.194   0.477  1.00  0.00    -0.360 N 
ATOM     23  C   UNL     1       4.626   2.061   0.075  1.00  0.00     0.011 A 
ATOM     24  C   UNL     1       6.055   0.149   0.448  1.00  0.00     0.046 A 
ATOM     25  C   UNL     1       5.731   2.900   0.303  1.00  0.00     0.001 A 
ATOM     26  C   UNL     1       7.168   0.958   0.677  1.00  0.00     0.027 A 
ATOM     27  C   UNL     1       6.997   2.351   0.602  1.00  0.00     0.002 A 
ATOM     28  H   UNL     1       6.795  -1.847   0.674  1.00  0.00     0.166 HD
ENDBRANCH  17  19
ENDBRANCH  16  17
ENDBRANCH   3  16
TORSDOF 7
