REMARK SMILES CC1(C)CCC[C@]2(C)[C@@H]1CC[C@@]13C[C@@H](CC[C@H]12)[C@H]([C@H]1OC[C@]2(C[C@@]45CC[C@@H]6C(C)(C)CCC[C@@]6(C)[C@@H]4CC[C@@H]2C5)O1)C3
REMARK SMILES IDX 19 1 20 2 21 3 22 4 23 5 24 6 25 7 26 8 27 9 28 10 29 11
REMARK SMILES IDX 30 12 31 13 32 14 33 15 34 16 35 17 36 18 37 19 38 20 39 21
REMARK SMILES IDX 40 22 41 23 18 24 2 25 4 26 9 27 5 28 7 29 10 30 6 31 17 32
REMARK SMILES IDX 11 33 16 34 12 35 15 36 13 37 42 38 14 39 1 40 3 41 8 42
REMARK H PARENT
ROOT
ATOM      1  C   UNL     1       0.227   1.116   0.002  1.00  0.00     0.254 C 
ATOM      2  O   UNL     1       0.048   0.590  -1.300  1.00  0.00    -0.349 OA
ATOM      3  C   UNL     1      -0.846  -0.465  -1.136  1.00  0.00     0.199 C 
ATOM      4  C   UNL     1      -1.649  -0.120   0.098  1.00  0.00     0.098 C 
ATOM      5  C   UNL     1      -2.911   0.757  -0.142  1.00  0.00     0.045 C 
ATOM      6  C   UNL     1      -4.019   0.108   0.741  1.00  0.00    -0.023 C 
ATOM      7  C   UNL     1      -4.947   1.169   1.382  1.00  0.00     0.008 C 
ATOM      8  C   UNL     1      -6.057   1.732   0.483  1.00  0.00     0.005 C 
ATOM      9  C   UNL     1      -6.666   0.692  -0.502  1.00  0.00     0.001 C 
ATOM     10  C   UNL     1      -8.076   1.058  -1.184  1.00  0.00    -0.032 C 
ATOM     11  C   UNL     1      -8.719   2.333  -0.583  1.00  0.00     0.011 C 
ATOM     12  C   UNL     1      -7.915   1.317  -2.706  1.00  0.00     0.011 C 
ATOM     13  C   UNL     1      -9.074  -0.101  -0.983  1.00  0.00     0.007 C 
ATOM     14  C   UNL     1      -8.546  -1.482  -1.434  1.00  0.00     0.001 C 
ATOM     15  C   UNL     1      -7.018  -1.667  -1.276  1.00  0.00     0.007 C 
ATOM     16  C   UNL     1      -6.400  -0.831  -0.120  1.00  0.00    -0.026 C 
ATOM     17  C   UNL     1      -7.016  -1.358   1.222  1.00  0.00     0.012 C 
ATOM     18  C   UNL     1      -4.816  -0.996  -0.120  1.00  0.00     0.001 C 
ATOM     19  C   UNL     1      -4.320  -2.422   0.177  1.00  0.00     0.005 C 
ATOM     20  C   UNL     1      -2.791  -2.477   0.167  1.00  0.00     0.007 C 
ATOM     21  C   UNL     1      -2.127  -1.309   0.965  1.00  0.00     0.024 C 
ATOM     22  C   UNL     1      -3.157  -0.578   1.840  1.00  0.00     0.014 C 
ATOM     23  O   UNL     1      -0.757   0.622   0.883  1.00  0.00    -0.343 OA
ENDROOT
BRANCH   1  24
ATOM     24  C   UNL     1       1.627   0.798   0.601  1.00  0.00     0.049 C 
ATOM     25  C   UNL     1       8.429   0.990  -0.461  1.00  0.00    -0.032 C 
ATOM     26  C   UNL     1       9.184  -0.169   0.202  1.00  0.00     0.007 C 
ATOM     27  C   UNL     1       6.842   0.716  -0.449  1.00  0.00     0.001 C 
ATOM     28  C   UNL     1       8.686  -0.465   1.642  1.00  0.00     0.001 C 
ATOM     29  C   UNL     1       6.301  -0.295   0.650  1.00  0.00    -0.026 C 
ATOM     30  C   UNL     1       6.150   0.337  -1.782  1.00  0.00     0.005 C 
ATOM     31  C   UNL     1       7.191  -0.130   1.903  1.00  0.00     0.007 C 
ATOM     32  C   UNL     1       4.781   0.112   0.956  1.00  0.00     0.001 C 
ATOM     33  C   UNL     1       4.663   0.680  -1.653  1.00  0.00     0.008 C 
ATOM     34  C   UNL     1       4.173  -0.899   1.987  1.00  0.00     0.005 C 
ATOM     35  C   UNL     1       3.866   0.242  -0.363  1.00  0.00    -0.026 C 
ATOM     36  C   UNL     1       2.662  -0.913   2.107  1.00  0.00     0.004 C 
ATOM     37  C   UNL     1       2.910  -0.980  -0.477  1.00  0.00     0.011 C 
ATOM     38  C   UNL     1       2.773   1.350  -0.224  1.00  0.00     0.016 C 
ATOM     39  C   UNL     1       1.956  -0.706   0.736  1.00  0.00    -0.002 C 
ATOM     40  C   UNL     1       8.976   1.196  -1.894  1.00  0.00     0.011 C 
ATOM     41  C   UNL     1       8.778   2.300   0.311  1.00  0.00     0.011 C 
ATOM     42  C   UNL     1       6.393  -1.809   0.209  1.00  0.00     0.012 C 
ENDBRANCH   1  24
TORSDOF 1
