REMARK SMILES C[C@@H]1O[C@@H](O[C@H]2CC[C@H](O[C@H]3[C@H](O)C[C@H](c4ccc5c(c4O)C(=O)c4ccc(C[C@@](C)(O)CC(=O)O)c(O)c4C5=O)O[C@@H]3C)O[C@H]2C)CCC1=O
REMARK SMILES IDX 16 1 17 2 18 3 19 4 40 5 41 6 39 7 37 8 28 9 27 10 26 11
REMARK SMILES IDX 25 12 23 13 24 14 20 15 21 16 15 17 11 18 12 19 43 20 14 21
REMARK SMILES IDX 42 22 44 23 10 24 9 25 6 26 7 27 46 28 8 29 45 30 47 31 5 32
REMARK SMILES IDX 4 33 2 34 3 35 50 36 49 37 51 38 48 39 1 40 13 41 22 43
REMARK SMILES IDX 38 45 29 47 30 48 31 49 32 50 33 52 34 53 35 54 36 55
REMARK H PARENT 13 42 22 44 38 46 32 51 36 56
ROOT
ATOM      1  C   UNL     1       1.365   1.351  -0.479  1.00  0.00     0.023 A 
ATOM      2  C   UNL     1       2.192   2.323  -1.058  1.00  0.00     0.011 A 
ATOM      3  C   UNL     1       3.570   2.216  -0.998  1.00  0.00     0.013 A 
ATOM      4  C   UNL     1       4.188   1.127  -0.367  1.00  0.00     0.038 A 
ATOM      5  C   UNL     1       5.675   1.074  -0.337  1.00  0.00     0.198 C 
ATOM      6  O   UNL     1       6.292   1.983  -0.868  1.00  0.00    -0.288 OA
ATOM      7  C   UNL     1       6.403  -0.067   0.304  1.00  0.00     0.076 A 
ATOM      8  C   UNL     1       7.835  -0.163   0.368  1.00  0.00     0.130 A 
ATOM      9  C   UNL     1       8.442  -1.292   0.965  1.00  0.00    -0.002 A 
ATOM     10  C   UNL     1       7.641  -2.292   1.521  1.00  0.00     0.008 A 
ATOM     11  C   UNL     1       6.255  -2.199   1.477  1.00  0.00     0.013 A 
ATOM     12  C   UNL     1       5.619  -1.098   0.872  1.00  0.00     0.038 A 
ATOM     13  C   UNL     1       4.126  -1.040   0.855  1.00  0.00     0.198 C 
ATOM     14  O   UNL     1       3.509  -1.958   1.368  1.00  0.00    -0.288 OA
ATOM     15  C   UNL     1       3.397   0.111   0.219  1.00  0.00     0.076 A 
ATOM     16  C   UNL     1       1.961   0.236   0.165  1.00  0.00     0.133 A 
ENDROOT
BRANCH   1  17
ATOM     17  C   UNL     1      -0.157   1.518  -0.555  1.00  0.00     0.155 C 
ATOM     18  C   UNL     1      -2.838   2.224  -0.523  1.00  0.00     0.178 C 
ATOM     19  C   UNL     1      -2.090   2.566   0.783  1.00  0.00     0.149 C 
ATOM     20  C   UNL     1      -1.905   2.594  -1.733  1.00  0.00     0.147 C 
ATOM     21  C   UNL     1      -0.767   1.750   0.857  1.00  0.00     0.071 C 
ATOM     22  O   UNL     1      -0.510   2.588  -1.412  1.00  0.00    -0.368 OA
ATOM     23  C   UNL     1      -2.230   3.988  -2.284  1.00  0.00     0.041 C 
BRANCH  18  24
ATOM     24  O   UNL     1      -3.113   0.830  -0.581  1.00  0.00    -0.344 OA
BRANCH  24  25
ATOM     25  C   UNL     1      -4.390   0.481  -0.060  1.00  0.00     0.251 C 
ATOM     26  C   UNL     1      -6.552  -0.797   1.101  1.00  0.00     0.150 C 
ATOM     27  C   UNL     1      -5.688  -1.713   0.245  1.00  0.00     0.040 C 
ATOM     28  C   UNL     1      -5.579   0.079   1.958  1.00  0.00     0.147 C 
ATOM     29  C   UNL     1      -4.792  -0.878  -0.687  1.00  0.00     0.065 C 
ATOM     30  O   UNL     1      -4.322   0.399   1.348  1.00  0.00    -0.347 OA
ATOM     31  C   UNL     1      -6.264   1.327   2.519  1.00  0.00     0.041 C 
BRANCH  26  32
ATOM     32  O   UNL     1      -7.407  -0.013   0.269  1.00  0.00    -0.347 OA
BRANCH  32  33
ATOM     33  C   UNL     1      -8.724  -0.556   0.173  1.00  0.00     0.251 C 
ATOM     34  C   UNL     1     -10.227  -1.556  -1.385  1.00  0.00     0.185 C 
ATOM     35  O   UNL     1      -8.962  -0.928  -1.174  1.00  0.00    -0.342 OA
ATOM     36  C   UNL     1     -11.363  -1.049  -0.499  1.00  0.00     0.161 C 
ATOM     37  C   UNL     1     -11.130  -0.057   0.605  1.00  0.00     0.084 C 
ATOM     38  O   UNL     1     -12.481  -1.522  -0.634  1.00  0.00    -0.297 OA
ATOM     39  C   UNL     1      -9.724   0.531   0.555  1.00  0.00     0.070 C 
ATOM     40  C   UNL     1     -10.072  -3.075  -1.245  1.00  0.00     0.047 C 
ENDBRANCH  32  33
ENDBRANCH  26  32
ENDBRANCH  24  25
ENDBRANCH  18  24
BRANCH  19  41
ATOM     41  O   UNL     1      -1.859   3.958   0.842  1.00  0.00    -0.390 OA
ATOM     42  H   UNL     1      -0.953   4.166   0.492  1.00  0.00     0.211 HD
ENDBRANCH  19  41
ENDBRANCH   1  17
BRANCH  16  43
ATOM     43  O   UNL     1       1.114  -0.678   0.697  1.00  0.00    -0.507 OA
ATOM     44  H   UNL     1       1.342  -1.481   1.171  1.00  0.00     0.293 HD
ENDBRANCH  16  43
BRANCH   8  45
ATOM     45  O   UNL     1       8.667   0.798  -0.094  1.00  0.00    -0.507 OA
ATOM     46  H   UNL     1       8.442   1.645  -0.487  1.00  0.00     0.293 HD
ENDBRANCH   8  45
BRANCH   9  47
ATOM     47  C   UNL     1       9.959  -1.426   1.053  1.00  0.00     0.075 C 
BRANCH  47  48
ATOM     48  C   UNL     1      10.680  -1.742  -0.300  1.00  0.00     0.077 C 
ATOM     49  C   UNL     1      10.189  -3.113  -0.836  1.00  0.00     0.043 C 
BRANCH  48  50
ATOM     50  O   UNL     1      10.446  -0.730  -1.254  1.00  0.00    -0.389 OA
ATOM     51  H   UNL     1       9.593  -0.919  -1.726  1.00  0.00     0.211 HD
ENDBRANCH  48  50
BRANCH  48  52
ATOM     52  C   UNL     1      12.220  -1.849  -0.112  1.00  0.00     0.157 C 
BRANCH  52  53
ATOM     53  C   UNL     1      12.895  -0.556   0.297  1.00  0.00     0.306 C 
ATOM     54  O   UNL     1      12.670  -0.060   1.388  1.00  0.00    -0.252 OA
BRANCH  53  55
ATOM     55  O   UNL     1      13.784   0.047  -0.523  1.00  0.00    -0.481 OA
ATOM     56  H   UNL     1      14.001  -0.307  -1.396  1.00  0.00     0.296 HD
ENDBRANCH  53  55
ENDBRANCH  52  53
ENDBRANCH  48  52
ENDBRANCH  47  48
ENDBRANCH   9  47
TORSDOF 14
