REMARK SMILES CC(=O)OC[C@@]1(O)[C@@H]2CC[C@H]3[C@]45CCCC(C)(C)[C@H]4[C@H](OC(C)=O)[C@@](O)(OC5)[C@]3([C@@H]2O)[C@@H]1O
REMARK SMILES IDX 6 1 8 2 9 3 10 4 11 5 29 6 30 7 32 8 25 9 27 10 28 11 12 12
REMARK SMILES IDX 13 13 14 14 15 15 16 16 17 17 18 18 19 19 20 20 5 21 4 22
REMARK SMILES IDX 2 23 3 24 1 25 7 26 33 28 31 30 26 32 21 34 22 35 24 36
REMARK SMILES IDX 23 37
REMARK H PARENT 7 27 33 29 31 31 26 33
ROOT
ATOM      1  C   UNL     1       2.888  -0.572   0.198  1.00  0.00     0.130 C 
ATOM      2  C   UNL     1       2.972   0.882  -0.418  1.00  0.00     0.057 C 
ATOM      3  C   UNL     1       2.528   2.019   0.572  1.00  0.00     0.010 C 
ATOM      4  C   UNL     1       1.053   2.408   0.451  1.00  0.00     0.006 C 
ATOM      5  C   UNL     1       0.168   1.160   0.285  1.00  0.00     0.015 C 
ATOM      6  C   UNL     1       0.732   0.156  -0.842  1.00  0.00     0.087 C 
ATOM      7  C   UNL     1       1.973   0.824  -1.587  1.00  0.00     0.135 C 
ATOM      8  C   UNL     1       1.442  -1.068  -0.189  1.00  0.00     0.164 C 
ATOM      9  C   UNL     1      -0.475  -0.167  -1.817  1.00  0.00     0.215 C 
ATOM     10  O   UNL     1      -0.840   1.072  -2.424  1.00  0.00    -0.346 OA
ATOM     11  C   UNL     1      -1.411   1.993  -1.496  1.00  0.00     0.171 C 
ATOM     12  C   UNL     1      -1.351   1.485  -0.013  1.00  0.00     0.005 C 
ATOM     13  C   UNL     1      -1.964   2.511   0.953  1.00  0.00     0.010 C 
ATOM     14  C   UNL     1      -3.475   2.751   0.687  1.00  0.00     0.001 C 
ATOM     15  C   UNL     1      -4.244   1.529   0.113  1.00  0.00     0.007 C 
ATOM     16  C   UNL     1      -3.662   0.178   0.565  1.00  0.00    -0.028 C 
ATOM     17  C   UNL     1      -3.837   0.044   2.105  1.00  0.00     0.011 C 
ATOM     18  C   UNL     1      -4.513  -0.963  -0.044  1.00  0.00     0.011 C 
ATOM     19  C   UNL     1      -2.116   0.105   0.135  1.00  0.00     0.050 C 
ATOM     20  C   UNL     1      -1.742  -0.755  -1.110  1.00  0.00     0.241 C 
ENDROOT
BRANCH   1  21
ATOM     21  C   UNL     1       3.953  -1.536  -0.433  1.00  0.00     0.271 C 
BRANCH  21  22
ATOM     22  O   UNL     1       5.226  -0.990  -0.430  1.00  0.00    -0.463 OA
BRANCH  22  23
ATOM     23  C   UNL     1       6.125  -1.014   0.581  1.00  0.00     0.302 C 
ATOM     24  O   UNL     1       5.923  -1.665   1.596  1.00  0.00    -0.253 OA
ATOM     25  C   UNL     1       7.389  -0.226   0.430  1.00  0.00     0.139 C 
ENDBRANCH  22  23
ENDBRANCH  21  22
ENDBRANCH   1  21
BRANCH   1  26
ATOM     26  O   UNL     1       3.074  -0.554   1.595  1.00  0.00    -0.383 OA
ATOM     27  H   UNL     1       3.940  -0.112   1.785  1.00  0.00     0.211 HD
ENDBRANCH   1  26
BRANCH   8  28
ATOM     28  O   UNL     1       0.720  -1.751   0.811  1.00  0.00    -0.389 OA
ATOM     29  H   UNL     1       0.869  -1.317   1.687  1.00  0.00     0.211 HD
ENDBRANCH   8  28
BRANCH   7  30
ATOM     30  O   UNL     1       2.559   0.112  -2.658  1.00  0.00    -0.392 OA
ATOM     31  H   UNL     1       2.140  -0.766  -2.790  1.00  0.00     0.210 HD
ENDBRANCH   7  30
BRANCH   9  32
ATOM     32  O   UNL     1      -0.094  -1.065  -2.829  1.00  0.00    -0.362 OA
ATOM     33  H   UNL     1      -0.771  -1.011  -3.553  1.00  0.00     0.214 HD
ENDBRANCH   9  32
BRANCH  20  34
ATOM     34  O   UNL     1      -1.543  -2.074  -0.728  1.00  0.00    -0.456 OA
BRANCH  34  35
ATOM     35  C   UNL     1      -2.190  -3.158  -1.229  1.00  0.00     0.303 C 
ATOM     36  O   UNL     1      -2.963  -3.055  -2.171  1.00  0.00    -0.253 OA
ATOM     37  C   UNL     1      -1.959  -4.498  -0.611  1.00  0.00     0.139 C 
ENDBRANCH  34  35
ENDBRANCH  20  34
TORSDOF 9
