REMARK SMILES CC=C(NC(=O)[C@@H](N)[C@@H](C)CC)C(=O)N[C@H]1CSC[C@@H](C(=O)N[C@H](C(=O)N2CCC[C@H]2C(=O)O)[C@@H](C)O)NC(=O)[C@H](CC(C)C)NC(=O)[C@H](CO)NC(=O)[C@H]([C@@H](C)CC)NC1=O
REMARK SMILES IDX 18 1 17 2 16 3 15 4 13 5 14 6 3 8 2 9 1 10 4 11 5 12 6 13
REMARK SMILES IDX 7 15 8 16 9 19 10 20 11 21 12 22 61 23 60 24 62 25 55 27
REMARK SMILES IDX 53 28 52 29 54 30 49 32 50 34 51 35 56 37 57 38 58 39 59 40
REMARK SMILES IDX 19 41 20 42 21 43 22 44 23 45 24 47 25 48 26 49 27 50 28 51
REMARK SMILES IDX 31 52 29 53 30 54 32 55 33 56 34 57 35 59 36 60 37 61 38 63
REMARK SMILES IDX 39 64 40 65 41 67 42 68 43 69 44 70 45 71 46 72 47 73 48 74
REMARK H PARENT 15 7 4 14 8 17 8 18 60 26 52 31 51 36 23 46 34 58 37 62 38 66
REMARK H PARENT 46 75
REMARK Flexibility Score:  235.900
ROOT
ATOM      1  S   UNL     1      -0.351  -1.432   2.990  1.00  0.00    -0.157 SA
ENDROOT
BRANCH   1   2
ATOM      2  C   UNL     1       0.104   0.306   3.272  1.00  0.00     0.104 C 
BRANCH   2   3
ATOM      3  C   UNL     1       1.344   0.675   2.434  1.00  0.00     0.181 C 
BRANCH   3   4
ATOM      4  N   UNL     1       2.472  -0.197   2.749  1.00  0.00    -0.338 N 
ATOM      5  C   UNL     1       3.112  -0.933   1.792  1.00  0.00     0.268 C 
ATOM      6  O   UNL     1       2.765  -0.809   0.625  1.00  0.00    -0.268 OA
ATOM      7  H   UNL     1       2.778  -0.214   3.724  1.00  0.00     0.164 HD
BRANCH   5   8
ATOM      8  C   UNL     1       4.225  -1.924   2.056  1.00  0.00     0.102 C 
ATOM      9  C   UNL     1       4.485  -2.554   3.231  1.00  0.00     0.001 C 
ATOM     10  C   UNL     1       3.792  -2.393   4.549  1.00  0.00     0.038 C 
BRANCH   8  11
ATOM     11  N   UNL     1       5.057  -2.306   0.952  1.00  0.00    -0.320 N 
ATOM     12  C   UNL     1       5.587  -1.403   0.073  1.00  0.00     0.241 C 
ATOM     13  O   UNL     1       5.331  -0.212   0.202  1.00  0.00    -0.273 OA
ATOM     14  H   UNL     1       5.312  -3.297   0.871  1.00  0.00     0.170 HD
BRANCH  12  15
ATOM     15  C   UNL     1       6.516  -1.831  -1.067  1.00  0.00     0.144 C 
BRANCH  15  16
ATOM     16  N   UNL     1       6.779  -0.678  -1.941  1.00  0.00    -0.320 NA
ATOM     17  H   UNL     1       7.281   0.074  -1.412  1.00  0.00     0.119 HD
ATOM     18  H   UNL     1       5.882  -0.294  -2.319  1.00  0.00     0.119 HD
ENDBRANCH  15  16
BRANCH  15  19
ATOM     19  C   UNL     1       7.895  -2.432  -0.610  1.00  0.00     0.012 C 
ATOM     20  C   UNL     1       7.790  -3.734   0.206  1.00  0.00     0.010 C 
BRANCH  19  21
ATOM     21  C   UNL     1       8.857  -2.655  -1.813  1.00  0.00     0.002 C 
ATOM     22  C   UNL     1       8.344  -3.622  -2.884  1.00  0.00     0.004 C 
ENDBRANCH  19  21
ENDBRANCH  15  19
ENDBRANCH  12  15
ENDBRANCH   8  11
ENDBRANCH   5   8
ENDBRANCH   3   4
BRANCH   3  23
ATOM     23  C   UNL     1       1.733   2.127   2.586  1.00  0.00     0.244 C 
ATOM     24  N   UNL     1       2.605   2.673   1.687  1.00  0.00    -0.342 N 
ATOM     25  O   UNL     1       1.162   2.830   3.410  1.00  0.00    -0.273 OA
ATOM     26  H   UNL     1       3.033   2.061   0.974  1.00  0.00     0.164 HD
BRANCH  24  27
ATOM     27  C   UNL     1       2.744   4.114   1.518  1.00  0.00     0.174 C 
BRANCH  27  28
ATOM     28  C   UNL     1       1.980   4.443   0.230  1.00  0.00     0.243 C 
ATOM     29  N   UNL     1       0.729   3.921   0.041  1.00  0.00    -0.340 N 
ATOM     30  O   UNL     1       2.514   5.096  -0.653  1.00  0.00    -0.273 OA
ATOM     31  H   UNL     1       0.323   3.361   0.800  1.00  0.00     0.164 HD
BRANCH  29  32
ATOM     32  C   UNL     1      -0.064   4.074  -1.182  1.00  0.00     0.197 CG0
ATOM     33  G   UNL     1      -1.377   3.295  -1.029  1.00  0.00     0.000 G0
BRANCH  32  34
ATOM     34  C   UNL     1       0.718   3.546  -2.415  1.00  0.00     0.191 C 
BRANCH  34  35
ATOM     35  O   UNL     1      -0.034   3.743  -3.586  1.00  0.00    -0.394 OA
ATOM     36  H   UNL     1      -0.163   2.855  -4.009  1.00  0.00     0.210 HD
ENDBRANCH  34  35
ENDBRANCH  32  34
ENDBRANCH  29  32
ENDBRANCH  27  28
BRANCH  27  37
ATOM     37  C   UNL     1       4.250   4.542   1.474  1.00  0.00     0.018 C 
ATOM     38  C   UNL     1       4.424   6.078   1.406  1.00  0.00     0.010 C 
BRANCH  37  39
ATOM     39  C   UNL     1       5.100   3.964   2.637  1.00  0.00     0.002 C 
ATOM     40  C   UNL     1       4.740   4.478   4.031  1.00  0.00     0.004 C 
ENDBRANCH  37  39
ENDBRANCH  27  37
ENDBRANCH  24  27
ENDBRANCH   3  23
ENDBRANCH   2   3
ENDBRANCH   1   2
BRANCH   1  41
ATOM     41  C   UNL     1      -1.938  -1.270   2.072  1.00  0.00     0.104 C 
BRANCH  41  42
ATOM     42  C   UNL     1      -1.777  -0.770   0.605  1.00  0.00     0.181 C 
BRANCH  42  43
ATOM     43  C   UNL     1      -2.635  -1.443  -0.484  1.00  0.00     0.244 C 
ATOM     44  O   UNL     1      -2.601  -0.943  -1.601  1.00  0.00    -0.273 OA
ATOM     45  N   UNL     1      -3.377  -2.578  -0.281  1.00  0.00    -0.340 N 
ATOM     46  H   UNL     1      -3.351  -3.059   0.621  1.00  0.00     0.164 HD
BRANCH  45  47
ATOM     47  C   UNL     1      -4.218  -3.193  -1.309  1.00  0.00     0.200 C 
BRANCH  47  48
ATOM     48  C   UNL     1      -5.632  -3.398  -0.750  1.00  0.00     0.248 C 
ATOM     49  O   UNL     1      -5.784  -3.325   0.463  1.00  0.00    -0.272 OA
BRANCH  48  50
ATOM     50  N   UNL     1      -6.738  -3.622  -1.534  1.00  0.00    -0.327 N 
ATOM     51  C   UNL     1      -6.796  -3.500  -2.978  1.00  0.00     0.120 C 
ATOM     52  C   UNL     1      -8.084  -3.697  -0.975  1.00  0.00     0.195 C 
ATOM     53  C   UNL     1      -8.176  -2.890  -3.195  1.00  0.00     0.024 C 
ATOM     54  C   UNL     1      -8.999  -3.693  -2.203  1.00  0.00     0.039 C 
BRANCH  52  55
ATOM     55  C   UNL     1      -8.345  -4.920  -0.113  1.00  0.00     0.326 C 
ATOM     56  O   UNL     1      -9.427  -5.032   0.440  1.00  0.00    -0.250 OA
BRANCH  55  57
ATOM     57  O   UNL     1      -7.433  -5.905   0.042  1.00  0.00    -0.480 OA
ATOM     58  H   UNL     1      -6.586  -5.915  -0.422  1.00  0.00     0.296 HD
ENDBRANCH  55  57
ENDBRANCH  52  55
ENDBRANCH  48  50
ENDBRANCH  47  48
BRANCH  47  59
ATOM     59  C   UNL     1      -3.558  -4.516  -1.799  1.00  0.00     0.143 C 
ATOM     60  C   UNL     1      -3.300  -5.549  -0.683  1.00  0.00     0.041 C 
BRANCH  59  61
ATOM     61  O   UNL     1      -4.288  -5.091  -2.854  1.00  0.00    -0.391 OA
ATOM     62  H   UNL     1      -5.003  -5.658  -2.463  1.00  0.00     0.211 HD
ENDBRANCH  59  61
ENDBRANCH  47  59
ENDBRANCH  45  47
ENDBRANCH  42  43
BRANCH  42  63
ATOM     63  N   UNL     1      -1.965   0.681   0.521  1.00  0.00    -0.342 N 
ATOM     64  C   UNL     1      -3.201   1.286   0.575  1.00  0.00     0.243 C 
ATOM     65  O   UNL     1      -4.186   0.605   0.829  1.00  0.00    -0.273 OA
ATOM     66  H   UNL     1      -1.126   1.235   0.320  1.00  0.00     0.164 HD
BRANCH  64  67
ATOM     67  C   UNL     1      -3.441   2.785   0.291  1.00  0.00     0.171 C 
BRANCH  67  68
ATOM     68  C   UNL     1      -4.467   2.941  -0.882  1.00  0.00     0.038 C 
BRANCH  68  69
ATOM     69  C   UNL     1      -5.085   4.349  -1.109  1.00  0.00    -0.015 C 
ATOM     70  C   UNL     1      -6.089   4.274  -2.275  1.00  0.00     0.007 C 
ATOM     71  C   UNL     1      -4.061   5.450  -1.415  1.00  0.00     0.007 C 
ENDBRANCH  68  69
ENDBRANCH  67  68
BRANCH  67  72
ATOM     72  N   UNL     1      -2.204   3.528   0.033  1.00  0.00    -0.342 N 
ATOM     73  C   UNL     1      -1.377   3.295  -1.029  1.00  0.00     0.245 CG0
ATOM     74  O   UNL     1      -1.657   2.421  -1.839  1.00  0.00    -0.273 OA
ATOM     75  H   UNL     1      -1.945   4.262   0.708  1.00  0.00     0.164 HD
ATOM     76  G   UNL     1      -0.064   4.074  -1.182  1.00  0.00     0.000 G0
ENDBRANCH  67  72
ENDBRANCH  64  67
ENDBRANCH  42  63
ENDBRANCH  41  42
ENDBRANCH   1  41
TORSDOF 21
