REMARK SMILES CCC(=O)CO[C@H](C/C=C(\C)C(=O)OC)[C@@H](C)[C@H](OC(C)=O)[C@@H](C[C@H](C)[C@H](OC(=O)CC(C)C)[C@@H]1C[C@@H](C)C[C@]2(C[C@@H](C)C[C@@H]([C@@H](O)C(C)=O)O2)O1)OC(=O)CC(C)C
REMARK SMILES IDX 23 1 18 2 16 3 17 4 7 5 6 6 5 7 3 8 4 9 2 10 1 11 8 12 9 13
REMARK SMILES IDX 10 14 11 15 12 16 13 17 14 18 15 19 19 20 20 21 22 22 21 23
REMARK SMILES IDX 24 24 25 25 26 26 27 27 28 28 29 29 30 30 31 31 32 32 33 33
REMARK SMILES IDX 34 34 35 35 36 36 52 37 37 38 40 39 39 40 41 41 51 42 42 43
REMARK SMILES IDX 45 44 44 45 38 46 43 47 46 48 47 49 48 51 50 52 49 53 53 54
REMARK SMILES IDX 54 55 55 56 56 57 57 58 58 59 59 60
REMARK H PARENT 47 50
ROOT
ATOM      1  C   UNL     1       5.542   2.483   0.000  1.00  0.00     0.218 C 
ENDROOT
BRANCH   1   2
ATOM      2  C   UNL     1       6.691   1.519   0.000  1.00  0.00     0.222 C 
BRANCH   2   3
ATOM      3  C   UNL     1       7.655   2.668   0.000  1.00  0.00     0.060 C 
ATOM      4  C   UNL     1       6.506   3.632   0.000  1.00  0.00     0.014 C 
BRANCH   3   5
ATOM      5  C   UNL     1       8.619   3.817   0.000  1.00  0.00     0.129 C 
BRANCH   5   6
ATOM      6  O   UNL     1       8.797   5.051  -0.826  1.00  0.00    -0.370 OA
BRANCH   6   7
ATOM      7  C   UNL     1       9.573   6.100  -0.094  1.00  0.00     0.235 C 
BRANCH   7   8
ATOM      8  C   UNL     1       9.799   7.537  -0.730  1.00  0.00     0.158 C 
ATOM      9  O   UNL     1      10.213   7.577  -1.878  1.00  0.00    -0.297 OA
BRANCH   8  10
ATOM     10  C   UNL     1       9.521   8.934   0.000  1.00  0.00     0.075 C 
ATOM     11  C   UNL     1      10.486  10.083   0.000  1.00  0.00     0.012 C 
ENDBRANCH   8  10
ENDBRANCH   7   8
ENDBRANCH   6   7
ENDBRANCH   5   6
BRANCH   5  12
ATOM     12  C   UNL     1       9.768   2.853   0.000  1.00  0.00     0.060 C 
BRANCH  12  13
ATOM     13  C   UNL     1      10.917   1.889   0.000  1.00  0.00    -0.014 C 
ATOM     14  C   UNL     1      12.327   2.402   0.000  1.00  0.00     0.030 C 
ATOM     15  C   UNL     1      12.587   3.879   0.000  1.00  0.00     0.052 C 
BRANCH  14  16
ATOM     16  C   UNL     1      13.560   1.479  -0.006  1.00  0.00     0.333 C 
ATOM     17  O   UNL     1      13.362   0.273  -0.016  1.00  0.00    -0.247 OA
BRANCH  16  18
ATOM     18  O   UNL     1      14.885   1.950   0.000  1.00  0.00    -0.466 OA
ATOM     19  C   UNL     1      16.034   0.986   0.000  1.00  0.00     0.282 C 
ENDBRANCH  16  18
ENDBRANCH  14  16
ENDBRANCH  12  13
ENDBRANCH   5  12
ENDBRANCH   3   5
ENDBRANCH   2   3
BRANCH   2  20
ATOM     20  O   UNL     1       7.175   0.281  -0.715  1.00  0.00    -0.458 OA
BRANCH  20  21
ATOM     21  C   UNL     1       7.579  -0.923   0.000  1.00  0.00     0.303 C 
ATOM     22  O   UNL     1       7.525  -0.678   1.226  1.00  0.00    -0.253 OA
ATOM     23  C   UNL     1       8.728  -1.887   0.000  1.00  0.00     0.139 C 
ENDBRANCH  20  21
ENDBRANCH   2  20
ENDBRANCH   1   2
BRANCH   1  24
ATOM     24  C   UNL     1       4.693   1.119   0.730  1.00  0.00     0.056 C 
BRANCH  24  25
ATOM     25  C   UNL     1       3.613   0.185  -0.000  1.00  0.00     0.033 C 
ATOM     26  C   UNL     1       2.464   1.149  -0.000  1.00  0.00     0.012 C 
BRANCH  25  27
ATOM     27  C   UNL     1       2.841  -0.894   0.731  1.00  0.00     0.208 C 
BRANCH  27  28
ATOM     28  O   UNL     1       3.478  -2.131   0.174  1.00  0.00    -0.459 OA
BRANCH  28  29
ATOM     29  C   UNL     1       4.761  -2.393  -0.551  1.00  0.00     0.306 C 
ATOM     30  O   UNL     1       4.653  -2.657  -1.738  1.00  0.00    -0.252 OA
BRANCH  29  31
ATOM     31  C   UNL     1       6.357  -2.380   0.000  1.00  0.00     0.125 C 
BRANCH  31  32
ATOM     32  C   UNL     1       7.506  -3.344   0.000  1.00  0.00    -0.006 C 
ATOM     33  C   UNL     1       6.640  -4.560   0.663  1.00  0.00     0.008 C 
ATOM     34  C   UNL     1       8.655  -4.308   0.000  1.00  0.00     0.008 C 
ENDBRANCH  31  32
ENDBRANCH  29  31
ENDBRANCH  28  29
ENDBRANCH  27  28
BRANCH  27  35
ATOM     35  C   UNL     1       1.099  -0.255   0.998  1.00  0.00     0.163 C 
ATOM     36  C   UNL     1       0.072  -1.352   1.326  1.00  0.00     0.039 C 
ATOM     37  O   UNL     1       0.750   1.299   0.000  1.00  0.00    -0.343 OA
ATOM     38  C   UNL     1      -0.750  -1.299   0.000  1.00  0.00    -0.006 C 
ATOM     39  C   UNL     1      -0.750   1.299   0.000  1.00  0.00     0.169 C 
ATOM     40  C   UNL     1      -0.700   0.020  -0.824  1.00  0.00     0.069 C 
ATOM     41  C   UNL     1      -0.633   2.524  -0.937  1.00  0.00     0.069 C 
ATOM     42  O   UNL     1      -2.250   1.299   0.000  1.00  0.00    -0.343 OA
ATOM     43  C   UNL     1      -0.750   3.897   0.000  1.00  0.00    -0.006 C 
ATOM     44  C   UNL     1      -2.865   2.749   0.156  1.00  0.00     0.158 C 
ATOM     45  C   UNL     1      -2.121   4.145  -0.247  1.00  0.00     0.039 C 
ATOM     46  C   UNL     1      -2.159  -1.812   0.000  1.00  0.00     0.008 C 
ATOM     47  C   UNL     1       0.659   4.410   0.000  1.00  0.00     0.008 C 
BRANCH  44  48
ATOM     48  C   UNL     1      -4.091   2.990  -0.737  1.00  0.00     0.209 C 
BRANCH  48  49
ATOM     49  O   UNL     1      -3.965   2.364  -1.987  1.00  0.00    -0.383 OA
ATOM     50  H   UNL     1      -3.621   3.049  -2.618  1.00  0.00     0.211 HD
ENDBRANCH  48  49
BRANCH  48  51
ATOM     51  C   UNL     1      -5.113   2.413   0.000  1.00  0.00     0.160 C 
ATOM     52  O   UNL     1      -4.903   1.303   0.488  1.00  0.00    -0.297 OA
ATOM     53  C   UNL     1      -6.590   2.674   0.000  1.00  0.00     0.091 C 
ENDBRANCH  48  51
ENDBRANCH  44  48
ENDBRANCH  27  35
ENDBRANCH  25  27
ENDBRANCH  24  25
ENDBRANCH   1  24
BRANCH   1  54
ATOM     54  O   UNL     1       4.393   3.447   0.000  1.00  0.00    -0.458 OA
BRANCH  54  55
ATOM     55  C   UNL     1       3.791   4.349  -1.019  1.00  0.00     0.306 C 
ATOM     56  O   UNL     1       3.628   3.853  -2.123  1.00  0.00    -0.252 OA
BRANCH  55  57
ATOM     57  C   UNL     1       3.454   6.029  -0.973  1.00  0.00     0.125 C 
BRANCH  57  58
ATOM     58  C   UNL     1       2.355   6.853   0.000  1.00  0.00    -0.006 C 
ATOM     59  C   UNL     1       1.391   5.704   0.000  1.00  0.00     0.008 C 
ATOM     60  C   UNL     1       1.206   7.817   0.000  1.00  0.00     0.008 C 
ENDBRANCH  57  58
ENDBRANCH  55  57
ENDBRANCH  54  55
ENDBRANCH   1  54
TORSDOF 28
