REMARK SMILES CC(=O)O[C@]12CC[C@H]3[C@]4(C)C=CC(=O)C(C)(C)[C@H]4C[C@H](O)[C@]3(C)C1=CC[C@@H]2c1ccoc1
REMARK SMILES IDX 5 1 6 2 7 3 8 4 9 5 10 6 11 7 12 8 13 9 14 10 15 11 16 12
REMARK SMILES IDX 17 13 18 14 19 15 20 16 22 17 23 18 24 19 25 20 26 21 27 22
REMARK SMILES IDX 4 23 2 24 3 25 1 26 28 27 32 28 29 29 31 30 30 31 21 32
REMARK H PARENT 21 33
ROOT
ATOM      1  C   UNL     1      -2.320   0.261   0.226  1.00  0.00     0.141 C 
ATOM      2  C   UNL     1      -2.182   1.142  -1.047  1.00  0.00     0.054 C 
ATOM      3  C   UNL     1      -0.768   1.013  -1.695  1.00  0.00     0.010 C 
ATOM      4  C   UNL     1       0.351   0.542  -0.693  1.00  0.00     0.012 C 
ATOM      5  C   UNL     1       1.839   0.497  -1.248  1.00  0.00    -0.007 C 
ATOM      6  C   UNL     1       2.325   1.874  -1.769  1.00  0.00     0.016 C 
ATOM      7  C   UNL     1       1.918  -0.435  -2.455  1.00  0.00    -0.016 C 
ATOM      8  C   UNL     1       3.070  -1.025  -2.813  1.00  0.00     0.044 C 
ATOM      9  C   UNL     1       4.302  -0.903  -1.996  1.00  0.00     0.161 C 
ATOM     10  O   UNL     1       5.358  -1.287  -2.478  1.00  0.00    -0.294 OA
ATOM     11  C   UNL     1       4.269  -0.377  -0.561  1.00  0.00     0.031 C 
ATOM     12  C   UNL     1       4.882  -1.477   0.349  1.00  0.00     0.020 C 
ATOM     13  C   UNL     1       5.180   0.872  -0.427  1.00  0.00     0.020 C 
ATOM     14  C   UNL     1       2.764  -0.135  -0.130  1.00  0.00     0.015 C 
ATOM     15  C   UNL     1       2.611   0.585   1.238  1.00  0.00     0.038 C 
ATOM     16  C   UNL     1       1.159   0.526   1.757  1.00  0.00     0.125 C 
ATOM     17  C   UNL     1       0.146   1.161   0.748  1.00  0.00     0.022 C 
ATOM     18  C   UNL     1       0.294   2.709   0.779  1.00  0.00     0.019 C 
ATOM     19  C   UNL     1      -1.298   0.850   1.175  1.00  0.00    -0.021 C 
ATOM     20  C   UNL     1      -1.808   1.099   2.379  1.00  0.00    -0.022 C 
ATOM     21  C   UNL     1      -3.213   0.642   2.486  1.00  0.00     0.040 C 
ATOM     22  C   UNL     1      -3.644   0.467   1.024  1.00  0.00     0.075 C 
ENDROOT
BRANCH   1  23
ATOM     23  O   UNL     1      -2.040  -1.078  -0.038  1.00  0.00    -0.454 OA
BRANCH  23  24
ATOM     24  C   UNL     1      -2.628  -1.845  -1.004  1.00  0.00     0.303 C 
ATOM     25  O   UNL     1      -3.516  -1.399  -1.716  1.00  0.00    -0.253 OA
ATOM     26  C   UNL     1      -2.175  -3.253  -1.199  1.00  0.00     0.139 C 
ENDBRANCH  23  24
ENDBRANCH   1  23
BRANCH  22  27
ATOM     27  C   UNL     1      -4.715  -0.588   0.894  1.00  0.00    -0.002 A 
ATOM     28  C   UNL     1      -4.622  -1.909   1.299  1.00  0.00     0.198 A 
ATOM     29  C   UNL     1      -5.980  -0.435   0.374  1.00  0.00     0.046 A 
ATOM     30  O   UNL     1      -5.750  -2.526   1.036  1.00  0.00    -0.472 OA
ATOM     31  C   UNL     1      -6.582  -1.673   0.482  1.00  0.00     0.195 A 
ENDBRANCH  22  27
BRANCH  16  32
ATOM     32  O   UNL     1       0.823  -0.793   2.135  1.00  0.00    -0.392 OA
ATOM     33  H   UNL     1       0.599  -1.333   1.340  1.00  0.00     0.210 HD
ENDBRANCH  16  32
TORSDOF 4
