REMARK SMILES COc1c(O)cc2c(c1O)CN(C(=O)[C@@H](N)Cc1c[nH]c3ccccc13)[C@H](C(=O)N[C@@H](CC(CO)CO)C(=O)O)C2
REMARK SMILES IDX 28 1 29 2 30 3 27 5 3 6 4 7 9 8 6 9 8 10 7 11 11 12 41 13
REMARK SMILES IDX 12 14 2 15 1 16 5 17 10 19 13 21 14 22 15 23 16 24 17 27
REMARK SMILES IDX 18 28 19 29 26 30 20 31 25 32 21 33 24 34 22 35 23 36 31 38
REMARK SMILES IDX 32 39 33 40 34 41 35 42 36 44 37 45 38 47 39 48 40 49
REMARK H PARENT 30 4 5 18 10 20 16 25 16 26 20 37 35 43 37 46 40 50
ROOT
ATOM      1  C   UNL     1       1.746  -0.818   0.064  1.00  0.00     0.243 C 
ATOM      2  O   UNL     1       1.238  -1.889  -0.238  1.00  0.00    -0.273 OA
ATOM      3  N   UNL     1       3.070  -0.782   0.390  1.00  0.00    -0.341 N 
ATOM      4  H   UNL     1       3.521   0.124   0.574  1.00  0.00     0.164 HD
ENDROOT
BRANCH   1   5
ATOM      5  C   UNL     1       0.924   0.473  -0.076  1.00  0.00     0.179 C 
ATOM      6  C   UNL     1      -0.901   5.194  -0.361  1.00  0.00     0.203 A 
ATOM      7  C   UNL     1       0.192   5.278   0.519  1.00  0.00     0.161 A 
ATOM      8  C   UNL     1      -1.350   3.944  -0.812  1.00  0.00     0.166 A 
ATOM      9  C   UNL     1       0.842   4.115   0.937  1.00  0.00     0.054 A 
ATOM     10  C   UNL     1      -0.703   2.761  -0.378  1.00  0.00     0.021 A 
ATOM     11  C   UNL     1       0.422   2.855   0.487  1.00  0.00    -0.033 A 
ATOM     12  C   UNL     1      -1.218   1.405  -0.826  1.00  0.00     0.160 C 
ATOM     13  C   UNL     1       1.222   1.629   0.894  1.00  0.00     0.071 C 
ATOM     14  N   UNL     1      -0.536   0.319  -0.124  1.00  0.00    -0.324 N 
BRANCH   6  15
ATOM     15  O   UNL     1      -1.526   6.316  -0.781  1.00  0.00    -0.490 OA
ATOM     16  C   UNL     1      -2.598   6.850  -0.100  1.00  0.00     0.278 C 
ENDBRANCH   6  15
BRANCH   7  17
ATOM     17  O   UNL     1       0.646   6.471   0.960  1.00  0.00    -0.504 OA
ATOM     18  H   UNL     1       0.251   7.313   0.692  1.00  0.00     0.293 HD
ENDBRANCH   7  17
BRANCH   8  19
ATOM     19  O   UNL     1      -2.405   3.912  -1.659  1.00  0.00    -0.504 OA
ATOM     20  H   UNL     1      -2.770   3.104  -2.043  1.00  0.00     0.293 HD
ENDBRANCH   8  19
BRANCH  14  21
ATOM     21  C   UNL     1      -1.222  -0.673   0.558  1.00  0.00     0.240 C 
ATOM     22  O   UNL     1      -0.610  -1.421   1.308  1.00  0.00    -0.273 OA
BRANCH  21  23
ATOM     23  C   UNL     1      -2.734  -0.925   0.418  1.00  0.00     0.145 C 
BRANCH  23  24
ATOM     24  N   UNL     1      -3.154  -0.896  -0.984  1.00  0.00    -0.320 NA
ATOM     25  H   UNL     1      -2.370  -1.050  -1.660  1.00  0.00     0.119 HD
ATOM     26  H   UNL     1      -3.734  -0.056  -1.213  1.00  0.00     0.119 HD
ENDBRANCH  23  24
BRANCH  23  27
ATOM     27  C   UNL     1      -3.099  -2.317   1.011  1.00  0.00     0.066 C 
BRANCH  27  28
ATOM     28  C   UNL     1      -4.555  -2.676   0.883  1.00  0.00    -0.021 A 
ATOM     29  C   UNL     1      -5.449  -2.770   1.942  1.00  0.00     0.087 A 
ATOM     30  C   UNL     1      -5.284  -2.993  -0.260  1.00  0.00     0.003 A 
ATOM     31  N   UNL     1      -6.679  -3.101   1.486  1.00  0.00    -0.361 N 
ATOM     32  C   UNL     1      -4.923  -3.113  -1.606  1.00  0.00     0.010 A 
ATOM     33  C   UNL     1      -6.571  -3.226   0.154  1.00  0.00     0.046 A 
ATOM     34  C   UNL     1      -5.925  -3.438  -2.536  1.00  0.00     0.001 A 
ATOM     35  C   UNL     1      -7.584  -3.558  -0.746  1.00  0.00     0.026 A 
ATOM     36  C   UNL     1      -7.251  -3.654  -2.107  1.00  0.00     0.002 A 
ATOM     37  H   UNL     1      -7.541  -3.228   2.063  1.00  0.00     0.166 HD
ENDBRANCH  27  28
ENDBRANCH  23  27
ENDBRANCH  21  23
ENDBRANCH  14  21
ENDBRANCH   1   5
BRANCH   3  38
ATOM     38  C   UNL     1       3.894  -1.982   0.504  1.00  0.00     0.192 C 
BRANCH  38  39
ATOM     39  C   UNL     1       4.982  -1.999  -0.600  1.00  0.00     0.045 C 
BRANCH  39  40
ATOM     40  C   UNL     1       5.920  -0.762  -0.713  1.00  0.00     0.043 C 
BRANCH  40  41
ATOM     41  C   UNL     1       6.752  -0.877  -2.009  1.00  0.00     0.162 C 
BRANCH  41  42
ATOM     42  O   UNL     1       7.572   0.247  -2.189  1.00  0.00    -0.396 OA
ATOM     43  H   UNL     1       6.973   0.995  -2.449  1.00  0.00     0.210 HD
ENDBRANCH  41  42
ENDBRANCH  40  41
BRANCH  40  44
ATOM     44  C   UNL     1       6.853  -0.569   0.502  1.00  0.00     0.162 C 
BRANCH  44  45
ATOM     45  O   UNL     1       7.752  -1.637   0.639  1.00  0.00    -0.396 OA
ATOM     46  H   UNL     1       7.290  -2.341   1.159  1.00  0.00     0.210 HD
ENDBRANCH  44  45
ENDBRANCH  40  44
ENDBRANCH  39  40
ENDBRANCH  38  39
BRANCH  38  47
ATOM     47  C   UNL     1       4.436  -2.123   1.913  1.00  0.00     0.326 C 
ATOM     48  O   UNL     1       4.205  -1.270   2.756  1.00  0.00    -0.250 OA
BRANCH  47  49
ATOM     49  O   UNL     1       5.142  -3.218   2.270  1.00  0.00    -0.480 OA
ATOM     50  H   UNL     1       5.319  -3.936   1.646  1.00  0.00     0.296 HD
ENDBRANCH  47  49
ENDBRANCH  38  47
ENDBRANCH   3  38
TORSDOF 18
