REMARK SMILES CCCCCCCCC=CCCCCCCCCCCCCCCCC=C(C=O)CCCCCCCCCCCCCCC=CCCCCCCCC
REMARK SMILES IDX 26 1 27 2 25 3 24 4 23 5 22 6 21 7 20 8 19 9 18 10 17 11
REMARK SMILES IDX 16 12 15 13 14 14 13 15 12 16 11 17 10 18 9 19 8 20 7 21
REMARK SMILES IDX 6 22 5 23 4 24 3 25 2 26 1 27 28 28 29 29 30 30 31 31 32 32
REMARK SMILES IDX 33 33 34 34 35 35 36 36 37 37 38 38 39 39 40 40 41 41 42 42
REMARK SMILES IDX 43 43 44 44 45 45 46 46 47 47 48 48 49 49 50 50 51 51 52 52
REMARK SMILES IDX 53 53
REMARK H PARENT
ROOT
ATOM      1  C   UNL     1      -0.398  -2.068   1.452  1.00  0.00    -0.020 C 
ATOM      2  C   UNL     1       0.656  -2.914   1.481  1.00  0.00    -0.012 C 
ENDROOT
BRANCH   1   3
ATOM      3  C   UNL     1      -0.584  -0.850   0.567  1.00  0.00     0.028 C 
BRANCH   3   4
ATOM      4  C   UNL     1      -0.852   0.421   1.394  1.00  0.00     0.004 C 
BRANCH   4   5
ATOM      5  C   UNL     1      -2.101   0.339   2.304  1.00  0.00     0.000 C 
BRANCH   5   6
ATOM      6  C   UNL     1      -3.398  -0.042   1.565  1.00  0.00     0.000 C 
BRANCH   6   7
ATOM      7  C   UNL     1      -3.815   1.008   0.529  1.00  0.00     0.000 C 
BRANCH   7   8
ATOM      8  C   UNL     1      -5.039   0.535  -0.263  1.00  0.00     0.000 C 
BRANCH   8   9
ATOM      9  C   UNL     1      -5.553   1.601  -1.250  1.00  0.00     0.000 C 
BRANCH   9  10
ATOM     10  C   UNL     1      -6.080   2.893  -0.579  1.00  0.00     0.000 C 
BRANCH  10  11
ATOM     11  C   UNL     1      -7.159   2.653   0.496  1.00  0.00     0.000 C 
BRANCH  11  12
ATOM     12  C   UNL     1      -8.413   1.964  -0.070  1.00  0.00     0.000 C 
BRANCH  12  13
ATOM     13  C   UNL     1      -9.471   1.626   0.989  1.00  0.00     0.000 C 
BRANCH  13  14
ATOM     14  C   UNL     1      -8.988   0.538   1.972  1.00  0.00     0.000 C 
BRANCH  14  15
ATOM     15  C   UNL     1      -9.976   0.107   3.074  1.00  0.00     0.000 C 
BRANCH  15  16
ATOM     16  C   UNL     1     -11.135  -0.828   2.665  1.00  0.00     0.004 C 
BRANCH  16  17
ATOM     17  C   UNL     1     -12.301  -0.161   1.932  1.00  0.00     0.027 C 
BRANCH  17  18
ATOM     18  C   UNL     1     -13.413  -1.152   1.722  1.00  0.00    -0.031 C 
ATOM     19  C   UNL     1     -13.892  -1.425   0.501  1.00  0.00    -0.031 C 
BRANCH  19  20
ATOM     20  C   UNL     1     -15.042  -2.373   0.298  1.00  0.00     0.027 C 
BRANCH  20  21
ATOM     21  C   UNL     1     -16.261  -1.614  -0.241  1.00  0.00     0.004 C 
BRANCH  21  22
ATOM     22  C   UNL     1     -16.748  -0.564   0.780  1.00  0.00     0.000 C 
BRANCH  22  23
ATOM     23  C   UNL     1     -18.005   0.194   0.342  1.00  0.00     0.000 C 
BRANCH  23  24
ATOM     24  C   UNL     1     -17.778   1.080  -0.892  1.00  0.00    -0.000 C 
BRANCH  24  25
ATOM     25  C   UNL     1     -19.043   1.887  -1.203  1.00  0.00    -0.000 C 
BRANCH  25  26
ATOM     26  C   UNL     1     -18.843   2.790  -2.424  1.00  0.00    -0.003 C 
ATOM     27  C   UNL     1     -20.108   3.594  -2.712  1.00  0.00     0.004 C 
ENDBRANCH  25  26
ENDBRANCH  24  25
ENDBRANCH  23  24
ENDBRANCH  22  23
ENDBRANCH  21  22
ENDBRANCH  20  21
ENDBRANCH  19  20
ENDBRANCH  17  18
ENDBRANCH  16  17
ENDBRANCH  15  16
ENDBRANCH  14  15
ENDBRANCH  13  14
ENDBRANCH  12  13
ENDBRANCH  11  12
ENDBRANCH  10  11
ENDBRANCH   9  10
ENDBRANCH   8   9
ENDBRANCH   7   8
ENDBRANCH   6   7
ENDBRANCH   5   6
ENDBRANCH   4   5
ENDBRANCH   3   4
ENDBRANCH   1   3
BRANCH   2  28
ATOM     28  C   UNL     1       0.595  -4.052   2.442  1.00  0.00     0.255 C 
ATOM     29  O   UNL     1       1.528  -4.829   2.562  1.00  0.00    -0.298 OA
ENDBRANCH   2  28
BRANCH   2  30
ATOM     30  C   UNL     1       1.880  -2.788   0.588  1.00  0.00     0.038 C 
BRANCH  30  31
ATOM     31  C   UNL     1       1.879  -3.930  -0.445  1.00  0.00     0.005 C 
BRANCH  31  32
ATOM     32  C   UNL     1       3.117  -3.944  -1.344  1.00  0.00     0.000 C 
BRANCH  32  33
ATOM     33  C   UNL     1       3.235  -2.711  -2.264  1.00  0.00     0.000 C 
BRANCH  33  34
ATOM     34  C   UNL     1       4.426  -2.814  -3.233  1.00  0.00     0.000 C 
BRANCH  34  35
ATOM     35  C   UNL     1       5.759  -2.899  -2.486  1.00  0.00     0.000 C 
BRANCH  35  36
ATOM     36  C   UNL     1       6.963  -2.977  -3.432  1.00  0.00     0.000 C 
BRANCH  36  37
ATOM     37  C   UNL     1       8.269  -3.208  -2.653  1.00  0.00     0.000 C 
BRANCH  37  38
ATOM     38  C   UNL     1       8.613  -2.044  -1.713  1.00  0.00     0.000 C 
BRANCH  38  39
ATOM     39  C   UNL     1       9.882  -2.344  -0.912  1.00  0.00     0.000 C 
BRANCH  39  40
ATOM     40  C   UNL     1      10.245  -1.201   0.053  1.00  0.00     0.000 C 
BRANCH  40  41
ATOM     41  C   UNL     1      10.555   0.144  -0.636  1.00  0.00     0.000 C 
BRANCH  41  42
ATOM     42  C   UNL     1      11.658   0.062  -1.712  1.00  0.00     0.004 C 
BRANCH  42  43
ATOM     43  C   UNL     1      12.993  -0.521  -1.222  1.00  0.00     0.027 C 
BRANCH  43  44
ATOM     44  C   UNL     1      13.582   0.320  -0.117  1.00  0.00    -0.031 C 
ATOM     45  C   UNL     1      14.757   0.975  -0.140  1.00  0.00    -0.031 C 
BRANCH  45  46
ATOM     46  C   UNL     1      15.758   1.010  -1.276  1.00  0.00     0.027 C 
BRANCH  46  47
ATOM     47  C   UNL     1      17.166   0.470  -0.928  1.00  0.00     0.004 C 
BRANCH  47  48
ATOM     48  C   UNL     1      17.959   1.353   0.055  1.00  0.00     0.000 C 
BRANCH  48  49
ATOM     49  C   UNL     1      17.621   1.121   1.543  1.00  0.00     0.000 C 
BRANCH  49  50
ATOM     50  C   UNL     1      17.801   2.369   2.432  1.00  0.00    -0.000 C 
BRANCH  50  51
ATOM     51  C   UNL     1      16.596   3.349   2.417  1.00  0.00    -0.000 C 
BRANCH  51  52
ATOM     52  C   UNL     1      16.320   4.144   1.128  1.00  0.00    -0.003 C 
ATOM     53  C   UNL     1      17.444   5.117   0.782  1.00  0.00     0.004 C 
ENDBRANCH  51  52
ENDBRANCH  50  51
ENDBRANCH  49  50
ENDBRANCH  48  49
ENDBRANCH  47  48
ENDBRANCH  46  47
ENDBRANCH  45  46
ENDBRANCH  43  44
ENDBRANCH  42  43
ENDBRANCH  41  42
ENDBRANCH  40  41
ENDBRANCH  39  40
ENDBRANCH  38  39
ENDBRANCH  37  38
ENDBRANCH  36  37
ENDBRANCH  35  36
ENDBRANCH  34  35
ENDBRANCH  33  34
ENDBRANCH  32  33
ENDBRANCH  31  32
ENDBRANCH  30  31
ENDBRANCH   2  30
TORSDOF 46
