REMARK SMILES CCOC(=O)Cc1c2c3c(cc(O)c(O)c3oc1=O)C(=O)OC2
REMARK SMILES IDX 4 1 5 2 3 3 2 4 1 5 6 6 7 7 8 8 18 9 23 10 9 11 17 12 19 13
REMARK SMILES IDX 22 14 10 15 16 16 20 17 11 18 14 19 21 20 12 21 15 22 13 24
REMARK H PARENT 15 23 13 25
ROOT
ATOM      1  C   UNL     1       2.751   0.635   0.874  1.00  0.00     0.310 C 
ATOM      2  O   UNL     1       2.633   1.006   2.035  1.00  0.00    -0.252 OA
ENDROOT
BRANCH   1   3
ATOM      3  O   UNL     1       3.904   0.063   0.443  1.00  0.00    -0.466 OA
BRANCH   3   4
ATOM      4  C   UNL     1       4.999  -0.158   1.255  1.00  0.00     0.229 C 
ATOM      5  C   UNL     1       6.129  -0.764   0.437  1.00  0.00     0.049 C 
ENDBRANCH   3   4
ENDBRANCH   1   3
BRANCH   1   6
ATOM      6  C   UNL     1       1.641   0.896  -0.109  1.00  0.00     0.166 C 
BRANCH   6   7
ATOM      7  C   UNL     1       0.280   0.237   0.151  1.00  0.00     0.056 A 
ATOM      8  C   UNL     1      -0.807   0.561  -0.708  1.00  0.00     0.012 A 
ATOM      9  C   UNL     1       0.030  -0.686   1.202  1.00  0.00     0.340 A 
ATOM     10  C   UNL     1      -0.620   1.534  -1.869  1.00  0.00     0.270 C 
ATOM     11  C   UNL     1      -2.066  -0.023  -0.473  1.00  0.00     0.043 A 
ATOM     12  O   UNL     1      -1.179  -1.206   1.375  1.00  0.00    -0.418 OA
ATOM     13  O   UNL     1       0.913  -1.033   1.964  1.00  0.00    -0.246 OA
ATOM     14  O   UNL     1      -1.760   1.765  -2.624  1.00  0.00    -0.457 OA
ATOM     15  C   UNL     1      -3.166   0.277  -1.288  1.00  0.00     0.075 A 
ATOM     16  C   UNL     1      -2.217  -0.918   0.604  1.00  0.00     0.185 A 
ATOM     17  C   UNL     1      -2.976   1.214  -2.406  1.00  0.00     0.339 C 
ATOM     18  C   UNL     1      -4.413  -0.312  -1.028  1.00  0.00     0.066 A 
ATOM     19  C   UNL     1      -3.470  -1.508   0.863  1.00  0.00     0.202 A 
ATOM     20  O   UNL     1      -3.905   1.505  -3.144  1.00  0.00    -0.246 OA
ATOM     21  C   UNL     1      -4.570  -1.199   0.041  1.00  0.00     0.162 A 
BRANCH  19  22
ATOM     22  O   UNL     1      -3.631  -2.368   1.893  1.00  0.00    -0.502 OA
ATOM     23  H   UNL     1      -2.909  -2.615   2.488  1.00  0.00     0.293 HD
ENDBRANCH  19  22
BRANCH  21  24
ATOM     24  O   UNL     1      -5.785  -1.743   0.262  1.00  0.00    -0.504 OA
ATOM     25  H   UNL     1      -5.960  -2.360   0.987  1.00  0.00     0.293 HD
ENDBRANCH  21  24
ENDBRANCH   6   7
ENDBRANCH   1   6
TORSDOF 6
