REMARK SMILES CC1=C(C)C(=O)O[C@@H]([C@@H](C)[C@H]2CC=C3[C@@H]4C[C@H]5O[C@]56[C@@H](O)C=CC(=O)[C@]6(C)[C@H]4CC[C@@]32C)C1
REMARK SMILES IDX 11 1 12 2 13 3 14 4 15 5 16 6 17 7 18 8 19 9 20 10 22 11
REMARK SMILES IDX 23 12 24 13 25 14 26 15 27 16 28 17 29 18 30 19 31 20 32 21
REMARK SMILES IDX 9 22 10 23 8 24 2 25 3 26 33 27 5 28 6 29 7 30 1 31 4 32
REMARK SMILES IDX 21 33
REMARK H PARENT 21 34
ROOT
ATOM      1  C   UNL     1       1.270  -1.509  -0.613  1.00  0.00     0.009 C 
ATOM      2  C   UNL     1       0.970  -2.915  -0.030  1.00  0.00     0.032 C 
ATOM      3  C   UNL     1      -0.420  -2.769   0.478  1.00  0.00    -0.027 C 
ATOM      4  C   UNL     1      -0.722  -1.484   0.627  1.00  0.00    -0.064 C 
ATOM      5  C   UNL     1      -2.045  -0.882   0.991  1.00  0.00     0.022 C 
ATOM      6  C   UNL     1      -3.085  -1.854   1.556  1.00  0.00     0.043 C 
ATOM      7  C   UNL     1      -4.405  -1.151   1.878  1.00  0.00     0.156 C 
ATOM      8  O   UNL     1      -4.210   0.113   2.447  1.00  0.00    -0.362 OA
ATOM      9  C   UNL     1      -4.768   0.100   1.136  1.00  0.00     0.137 C 
ATOM     10  C   UNL     1      -6.226   0.569   1.202  1.00  0.00     0.173 C 
ATOM     11  C   UNL     1      -6.819   0.470  -0.181  1.00  0.00     0.011 C 
ATOM     12  C   UNL     1      -6.084   0.752  -1.268  1.00  0.00     0.046 C 
ATOM     13  C   UNL     1      -4.632   1.070  -1.180  1.00  0.00     0.164 C 
ATOM     14  O   UNL     1      -4.098   1.532  -2.176  1.00  0.00    -0.294 OA
ATOM     15  C   UNL     1      -3.803   0.790   0.092  1.00  0.00     0.068 C 
ATOM     16  C   UNL     1      -3.273   2.135   0.647  1.00  0.00     0.024 C 
ATOM     17  C   UNL     1      -2.614  -0.184  -0.279  1.00  0.00     0.013 C 
ATOM     18  C   UNL     1      -1.462   0.406  -1.192  1.00  0.00     0.006 C 
ATOM     19  C   UNL     1      -0.172   0.721  -0.399  1.00  0.00     0.012 C 
ATOM     20  C   UNL     1       0.422  -0.565   0.291  1.00  0.00    -0.008 C 
ATOM     21  C   UNL     1       1.137  -0.205   1.611  1.00  0.00     0.016 C 
ENDROOT
BRANCH   1  22
ATOM     22  C   UNL     1       2.792  -1.298  -0.983  1.00  0.00     0.032 C 
ATOM     23  C   UNL     1       3.787  -1.624   0.151  1.00  0.00     0.012 C 
BRANCH  22  24
ATOM     24  C   UNL     1       3.134   0.036  -1.739  1.00  0.00     0.184 C 
ATOM     25  C   UNL     1       4.661   1.356  -0.176  1.00  0.00    -0.059 C 
ATOM     26  C   UNL     1       5.753   0.846  -0.814  1.00  0.00     0.033 C 
ATOM     27  C   UNL     1       3.334   1.333  -0.914  1.00  0.00     0.076 C 
ATOM     28  C   UNL     1       5.530   0.168  -2.126  1.00  0.00     0.333 C 
ATOM     29  O   UNL     1       6.477  -0.179  -2.812  1.00  0.00    -0.247 OA
ATOM     30  O   UNL     1       4.268  -0.147  -2.525  1.00  0.00    -0.458 OA
ATOM     31  C   UNL     1       4.670   1.999   1.196  1.00  0.00     0.040 C 
ATOM     32  C   UNL     1       7.171   0.867  -0.278  1.00  0.00     0.052 C 
ENDBRANCH  22  24
ENDBRANCH   1  22
BRANCH  10  33
ATOM     33  O   UNL     1      -6.305   1.881   1.714  1.00  0.00    -0.386 OA
ATOM     34  H   UNL     1      -6.373   2.531   0.966  1.00  0.00     0.211 HD
ENDBRANCH  10  33
TORSDOF 3
