REMARK SMILES C/C=C1/NC(=O)[C@@H](NC(=O)[C@H](CCc2ccc(O)cc2)NC(=O)[C@H](C)NC(=O)[C@H](O)CO)[C@@H](C)OC(=O)[C@H](C(C)C)NC(=O)[C@H](Cc2ccc(O)cc2)N(C)C(=O)[C@H](Cc2ccccc2)N2C(=O)[C@H](CC[C@H]2O)NC1=O
REMARK SMILES IDX 74 1 75 2 76 3 3 5 2 6 1 7 4 8 5 9 6 10 7 12 8 14 9 15 10 16
REMARK SMILES IDX 11 18 12 19 13 20 14 21 15 22 20 23 16 24 19 25 17 26 18 27
REMARK SMILES IDX 21 29 22 30 23 31 24 33 25 34 26 35 27 36 28 37 29 39 30 40
REMARK SMILES IDX 31 42 32 43 69 45 67 46 70 47 66 48 68 49 71 50 72 51 58 52
REMARK SMILES IDX 56 53 57 54 54 55 55 56 45 57 43 58 42 59 44 60 38 62 36 63
REMARK SMILES IDX 37 64 35 65 33 66 34 67 39 69 40 70 41 71 46 72 47 73 48 74
REMARK SMILES IDX 53 75 49 76 52 77 50 78 51 79 59 81 60 82 61 83 65 84 62 85
REMARK SMILES IDX 64 86 63 87 73 88
REMARK H PARENT 74 4 4 11 8 17 18 28 21 32 26 38 30 41 32 44 42 61 51 80 73 89
REMARK Flexibility Score:  369.900
ROOT
ATOM      1  N   UNL     1      -1.767   2.089  -2.833  1.00  0.00    -0.339 N 
ATOM      2  C   UNL     1      -1.050   3.244  -3.034  1.00  0.00     0.268 C 
ATOM      3  O   UNL     1      -1.585   4.164  -3.636  1.00  0.00    -0.268 OA
ATOM      4  H   UNL     1      -1.366   1.342  -2.253  1.00  0.00     0.164 HD
ENDROOT
BRANCH   2   5
ATOM      5  C   UNL     1       0.326   3.479  -2.415  1.00  0.00     0.102 C 
ATOM      6  C   UNL     1       0.744   4.745  -2.137  1.00  0.00     0.001 C 
ATOM      7  C   UNL     1      -0.030   6.014  -2.393  1.00  0.00     0.038 C 
BRANCH   5   8
ATOM      8  N   UNL     1       1.253   2.419  -2.080  1.00  0.00    -0.320 N 
ATOM      9  C   UNL     1       1.348   1.251  -2.778  1.00  0.00     0.250 C 
ATOM     10  O   UNL     1       0.598   1.060  -3.725  1.00  0.00    -0.272 OA
ATOM     11  H   UNL     1       1.991   2.618  -1.390  1.00  0.00     0.170 HD
BRANCH   9  12
ATOM     12  C   UNL     1       2.442   0.197  -2.557  1.00  0.00     0.212 CG0
ATOM     13  G   UNL     1       1.824  -1.230  -2.502  1.00  0.00     0.000 G0
BRANCH  12  14
ATOM     14  N   UNL     1       3.419   0.398  -1.467  1.00  0.00    -0.339 N 
ATOM     15  C   UNL     1       3.127   0.450  -0.128  1.00  0.00     0.243 C 
ATOM     16  O   UNL     1       1.963   0.527   0.236  1.00  0.00    -0.273 OA
ATOM     17  H   UNL     1       4.409   0.400  -1.751  1.00  0.00     0.164 HD
BRANCH  15  18
ATOM     18  C   UNL     1       4.203   0.373   0.970  1.00  0.00     0.171 C 
BRANCH  18  19
ATOM     19  C   UNL     1       4.213   1.617   1.894  1.00  0.00     0.040 C 
BRANCH  19  20
ATOM     20  C   UNL     1       4.354   2.982   1.201  1.00  0.00     0.038 C 
BRANCH  20  21
ATOM     21  C   UNL     1       5.681   3.228   0.532  1.00  0.00    -0.048 A 
ATOM     22  C   UNL     1       5.739   3.398  -0.860  1.00  0.00     0.007 A 
ATOM     23  C   UNL     1       6.863   3.328   1.287  1.00  0.00     0.007 A 
ATOM     24  C   UNL     1       6.957   3.663  -1.489  1.00  0.00     0.046 A 
ATOM     25  C   UNL     1       8.081   3.602   0.655  1.00  0.00     0.046 A 
ATOM     26  C   UNL     1       8.132   3.771  -0.733  1.00  0.00     0.115 A 
BRANCH  26  27
ATOM     27  O   UNL     1       9.311   4.042  -1.329  1.00  0.00    -0.508 OA
ATOM     28  H   UNL     1       9.384   4.176  -2.285  1.00  0.00     0.293 HD
ENDBRANCH  26  27
ENDBRANCH  20  21
ENDBRANCH  19  20
ENDBRANCH  18  19
BRANCH  18  29
ATOM     29  N   UNL     1       5.553   0.063   0.487  1.00  0.00    -0.343 N 
ATOM     30  C   UNL     1       6.269  -1.018   0.946  1.00  0.00     0.242 C 
ATOM     31  O   UNL     1       5.775  -1.778   1.769  1.00  0.00    -0.273 OA
ATOM     32  H   UNL     1       6.014   0.706  -0.172  1.00  0.00     0.164 HD
BRANCH  30  33
ATOM     33  C   UNL     1       7.700  -1.269   0.490  1.00  0.00     0.168 C 
ATOM     34  C   UNL     1       7.755  -1.577  -1.006  1.00  0.00     0.041 C 
BRANCH  33  35
ATOM     35  N   UNL     1       8.289  -2.388   1.229  1.00  0.00    -0.342 N 
ATOM     36  C   UNL     1       9.371  -2.266   2.056  1.00  0.00     0.251 C 
ATOM     37  O   UNL     1       9.905  -1.175   2.211  1.00  0.00    -0.272 OA
ATOM     38  H   UNL     1       7.847  -3.317   1.133  1.00  0.00     0.164 HD
BRANCH  36  39
ATOM     39  C   UNL     1       9.904  -3.468   2.822  1.00  0.00     0.228 C 
BRANCH  39  40
ATOM     40  O   UNL     1      10.929  -3.084   3.709  1.00  0.00    -0.381 OA
ATOM     41  H   UNL     1      11.714  -2.807   3.166  1.00  0.00     0.211 HD
ENDBRANCH  39  40
BRANCH  39  42
ATOM     42  C   UNL     1      10.401  -4.590   1.890  1.00  0.00     0.198 C 
BRANCH  42  43
ATOM     43  O   UNL     1      10.823  -5.698   2.641  1.00  0.00    -0.393 OA
ATOM     44  H   UNL     1      11.754  -5.512   2.933  1.00  0.00     0.210 HD
ENDBRANCH  42  43
ENDBRANCH  39  42
ENDBRANCH  36  39
ENDBRANCH  33  35
ENDBRANCH  30  33
ENDBRANCH  18  29
ENDBRANCH  15  18
ENDBRANCH  12  14
ENDBRANCH   9  12
ENDBRANCH   5   8
ENDBRANCH   2   5
BRANCH   1  45
ATOM     45  C   UNL     1      -3.186   1.991  -3.201  1.00  0.00     0.172 C 
ATOM     46  C   UNL     1      -4.023   2.091  -1.954  1.00  0.00     0.247 C 
ATOM     47  C   UNL     1      -3.548   0.732  -3.995  1.00  0.00     0.040 C 
ATOM     48  N   UNL     1      -5.270   1.504  -1.828  1.00  0.00    -0.303 N 
ATOM     49  O   UNL     1      -3.581   2.793  -1.053  1.00  0.00    -0.272 OA
ATOM     50  C   UNL     1      -5.057   0.804  -4.267  1.00  0.00     0.057 C 
ATOM     51  C   UNL     1      -5.879   0.746  -2.947  1.00  0.00     0.214 C 
BRANCH  48  52
ATOM     52  C   UNL     1      -5.986   1.753  -0.554  1.00  0.00     0.181 C 
BRANCH  52  53
ATOM     53  C   UNL     1      -5.175   1.311   0.694  1.00  0.00     0.246 C 
ATOM     54  O   UNL     1      -4.927   2.199   1.500  1.00  0.00    -0.272 OA
BRANCH  53  55
ATOM     55  N   UNL     1      -4.631   0.051   0.898  1.00  0.00    -0.332 N 
ATOM     56  C   UNL     1      -4.925  -1.031  -0.021  1.00  0.00     0.147 C 
BRANCH  55  57
ATOM     57  C   UNL     1      -3.695  -0.197   2.021  1.00  0.00     0.178 C 
BRANCH  57  58
ATOM     58  C   UNL     1      -2.250  -0.498   1.571  1.00  0.00     0.243 C 
ATOM     59  N   UNL     1      -1.887  -1.519   0.723  1.00  0.00    -0.341 N 
ATOM     60  O   UNL     1      -1.379   0.232   2.025  1.00  0.00    -0.273 OA
ATOM     61  H   UNL     1      -2.590  -2.106   0.277  1.00  0.00     0.164 HD
BRANCH  59  62
ATOM     62  C   UNL     1      -0.486  -1.835   0.429  1.00  0.00     0.194 C 
BRANCH  62  63
ATOM     63  C   UNL     1      -0.087  -1.431  -0.971  1.00  0.00     0.329 C 
ATOM     64  O   UNL     1      -0.917  -1.049  -1.782  1.00  0.00    -0.250 OA
BRANCH  63  65
ATOM     65  O   UNL     1       1.234  -1.471  -1.277  1.00  0.00    -0.458 OA
BRANCH  65  66
ATOM     66  C   UNL     1       1.824  -1.230  -2.502  1.00  0.00     0.205 CG0
ATOM     67  C   UNL     1       2.904  -2.290  -2.741  1.00  0.00     0.056 C 
ATOM     68  G   UNL     1       2.442   0.197  -2.557  1.00  0.00     0.000 G0
ENDBRANCH  65  66
ENDBRANCH  63  65
ENDBRANCH  62  63
BRANCH  62  69
ATOM     69  C   UNL     1      -0.173  -3.344   0.648  1.00  0.00     0.017 C 
ATOM     70  C   UNL     1      -0.558  -3.793   2.062  1.00  0.00     0.010 C 
ATOM     71  C   UNL     1      -0.853  -4.255  -0.396  1.00  0.00     0.010 C 
ENDBRANCH  62  69
ENDBRANCH  59  62
ENDBRANCH  57  58
BRANCH  57  72
ATOM     72  C   UNL     1      -4.208  -1.253   3.028  1.00  0.00     0.070 C 
BRANCH  72  73
ATOM     73  C   UNL     1      -5.443  -0.771   3.757  1.00  0.00    -0.045 A 
ATOM     74  C   UNL     1      -5.391   0.389   4.554  1.00  0.00     0.007 A 
ATOM     75  C   UNL     1      -6.653  -1.480   3.664  1.00  0.00     0.007 A 
ATOM     76  C   UNL     1      -6.528   0.841   5.231  1.00  0.00     0.046 A 
ATOM     77  C   UNL     1      -7.788  -1.025   4.346  1.00  0.00     0.046 A 
ATOM     78  C   UNL     1      -7.733   0.135   5.123  1.00  0.00     0.115 A 
BRANCH  78  79
ATOM     79  O   UNL     1      -8.837   0.559   5.770  1.00  0.00    -0.508 OA
ATOM     80  H   UNL     1      -8.838   1.358   6.317  1.00  0.00     0.293 HD
ENDBRANCH  78  79
ENDBRANCH  72  73
ENDBRANCH  57  72
ENDBRANCH  55  57
ENDBRANCH  53  55
ENDBRANCH  52  53
BRANCH  52  81
ATOM     81  C   UNL     1      -7.545   1.624  -0.552  1.00  0.00     0.071 C 
BRANCH  81  82
ATOM     82  C   UNL     1      -8.244   0.291  -0.458  1.00  0.00    -0.045 A 
ATOM     83  C   UNL     1      -8.236  -0.432   0.744  1.00  0.00     0.004 A 
ATOM     84  C   UNL     1      -9.005  -0.191  -1.540  1.00  0.00     0.004 A 
ATOM     85  C   UNL     1      -8.956  -1.627   0.856  1.00  0.00     0.000 A 
ATOM     86  C   UNL     1      -9.719  -1.387  -1.427  1.00  0.00     0.000 A 
ATOM     87  C   UNL     1      -9.695  -2.105  -0.230  1.00  0.00     0.000 A 
ENDBRANCH  81  82
ENDBRANCH  52  81
ENDBRANCH  48  52
BRANCH  51  88
ATOM     88  O   UNL     1      -6.143  -0.584  -2.567  1.00  0.00    -0.373 OA
ATOM     89  H   UNL     1      -5.437  -1.183  -2.923  1.00  0.00     0.213 HD
ENDBRANCH  51  88
ENDBRANCH   1  45
TORSDOF 20
