REMARK SMILES O=CC(=CCc1ccccc1)c1ccccc1
REMARK SMILES IDX 3 1 4 2 2 3 1 4 12 5 13 6 17 7 14 8 16 9 15 10 5 11 6 12
REMARK SMILES IDX 7 13 11 14 8 15 10 16 9 17
REMARK H PARENT
ROOT
ATOM      1  C   UNL     1       1.348  -0.060   0.642  1.00  0.00     0.018 C 
ATOM      2  C   UNL     1       0.242  -0.832   0.419  1.00  0.00    -0.010 C 
ENDROOT
BRANCH   1   3
ATOM      3  C   UNL     1       1.707   0.347   2.044  1.00  0.00     0.260 C 
ATOM      4  O   UNL     1       2.772   0.875   2.310  1.00  0.00    -0.298 OA
ENDBRANCH   1   3
BRANCH   1   5
ATOM      5  C   UNL     1       2.205   0.376  -0.541  1.00  0.00    -0.015 A 
ATOM      6  C   UNL     1       3.072   1.495  -0.459  1.00  0.00     0.009 A 
ATOM      7  C   UNL     1       2.169  -0.320  -1.779  1.00  0.00     0.009 A 
ATOM      8  C   UNL     1       3.855   1.889  -1.548  1.00  0.00     0.001 A 
ATOM      9  C   UNL     1       2.957   0.083  -2.861  1.00  0.00     0.001 A 
ATOM     10  C   UNL     1       3.799   1.184  -2.747  1.00  0.00     0.000 A 
ENDBRANCH   1   5
BRANCH   2  11
ATOM     11  C   UNL     1      -0.723  -1.393   1.444  1.00  0.00     0.063 C 
BRANCH  11  12
ATOM     12  C   UNL     1      -2.113  -0.876   1.184  1.00  0.00    -0.044 A 
ATOM     13  C   UNL     1      -2.392   0.497   1.305  1.00  0.00     0.004 A 
ATOM     14  C   UNL     1      -3.147  -1.757   0.823  1.00  0.00     0.004 A 
ATOM     15  C   UNL     1      -3.683   0.978   1.066  1.00  0.00     0.000 A 
ATOM     16  C   UNL     1      -4.436  -1.272   0.585  1.00  0.00     0.000 A 
ATOM     17  C   UNL     1      -4.704   0.095   0.706  1.00  0.00     0.000 A 
ENDBRANCH  11  12
ENDBRANCH   2  11
TORSDOF 4
