REMARK SMILES [C-]#[N+][C@H]1C[C@@H]2[C@@H]3C[C@@]1(C)C[C@@]2(C)C[C@@H]3C(C)C
REMARK SMILES IDX 1 1 2 2 3 3 4 4 5 5 6 6 7 7 8 8 9 9 10 10 11 11 12 12 13 13
REMARK SMILES IDX 14 14 15 15 16 16 17 17
REMARK H PARENT
ROOT
ATOM      1  C   UNL     1      -4.657   0.511  -1.023  1.00  0.00    -0.234 C 
ATOM      2  N   UNL     1      -3.725  -0.139  -0.801  1.00  0.00    -0.313 N 
ATOM      3  C   UNL     1      -2.596  -0.950  -0.533  1.00  0.00     0.354 C 
ATOM      4  C   UNL     1      -1.572  -0.855  -1.697  1.00  0.00     0.097 C 
ATOM      5  C   UNL     1      -0.239  -0.264  -1.201  1.00  0.00     0.006 C 
ATOM      6  C   UNL     1       0.415  -1.102  -0.063  1.00  0.00    -0.003 C 
ATOM      7  C   UNL     1      -0.691  -1.484   0.980  1.00  0.00     0.019 C 
ATOM      8  C   UNL     1      -1.921  -0.556   0.825  1.00  0.00     0.043 C 
ATOM      9  C   UNL     1      -2.896  -0.752   1.998  1.00  0.00     0.020 C 
ATOM     10  C   UNL     1      -1.440   0.922   0.729  1.00  0.00     0.021 C 
ATOM     11  C   UNL     1      -0.421   1.093  -0.463  1.00  0.00    -0.028 C 
ATOM     12  C   UNL     1      -0.839   2.259  -1.377  1.00  0.00     0.012 C 
ATOM     13  C   UNL     1       1.012   1.288   0.050  1.00  0.00     0.011 C 
ATOM     14  C   UNL     1       1.430  -0.097   0.575  1.00  0.00    -0.005 C 
ENDROOT
BRANCH  14  15
ATOM     15  C   UNL     1       2.928  -0.469   0.355  1.00  0.00    -0.014 C 
ATOM     16  C   UNL     1       3.853   0.527   1.069  1.00  0.00     0.007 C 
ATOM     17  C   UNL     1       3.339  -0.603  -1.124  1.00  0.00     0.007 C 
ENDBRANCH  14  15
TORSDOF 1
