REMARK SMILES CC(=O)O[C@H]1[C@H](OC(=O)C=C(C)C)C(C)(C)C[C@H]2C3=CC[C@@H]4[C@@]5(C)CC[C@H](O)C(C)(C)[C@@H]5CC[C@@]4(C)[C@]3(C)[C@@H](O)[C@@H](O)[C@]21CO
REMARK SMILES IDX 5 1 6 2 14 3 15 4 16 5 17 6 18 7 19 8 20 9 21 10 22 11 23 12
REMARK SMILES IDX 24 13 25 14 26 15 27 16 29 17 30 18 31 19 32 20 33 21 34 22
REMARK SMILES IDX 35 23 36 24 37 25 38 26 39 27 41 28 43 29 4 30 2 31 3 32
REMARK SMILES IDX 1 33 7 34 8 35 9 36 10 37 11 38 12 39 13 40 44 41 45 42
REMARK SMILES IDX 42 44 40 46 28 48
REMARK H PARENT 45 43 42 45 40 47 28 49
ROOT
ATOM      1  C   UNL     1      -3.375  -1.186  -0.161  1.00  0.00     0.229 C 
ATOM      2  C   UNL     1      -3.878   0.267  -0.276  1.00  0.00     0.224 C 
ATOM      3  C   UNL     1      -3.214   1.011  -1.476  1.00  0.00     0.006 C 
ATOM      4  C   UNL     1      -3.610   0.416  -2.856  1.00  0.00     0.015 C 
ATOM      5  C   UNL     1      -3.668   2.490  -1.470  1.00  0.00     0.015 C 
ATOM      6  C   UNL     1      -1.685   0.966  -1.276  1.00  0.00     0.019 C 
ATOM      7  C   UNL     1      -1.105  -0.464  -1.129  1.00  0.00     0.031 C 
ATOM      8  C   UNL     1       0.405  -0.424  -0.873  1.00  0.00    -0.061 C 
ATOM      9  C   UNL     1       1.182  -1.148  -1.738  1.00  0.00    -0.026 C 
ATOM     10  C   UNL     1       2.673  -1.373  -1.607  1.00  0.00     0.032 C 
ATOM     11  C   UNL     1       3.262  -0.469  -0.520  1.00  0.00     0.006 C 
ATOM     12  C   UNL     1       4.835  -0.411  -0.341  1.00  0.00    -0.025 C 
ATOM     13  C   UNL     1       5.386  -1.709   0.313  1.00  0.00     0.012 C 
ATOM     14  C   UNL     1       5.504  -0.274  -1.749  1.00  0.00     0.010 C 
ATOM     15  C   UNL     1       6.986   0.135  -1.690  1.00  0.00     0.033 C 
ATOM     16  C   UNL     1       7.136   1.502  -0.987  1.00  0.00     0.120 C 
ATOM     17  C   UNL     1       6.580   1.506   0.477  1.00  0.00    -0.006 C 
ATOM     18  C   UNL     1       6.576   2.975   0.980  1.00  0.00     0.014 C 
ATOM     19  C   UNL     1       7.503   0.708   1.435  1.00  0.00     0.014 C 
ATOM     20  C   UNL     1       5.097   0.959   0.431  1.00  0.00     0.003 C 
ATOM     21  C   UNL     1       4.262   1.165   1.738  1.00  0.00     0.005 C 
ATOM     22  C   UNL     1       3.178   0.104   2.008  1.00  0.00     0.008 C 
ATOM     23  C   UNL     1       2.376  -0.509   0.796  1.00  0.00    -0.017 C 
ATOM     24  C   UNL     1       2.110  -1.992   1.227  1.00  0.00     0.013 C 
ATOM     25  C   UNL     1       0.973   0.229   0.438  1.00  0.00     0.023 C 
ATOM     26  C   UNL     1       1.257   1.768   0.217  1.00  0.00     0.019 C 
ATOM     27  C   UNL     1      -0.148   0.130   1.596  1.00  0.00     0.154 C 
ATOM     28  C   UNL     1      -1.136  -1.087   1.409  1.00  0.00     0.157 C 
ATOM     29  C   UNL     1      -1.803  -1.347  -0.027  1.00  0.00     0.069 C 
ENDROOT
BRANCH   1  30
ATOM     30  O   UNL     1      -4.031  -1.831   0.879  1.00  0.00    -0.458 OA
BRANCH  30  31
ATOM     31  C   UNL     1      -4.909  -2.862   0.755  1.00  0.00     0.303 C 
ATOM     32  O   UNL     1      -5.276  -3.255  -0.344  1.00  0.00    -0.253 OA
ATOM     33  C   UNL     1      -5.411  -3.539   1.989  1.00  0.00     0.139 C 
ENDBRANCH  30  31
ENDBRANCH   1  30
BRANCH   2  34
ATOM     34  O   UNL     1      -5.255   0.251  -0.459  1.00  0.00    -0.455 OA
BRANCH  34  35
ATOM     35  C   UNL     1      -6.182   0.841   0.336  1.00  0.00     0.331 C 
ATOM     36  O   UNL     1      -5.842   1.444   1.339  1.00  0.00    -0.247 OA
BRANCH  35  37
ATOM     37  C   UNL     1      -7.607   0.737  -0.081  1.00  0.00     0.092 C 
ATOM     38  C   UNL     1      -8.707   1.280   0.505  1.00  0.00    -0.069 C 
ATOM     39  C   UNL     1      -8.714   2.139   1.749  1.00  0.00     0.039 C 
ATOM     40  C   UNL     1     -10.061   1.029  -0.116  1.00  0.00     0.039 C 
ENDBRANCH  35  37
ENDBRANCH  34  35
ENDBRANCH   2  34
BRANCH  29  41
ATOM     41  C   UNL     1      -1.521  -2.857  -0.384  1.00  0.00     0.170 C 
BRANCH  41  42
ATOM     42  O   UNL     1      -2.100  -3.739   0.545  1.00  0.00    -0.396 OA
ATOM     43  H   UNL     1      -1.395  -3.999   1.193  1.00  0.00     0.210 HD
ENDBRANCH  41  42
ENDBRANCH  29  41
BRANCH  28  44
ATOM     44  O   UNL     1      -2.007  -1.277   2.497  1.00  0.00    -0.390 OA
ATOM     45  H   UNL     1      -2.683  -0.556   2.490  1.00  0.00     0.211 HD
ENDBRANCH  28  44
BRANCH  27  46
ATOM     46  O   UNL     1      -0.822   1.360   1.776  1.00  0.00    -0.389 OA
ATOM     47  H   UNL     1      -1.792   1.234   1.879  1.00  0.00     0.211 HD
ENDBRANCH  27  46
BRANCH  16  48
ATOM     48  O   UNL     1       8.464   1.967  -1.047  1.00  0.00    -0.393 OA
ATOM     49  H   UNL     1       9.067   1.217  -0.805  1.00  0.00     0.210 HD
ENDBRANCH  16  48
TORSDOF 10
