REMARK SMILES C[C@]12CCCC[C@@H]1CC[C@@H]1[C@@H]2CC[C@]2(C)/C(=N/C3CCCCC3)CC[C@@H]12
REMARK SMILES IDX 1 1 2 2 3 3 4 4 5 5 6 6 7 7 8 8 9 9 10 10 11 11 12 12 13 13
REMARK SMILES IDX 14 14 15 15 16 16 17 17 24 18 25 19 26 20 18 21 19 22 23 23
REMARK SMILES IDX 20 24 22 25 21 26
REMARK H PARENT
ROOT
ATOM      1  C   UNL     1      -3.897  -0.573   1.616  1.00  0.00     0.012 C 
ATOM      2  C   UNL     1      -3.600   0.442   0.451  1.00  0.00    -0.027 C 
ATOM      3  C   UNL     1      -4.305   1.786   0.812  1.00  0.00     0.007 C 
ATOM      4  C   UNL     1      -5.848   1.620   0.857  1.00  0.00     0.001 C 
ATOM      5  C   UNL     1      -6.397   1.038  -0.461  1.00  0.00     0.000 C 
ATOM      6  C   UNL     1      -5.666  -0.255  -0.906  1.00  0.00     0.004 C 
ATOM      7  C   UNL     1      -4.158   0.048  -0.978  1.00  0.00    -0.005 C 
ATOM      8  C   UNL     1      -3.263  -0.924  -1.820  1.00  0.00     0.004 C 
ATOM      9  C   UNL     1      -2.329  -1.763  -0.965  1.00  0.00     0.004 C 
ATOM     10  C   UNL     1      -1.443  -0.888  -0.012  1.00  0.00    -0.003 C 
ATOM     11  C   UNL     1      -2.059   0.553   0.256  1.00  0.00    -0.001 C 
ATOM     12  C   UNL     1      -1.257   1.320   1.341  1.00  0.00     0.005 C 
ATOM     13  C   UNL     1       0.242   1.415   0.936  1.00  0.00     0.013 C 
ATOM     14  C   UNL     1       0.830   0.003   0.700  1.00  0.00     0.009 C 
ATOM     15  C   UNL     1       0.891  -0.776   2.052  1.00  0.00     0.018 C 
ATOM     16  C   UNL     1       2.217  -0.069   0.130  1.00  0.00     0.019 C 
ATOM     17  N   UNL     1       3.196   0.622   0.621  1.00  0.00    -0.290 NA
ATOM     18  C   UNL     1       2.278  -1.091  -0.989  1.00  0.00     0.052 C 
ATOM     19  C   UNL     1       0.909  -1.792  -0.899  1.00  0.00     0.011 C 
ATOM     20  C   UNL     1       0.014  -0.649  -0.454  1.00  0.00     0.004 C 
ENDROOT
BRANCH  17  21
ATOM     21  C   UNL     1       4.607   0.569   0.271  1.00  0.00     0.105 C 
ATOM     22  C   UNL     1       5.271  -0.752   0.768  1.00  0.00     0.027 C 
ATOM     23  C   UNL     1       4.917   0.812  -1.208  1.00  0.00     0.027 C 
ATOM     24  C   UNL     1       6.575  -1.099   0.003  1.00  0.00     0.002 C 
ATOM     25  C   UNL     1       6.448   0.999  -1.395  1.00  0.00     0.002 C 
ATOM     26  C   UNL     1       7.304   0.182  -0.386  1.00  0.00     0.000 C 
ENDBRANCH  17  21
TORSDOF 1
