REMARK SMILES COc1cc(/C=C/C(=O)O[C@H]2[C@H](O)[C@H](O[C@@H]3O[C@H](C)[C@H](O[C@H]4OC[C@@H](O)[C@@H](O)[C@H]4O)[C@H](O[C@H]4OC[C@](O)(CO)[C@H]4O)[C@@H]3O)[C@H](OC(=O)[C@@]34CCC(C)(C)C[C@H]3C3=CC[C@@H]5C6(C)C[C@H](O)[C@@H](O[C@@H]7O[C@@H](CO)[C@H](O)[C@@H](O)[C@@H]7O)[C@](C)(C(=O)O)[C@@H]6CC[C@]5(C)[C@]3(CO)CC4)O[C@H]2C)cc(OC)c1OC
REMARK SMILES IDX 11 1 12 2 14 3 44 4 93 5 94 6 95 7 10 8 8 9 9 10 7 11 6 12
REMARK SMILES IDX 5 13 3 14 4 15 100 16 97 17 96 18 2 19 1 20 101 21 102 22
REMARK SMILES IDX 98 23 99 24 13 25 15 27 16 28 17 29 42 30 18 31 31 32 20 33
REMARK SMILES IDX 19 34 43 35 32 37 33 38 34 39 40 40 35 41 36 42 41 43 37 45
REMARK SMILES IDX 38 47 39 48 21 50 22 51 23 52 29 53 24 54 27 55 25 56 30 57
REMARK SMILES IDX 28 59 26 61 45 63 46 64 47 65 48 66 49 67 55 68 92 69 50 70
REMARK SMILES IDX 54 71 56 72 91 73 51 74 57 75 88 76 58 77 86 78 59 79 85 80
REMARK SMILES IDX 60 81 84 82 62 83 83 84 63 85 78 86 65 87 52 88 53 89 87 90
REMARK SMILES IDX 61 91 79 92 89 93 90 94 64 96 80 98 81 99 82 100 66 102
REMARK SMILES IDX 67 103 68 104 76 105 69 106 74 107 72 108 77 109 70 111
REMARK SMILES IDX 71 112 75 114 73 116
REMARK H PARENT 13 26 43 36 41 44 37 46 39 49 30 58 28 60 26 62 90 95 64 97
REMARK H PARENT 82 101 77 110 71 113 75 115 73 117
ROOT
ATOM      1  C   UNL     1       6.856   2.211  -0.387  1.00  0.00     0.237 C 
ATOM      2  C   UNL     1       7.215   0.634  -0.022  1.00  0.00     0.193 C 
ATOM      3  C   UNL     1       6.059  -0.595   0.127  1.00  0.00     0.223 C 
ATOM      4  C   UNL     1       4.593   0.042   0.558  1.00  0.00     0.343 C 
ATOM      5  O   UNL     1       4.926   1.427   0.992  1.00  0.00    -0.333 OA
ATOM      6  C   UNL     1       5.389   2.441   0.000  1.00  0.00     0.163 C 
ATOM      7  C   UNL     1       4.239   3.406   0.000  1.00  0.00     0.043 C 
ENDROOT
BRANCH   1   8
ATOM      8  O   UNL     1       7.574   3.264   0.237  1.00  0.00    -0.454 OA
BRANCH   8   9
ATOM      9  C   UNL     1       8.777   3.872  -0.079  1.00  0.00     0.331 C 
ATOM     10  O   UNL     1       9.701   3.195  -0.502  1.00  0.00    -0.247 OA
BRANCH   9  11
ATOM     11  C   UNL     1       8.945   5.399   0.061  1.00  0.00     0.094 C 
ATOM     12  C   UNL     1      10.134   6.088  -0.086  1.00  0.00     0.016 C 
BRANCH  12  13
ATOM     13  C   UNL     1      10.375   7.618  -0.034  1.00  0.00    -0.018 A 
ATOM     14  C   UNL     1      12.081   9.500  -0.018  1.00  0.00     0.165 A 
ATOM     15  C   UNL     1      11.721   8.110  -0.044  1.00  0.00     0.058 A 
ATOM     16  C   UNL     1      10.938  10.456  -0.009  1.00  0.00     0.203 A 
ATOM     17  C   UNL     1       9.524   9.965  -0.005  1.00  0.00     0.165 A 
ATOM     18  C   UNL     1       9.316   8.562  -0.006  1.00  0.00     0.058 A 
BRANCH  14  19
ATOM     19  O   UNL     1      13.478   9.889   0.000  1.00  0.00    -0.493 OA
ATOM     20  C   UNL     1      14.627   8.925   0.000  1.00  0.00     0.278 C 
ENDBRANCH  14  19
BRANCH  16  21
ATOM     21  O   UNL     1      11.180  11.818   0.000  1.00  0.00    -0.490 OA
ATOM     22  C   UNL     1      12.590  12.331   0.000  1.00  0.00     0.278 C 
ENDBRANCH  16  21
BRANCH  17  23
ATOM     23  O   UNL     1       8.361  10.792   0.000  1.00  0.00    -0.493 OA
ATOM     24  C   UNL     1       8.621  12.269   0.000  1.00  0.00     0.278 C 
ENDBRANCH  17  23
ENDBRANCH  12  13
ENDBRANCH   9  11
ENDBRANCH   8   9
ENDBRANCH   1   8
BRANCH   2  25
ATOM     25  O   UNL     1       8.324   0.198  -0.765  1.00  0.00    -0.386 OA
ATOM     26  H   UNL     1       9.026  -0.086  -0.124  1.00  0.00     0.211 HD
ENDBRANCH   2  25
BRANCH   3  27
ATOM     27  O   UNL     1       6.183  -1.923  -0.592  1.00  0.00    -0.337 OA
BRANCH  27  28
ATOM     28  C   UNL     1       6.985  -3.059   0.016  1.00  0.00     0.282 C 
ATOM     29  O   UNL     1       8.051  -3.554  -0.819  1.00  0.00    -0.344 OA
ATOM     30  C   UNL     1       6.235  -4.420   0.399  1.00  0.00     0.202 C 
ATOM     31  C   UNL     1       9.048  -4.253   0.000  1.00  0.00     0.150 C 
ATOM     32  C   UNL     1       7.103  -5.844   0.352  1.00  0.00     0.187 C 
ATOM     33  C   UNL     1       8.731  -5.793   0.160  1.00  0.00     0.182 C 
ATOM     34  C   UNL     1      10.197  -3.289   0.000  1.00  0.00     0.041 C 
BRANCH  30  35
ATOM     35  O   UNL     1       5.048  -4.555  -0.335  1.00  0.00    -0.385 OA
ATOM     36  H   UNL     1       5.306  -4.626  -1.288  1.00  0.00     0.211 HD
ENDBRANCH  30  35
BRANCH  32  37
ATOM     37  O   UNL     1       6.506  -6.795  -0.558  1.00  0.00    -0.341 OA
BRANCH  37  38
ATOM     38  C   UNL     1       5.503  -7.620   0.075  1.00  0.00     0.282 C 
ATOM     39  O   UNL     1       4.500  -7.979  -0.867  1.00  0.00    -0.347 OA
ATOM     40  C   UNL     1       6.044  -8.957   0.657  1.00  0.00     0.207 C 
ATOM     41  C   UNL     1       4.189  -9.340  -0.615  1.00  0.00     0.204 C 
ATOM     42  C   UNL     1       5.500 -10.026  -0.289  1.00  0.00     0.142 C 
BRANCH  40  43
ATOM     43  O   UNL     1       7.419  -8.988   0.827  1.00  0.00    -0.385 OA
ATOM     44  H   UNL     1       7.766  -8.629  -0.022  1.00  0.00     0.211 HD
ENDBRANCH  40  43
BRANCH  42  45
ATOM     45  O   UNL     1       6.247 -10.106  -1.484  1.00  0.00    -0.382 OA
ATOM     46  H   UNL     1       7.044 -10.675  -1.317  1.00  0.00     0.211 HD
ENDBRANCH  42  45
BRANCH  42  47
ATOM     47  C   UNL     1       5.275 -11.438   0.333  1.00  0.00     0.196 C 
BRANCH  47  48
ATOM     48  O   UNL     1       6.494 -12.076   0.616  1.00  0.00    -0.393 OA
ATOM     49  H   UNL     1       6.327 -13.055   0.549  1.00  0.00     0.210 HD
ENDBRANCH  47  48
ENDBRANCH  42  47
ENDBRANCH  37  38
ENDBRANCH  32  37
BRANCH  33  50
ATOM     50  O   UNL     1       9.232  -6.740  -0.837  1.00  0.00    -0.341 OA
BRANCH  50  51
ATOM     51  C   UNL     1      10.539  -7.394  -0.616  1.00  0.00     0.282 C 
ATOM     52  O   UNL     1      11.162  -7.138   0.631  1.00  0.00    -0.347 OA
ATOM     53  C   UNL     1      10.639  -8.967  -0.943  1.00  0.00     0.202 C 
ATOM     54  C   UNL     1      12.579  -7.445   0.599  1.00  0.00     0.198 C 
ATOM     55  C   UNL     1      11.907  -9.652  -0.324  1.00  0.00     0.179 C 
ATOM     56  C   UNL     1      13.024  -8.626  -0.332  1.00  0.00     0.171 C 
BRANCH  53  57
ATOM     57  O   UNL     1       9.523  -9.758  -0.657  1.00  0.00    -0.385 OA
ATOM     58  H   UNL     1       9.526  -9.988   0.308  1.00  0.00     0.211 HD
ENDBRANCH  53  57
BRANCH  55  59
ATOM     59  O   UNL     1      11.704 -10.059   1.015  1.00  0.00    -0.387 OA
ATOM     60  H   UNL     1      11.613 -11.050   1.024  1.00  0.00     0.211 HD
ENDBRANCH  55  59
BRANCH  56  61
ATOM     61  O   UNL     1      14.246  -9.161   0.132  1.00  0.00    -0.388 OA
ATOM     62  H   UNL     1      14.331 -10.100  -0.190  1.00  0.00     0.211 HD
ENDBRANCH  56  61
ENDBRANCH  50  51
ENDBRANCH  33  50
ENDBRANCH  27  28
ENDBRANCH   3  27
BRANCH   4  63
ATOM     63  O   UNL     1       3.193  -0.155   0.014  1.00  0.00    -0.432 OA
BRANCH  63  64
ATOM     64  C   UNL     1       2.250  -1.299   0.000  1.00  0.00     0.315 C 
ATOM     65  O   UNL     1       2.869  -2.359  -0.152  1.00  0.00    -0.252 OA
BRANCH  64  66
ATOM     66  C   UNL     1       0.750  -1.299   0.000  1.00  0.00     0.075 C 
ATOM     67  C   UNL     1       0.855   0.102   1.531  1.00  0.00     0.020 C 
ATOM     68  C   UNL     1      -0.750  -1.299   0.000  1.00  0.00     0.033 C 
ATOM     69  C   UNL     1       0.893  -2.649   1.591  1.00  0.00     0.020 C 
ATOM     70  C   UNL     1       0.621   1.292   0.838  1.00  0.00     0.007 C 
ATOM     71  C   UNL     1      -1.159  -0.044  -0.873  1.00  0.00     0.015 C 
ATOM     72  C   UNL     1      -1.661  -2.549  -0.031  1.00  0.00    -0.061 C 
ATOM     73  C   UNL     1      -0.350  -3.424   1.690  1.00  0.00     0.015 C 
ATOM     74  C   UNL     1      -0.750   1.299   0.000  1.00  0.00    -0.035 C 
ATOM     75  C   UNL     1      -3.000  -2.603   0.136  1.00  0.00    -0.026 C 
ATOM     76  C   UNL     1      -0.827  -3.675   0.110  1.00  0.00     0.020 C 
ATOM     77  C   UNL     1      -3.741  -3.906   0.441  1.00  0.00     0.032 C 
ATOM     78  C   UNL     1      -1.500  -5.196   0.000  1.00  0.00    -0.017 C 
ATOM     79  C   UNL     1      -3.000  -5.196   0.000  1.00  0.00     0.006 C 
ATOM     80  C   UNL     1      -1.370  -6.148   1.438  1.00  0.00     0.008 C 
ATOM     81  C   UNL     1      -3.750  -6.495   0.000  1.00  0.00    -0.022 C 
ATOM     82  C   UNL     1      -2.230  -7.408   1.615  1.00  0.00     0.006 C 
ATOM     83  C   UNL     1      -5.646  -6.354  -0.267  1.00  0.00     0.042 C 
ATOM     84  C   UNL     1      -2.875  -7.652   0.245  1.00  0.00     0.015 C 
ATOM     85  C   UNL     1      -6.753  -7.932  -0.476  1.00  0.00     0.145 C 
ATOM     86  C   UNL     1      -3.750  -9.093   0.000  1.00  0.00     0.097 C 
ATOM     87  C   UNL     1      -5.886  -9.522  -0.046  1.00  0.00     0.167 C 
ATOM     88  C   UNL     1      -2.159   1.812   0.000  1.00  0.00     0.011 C 
ATOM     89  C   UNL     1      -0.489   2.776   0.000  1.00  0.00     0.011 C 
ATOM     90  C   UNL     1       0.000  -5.196   0.000  1.00  0.00     0.013 C 
ATOM     91  C   UNL     1      -4.500  -7.794   0.000  1.00  0.00     0.012 C 
ATOM     92  C   UNL     1      -2.341  -9.606   0.000  1.00  0.00     0.027 C 
BRANCH  76  93
ATOM     93  C   UNL     1       0.337  -3.088  -1.072  1.00  0.00     0.168 C 
BRANCH  93  94
ATOM     94  O   UNL     1       0.750  -1.299   0.000  1.00  0.00    -0.395 OA
ATOM     95  H   UNL     1       1.059  -0.267  -1.420  1.00  0.00     0.210 HD
ENDBRANCH  93  94
ENDBRANCH  76  93
BRANCH  85  96
ATOM     96  O   UNL     1      -7.976  -7.804   0.184  1.00  0.00    -0.390 OA
ATOM     97  H   UNL     1      -8.298  -6.888  -0.015  1.00  0.00     0.211 HD
ENDBRANCH  85  96
BRANCH  86  98
ATOM     98  C   UNL     1      -3.852 -10.676   0.026  1.00  0.00     0.312 C 
ATOM     99  O   UNL     1      -4.051 -11.289   1.077  1.00  0.00    -0.252 OA
BRANCH  98 100
ATOM    100  O   UNL     1      -3.879 -11.360  -1.157  1.00  0.00    -0.481 OA
ATOM    101  H   UNL     1      -4.029 -12.314  -1.203  1.00  0.00     0.296 HD
ENDBRANCH  98 100
ENDBRANCH  86  98
BRANCH  87 102
ATOM    102  O   UNL     1      -6.302 -10.603  -0.872  1.00  0.00    -0.343 OA
BRANCH 102 103
ATOM    103  C   UNL     1      -7.582 -11.161  -0.569  1.00  0.00     0.282 C 
ATOM    104  O   UNL     1      -8.241 -10.640   0.576  1.00  0.00    -0.341 OA
ATOM    105  C   UNL     1      -7.515 -12.710  -0.442  1.00  0.00     0.202 C 
ATOM    106  C   UNL     1      -9.648 -10.952   0.543  1.00  0.00     0.178 C 
ATOM    107  C   UNL     1      -8.875 -13.280   0.066  1.00  0.00     0.179 C 
ATOM    108  C   UNL     1      -9.997 -12.278  -0.240  1.00  0.00     0.177 C 
BRANCH 105 109
ATOM    109  O   UNL     1      -6.492 -13.100   0.438  1.00  0.00    -0.385 OA
ATOM    110  H   UNL     1      -6.301 -14.057   0.247  1.00  0.00     0.211 HD
ENDBRANCH 105 109
BRANCH 106 111
ATOM    111  C   UNL     1     -10.399  -9.722   0.016  1.00  0.00     0.191 C 
BRANCH 111 112
ATOM    112  O   UNL     1     -11.782  -9.920  -0.001  1.00  0.00    -0.394 OA
ATOM    113  H   UNL     1     -12.164  -9.073  -0.355  1.00  0.00     0.210 HD
ENDBRANCH 111 112
ENDBRANCH 106 111
BRANCH 107 114
ATOM    114  O   UNL     1      -9.114 -14.530  -0.534  1.00  0.00    -0.387 OA
ATOM    115  H   UNL     1      -9.544 -15.113   0.145  1.00  0.00     0.211 HD
ENDBRANCH 107 114
BRANCH 108 116
ATOM    116  O   UNL     1     -11.239 -12.793   0.174  1.00  0.00    -0.387 OA
ATOM    117  H   UNL     1     -11.934 -12.373  -0.396  1.00  0.00     0.211 HD
ENDBRANCH 108 116
ENDBRANCH 102 103
ENDBRANCH  87 102
ENDBRANCH  64  66
ENDBRANCH  63  64
ENDBRANCH   4  63
TORSDOF 37
