REMARK SMILES CC1=C2[C@H](O)[C@@H](O)[C@]3(C)[C@H](O)C[C@@H](O)[C@@](O)(COC(=O)c4ccccc4)[C@H]3[C@@H](O)[C@]2(C(C)(C)O)C[C@@H]1O
REMARK SMILES IDX 8 1 9 2 10 3 12 4 13 5 15 6 27 7 28 8 30 9 2 10 3 11 36 12
REMARK SMILES IDX 35 13 1 14 37 16 31 18 32 19 33 20 34 21 29 23 16 25 17 27
REMARK SMILES IDX 18 28 19 29 20 30 21 31 22 32 26 33 23 34 25 35 24 36 6 37
REMARK SMILES IDX 4 38 5 40 7 42 14 44 11 46
REMARK H PARENT 37 17 34 22 29 24 16 26 5 41 7 43 14 45 11 47
REMARK Flexibility Score:   88.900
ROOT
ATOM      1  C   UNL     1      -0.089   2.084   0.775  1.00  0.00     0.031 C 
ATOM      2  C   UNL     1       1.141   2.147   1.765  1.00  0.00     0.017 C 
ATOM      3  C   UNL     1      -0.185   3.534   0.176  1.00  0.00     0.126 C 
ATOM      4  C   UNL     1       1.120   3.931  -0.600  1.00  0.00     0.067 C 
ATOM      5  C   UNL     1       1.829   2.776  -1.373  1.00  0.00     0.152 C 
ATOM      6  C   UNL     1       0.843   1.640  -1.791  1.00  0.00     0.130 C 
ATOM      7  C   UNL     1      -0.017   1.112  -0.518  1.00  0.00     0.068 C 
ENDROOT
BRANCH   7   8
ATOM      8  C   UNL     1      -0.105  -0.435  -0.247  1.00  0.00     0.134 C 
BRANCH   8   9
ATOM      9  C   UNL     1      -1.599  -1.026  -0.036  1.00  0.00     0.051 C 
ATOM     10  C   UNL     1      -3.873  -0.280  -0.364  1.00  0.00    -0.042 C 
ATOM     11  C   UNL     1      -2.726   0.011   0.310  1.00  0.00    -0.026 CG0
ATOM     12  C   UNL     1      -3.670  -1.338  -1.396  1.00  0.00     0.141 C 
ATOM     13  C   UNL     1      -2.140  -1.379  -1.467  1.00  0.00     0.053 C 
ATOM     14  C   UNL     1      -5.221   0.391  -0.211  1.00  0.00     0.042 C 
ATOM     15  G   UNL     1      -2.667   1.294   1.172  1.00  0.00     0.000 G0
BRANCH  12  16
ATOM     16  O   UNL     1      -4.207  -0.998  -2.654  1.00  0.00    -0.389 OA
ATOM     17  H   UNL     1      -3.975  -0.052  -2.854  1.00  0.00     0.211 HD
ENDBRANCH  12  16
BRANCH   9  18
ATOM     18  C   UNL     1      -1.694  -2.378   0.864  1.00  0.00     0.071 C 
ATOM     19  C   UNL     1      -0.638  -3.450   0.440  1.00  0.00     0.043 C 
ATOM     20  C   UNL     1      -1.527  -2.152   2.379  1.00  0.00     0.043 C 
BRANCH  18  21
ATOM     21  O   UNL     1      -2.987  -2.940   0.768  1.00  0.00    -0.389 OA
ATOM     22  H   UNL     1      -2.985  -3.710   0.140  1.00  0.00     0.211 HD
ENDBRANCH  18  21
ENDBRANCH   9  18
ENDBRANCH   8   9
BRANCH   8  23
ATOM     23  O   UNL     1       0.889  -0.847   0.645  1.00  0.00    -0.392 OA
ATOM     24  H   UNL     1       0.615  -0.607   1.545  1.00  0.00     0.211 HD
ENDBRANCH   8  23
ENDBRANCH   7   8
BRANCH   6  25
ATOM     25  O   UNL     1      -0.070   2.227  -2.705  1.00  0.00    -0.383 OA
ATOM     26  H   UNL     1       0.426   2.562  -3.499  1.00  0.00     0.211 HD
ENDBRANCH   6  25
BRANCH   6  27
ATOM     27  C   UNL     1       1.591   0.519  -2.585  1.00  0.00     0.271 C 
BRANCH  27  28
ATOM     28  O   UNL     1       2.463  -0.177  -1.773  1.00  0.00    -0.459 OA
BRANCH  28  29
ATOM     29  C   UNL     1       3.258  -1.204  -2.163  1.00  0.00     0.338 C 
ATOM     30  O   UNL     1       3.225  -1.607  -3.319  1.00  0.00    -0.246 OA
BRANCH  29  31
ATOM     31  C   UNL     1       4.178  -1.826  -1.177  1.00  0.00     0.060 A 
ATOM     32  C   UNL     1       4.215  -1.361   0.151  1.00  0.00     0.015 A 
ATOM     33  C   UNL     1       5.028  -2.885  -1.549  1.00  0.00     0.015 A 
ATOM     34  C   UNL     1       5.084  -1.936   1.083  1.00  0.00     0.001 A 
ATOM     35  C   UNL     1       5.896  -3.458  -0.611  1.00  0.00     0.001 A 
ATOM     36  C   UNL     1       5.923  -2.984   0.702  1.00  0.00     0.000 A 
ENDBRANCH  29  31
ENDBRANCH  28  29
ENDBRANCH  27  28
ENDBRANCH   6  27
BRANCH   1  37
ATOM     37  C   UNL     1      -1.298   1.690   1.750  1.00  0.00     0.156 C 
BRANCH  37  38
ATOM     38  C   UNL     1      -2.667   1.294   1.172  1.00  0.00     0.170 CG0
ATOM     39  G   UNL     1      -2.726   0.011   0.310  1.00  0.00     0.000 G0
BRANCH  38  40
ATOM     40  O   UNL     1      -3.202   2.413   0.501  1.00  0.00    -0.386 OA
ATOM     41  H   UNL     1      -3.182   2.257  -0.479  1.00  0.00     0.211 HD
ENDBRANCH  38  40
ENDBRANCH  37  38
BRANCH  37  42
ATOM     42  O   UNL     1      -0.921   0.669   2.635  1.00  0.00    -0.389 OA
ATOM     43  H   UNL     1      -1.326   0.861   3.523  1.00  0.00     0.211 HD
ENDBRANCH  37  42
ENDBRANCH   1  37
BRANCH   5  44
ATOM     44  O   UNL     1       2.963   2.312  -0.677  1.00  0.00    -0.390 OA
ATOM     45  H   UNL     1       2.748   1.472  -0.208  1.00  0.00     0.211 HD
ENDBRANCH   5  44
BRANCH   3  46
ATOM     46  O   UNL     1      -1.269   3.631  -0.711  1.00  0.00    -0.392 OA
ATOM     47  H   UNL     1      -1.418   4.594  -0.899  1.00  0.00     0.210 HD
ENDBRANCH   3  46
TORSDOF 13
