REMARK SMILES CCCn1cnc2c1CN(S(=O)(=O)c1cccc3cccnc13)[C@H](C(=O)OC)C2
REMARK SMILES IDX 4 1 5 2 6 3 7 4 8 5 9 6 10 7 24 8 29 9 3 10 2 11 1 12 11 13
REMARK SMILES IDX 12 14 13 15 14 16 15 17 23 18 16 19 22 20 18 21 17 22 21 23
REMARK SMILES IDX 19 24 20 25 25 26 26 27 27 28 28 29
REMARK H PARENT
ROOT
ATOM      1  N   UNL     1       3.211  -1.080  -0.907  1.00  0.00    -0.333 N 
ATOM      2  C   UNL     1       4.026  -0.355  -1.706  1.00  0.00     0.199 A 
ATOM      3  N   UNL     1       3.660   0.946  -1.773  1.00  0.00    -0.241 NA
ATOM      4  C   UNL     1       2.572   1.024  -0.984  1.00  0.00     0.065 A 
ATOM      5  C   UNL     1       2.280  -0.209  -0.470  1.00  0.00     0.056 A 
ATOM      6  C   UNL     1       1.071  -0.480   0.385  1.00  0.00     0.159 C 
ATOM      7  N   UNL     1       0.086   0.626   0.261  1.00  0.00    -0.177 NA
ATOM      8  C   UNL     1       0.737   1.956   0.422  1.00  0.00     0.189 C 
ATOM      9  C   UNL     1       1.769   2.255  -0.704  1.00  0.00     0.090 C 
ENDROOT
BRANCH   1  10
ATOM     10  C   UNL     1       3.321  -2.515  -0.634  1.00  0.00     0.123 C 
BRANCH  10  11
ATOM     11  C   UNL     1       3.714  -2.784   0.825  1.00  0.00     0.018 C 
ATOM     12  C   UNL     1       5.100  -2.220   1.144  1.00  0.00     0.006 C 
ENDBRANCH  10  11
ENDBRANCH   1  10
BRANCH   7  13
ATOM     13  S   UNL     1      -0.981   0.434  -1.185  1.00  0.00     0.246 S 
ATOM     14  O   UNL     1      -0.359  -0.658  -2.071  1.00  0.00    -0.207 OA
ATOM     15  O   UNL     1      -0.790   1.674  -2.069  1.00  0.00    -0.207 OA
BRANCH  13  16
ATOM     16  C   UNL     1      -2.730   0.137  -0.886  1.00  0.00     0.108 A 
ATOM     17  C   UNL     1      -3.678   1.036  -1.400  1.00  0.00     0.024 A 
ATOM     18  C   UNL     1      -3.163  -0.978  -0.148  1.00  0.00     0.090 A 
ATOM     19  C   UNL     1      -5.042   0.828  -1.185  1.00  0.00     0.002 A 
ATOM     20  N   UNL     1      -2.263  -1.865   0.362  1.00  0.00    -0.255 NA
ATOM     21  C   UNL     1      -4.546  -1.185   0.068  1.00  0.00     0.002 A 
ATOM     22  C   UNL     1      -5.479  -0.278  -0.454  1.00  0.00     0.010 A 
ATOM     23  C   UNL     1      -2.653  -2.951   1.079  1.00  0.00     0.112 A 
ATOM     24  C   UNL     1      -4.960  -2.302   0.805  1.00  0.00     0.012 A 
ATOM     25  C   UNL     1      -4.009  -3.189   1.313  1.00  0.00     0.021 A 
ENDBRANCH  13  16
ENDBRANCH   7  13
BRANCH   8  26
ATOM     26  C   UNL     1      -0.255   3.084   0.596  1.00  0.00     0.324 C 
ATOM     27  O   UNL     1      -1.459   2.867   0.560  1.00  0.00    -0.250 OA
BRANCH  26  28
ATOM     28  O   UNL     1       0.207   4.341   0.819  1.00  0.00    -0.468 OA
ATOM     29  C   UNL     1      -0.612   5.438   0.990  1.00  0.00     0.282 C 
ENDBRANCH  26  28
ENDBRANCH   8  26
TORSDOF 6
