REMARK SMILES CC(C)(O)[C@H]1CC[C@](C)([C@H]2CC[C@@]3(C)[C@]4(C)CC[C@H]5C(C)(C)C(=O)CC[C@]5(C)[C@H]4CC[C@]23C)O1
REMARK SMILES IDX 5 1 6 2 7 3 8 4 9 5 34 6 2 7 1 8 3 9 4 10 10 12 11 13 32 14
REMARK SMILES IDX 12 15 31 16 13 17 30 18 15 19 29 20 17 21 27 22 18 23 26 24
REMARK SMILES IDX 19 25 25 26 20 27 23 28 24 29 33 30 14 31 16 32 28 33 21 34
REMARK SMILES IDX 22 35
REMARK H PARENT 4 11
ROOT
ATOM      1  C   UNL     1      -5.681  -0.434   0.081  1.00  0.00     0.150 C 
ATOM      2  C   UNL     1      -5.715   0.661   1.145  1.00  0.00     0.038 C 
ATOM      3  C   UNL     1      -4.277   1.082   1.089  1.00  0.00     0.038 C 
ATOM      4  C   UNL     1      -3.570  -0.295   0.960  1.00  0.00     0.069 C 
ATOM      5  C   UNL     1      -3.328  -0.895   2.363  1.00  0.00     0.042 C 
ATOM      6  O   UNL     1      -4.485  -1.157   0.293  1.00  0.00    -0.369 OA
ENDROOT
BRANCH   1   7
ATOM      7  C   UNL     1      -6.901  -1.396   0.031  1.00  0.00     0.085 C 
ATOM      8  C   UNL     1      -7.091  -2.145   1.369  1.00  0.00     0.044 C 
ATOM      9  C   UNL     1      -8.180  -0.612  -0.324  1.00  0.00     0.044 C 
BRANCH   7  10
ATOM     10  O   UNL     1      -6.642  -2.334  -0.989  1.00  0.00    -0.388 OA
ATOM     11  H   UNL     1      -7.406  -2.968  -1.034  1.00  0.00     0.211 HD
ENDBRANCH   7  10
ENDBRANCH   1   7
BRANCH   4  12
ATOM     12  C   UNL     1      -2.242  -0.296   0.111  1.00  0.00     0.027 C 
ATOM     13  C   UNL     1      -2.426   0.186  -1.375  1.00  0.00     0.008 C 
ATOM     14  C   UNL     1      -0.841   0.284   0.511  1.00  0.00    -0.021 C 
ATOM     15  C   UNL     1      -1.053   0.744  -1.838  1.00  0.00     0.008 C 
ATOM     16  C   UNL     1      -0.030  -0.466   1.603  1.00  0.00     0.008 C 
ATOM     17  C   UNL     1      -0.042   0.110  -0.875  1.00  0.00    -0.021 C 
ATOM     18  C   UNL     1       1.427   0.082   1.710  1.00  0.00     0.005 C 
ATOM     19  C   UNL     1       1.469   0.715  -0.830  1.00  0.00    -0.023 C 
ATOM     20  C   UNL     1       2.222  -0.027   0.364  1.00  0.00     0.002 C 
ATOM     21  C   UNL     1       2.266   0.412  -2.147  1.00  0.00     0.008 C 
ATOM     22  C   UNL     1       3.791   0.210   0.493  1.00  0.00    -0.025 C 
ATOM     23  C   UNL     1       3.766   0.764  -2.068  1.00  0.00     0.006 C 
ATOM     24  C   UNL     1       4.379  -0.851   1.515  1.00  0.00     0.015 C 
ATOM     25  C   UNL     1       4.457  -0.035  -0.932  1.00  0.00     0.008 C 
ATOM     26  C   UNL     1       5.711  -1.490   1.087  1.00  0.00     0.077 C 
ATOM     27  C   UNL     1       6.044   0.101  -0.942  1.00  0.00     0.027 C 
ATOM     28  C   UNL     1       6.592  -0.545   0.327  1.00  0.00     0.138 C 
ATOM     29  O   UNL     1       7.761  -0.406   0.654  1.00  0.00    -0.299 OA
ATOM     30  C   UNL     1      -1.138   1.723   1.057  1.00  0.00     0.012 C 
ATOM     31  C   UNL     1       0.037  -1.415  -1.368  1.00  0.00     0.012 C 
ATOM     32  C   UNL     1       1.462   2.276  -0.709  1.00  0.00     0.012 C 
ATOM     33  C   UNL     1       4.134   1.603   1.092  1.00  0.00     0.012 C 
ATOM     34  C   UNL     1       6.633  -0.673  -2.147  1.00  0.00     0.020 C 
ATOM     35  C   UNL     1       6.559   1.564  -1.072  1.00  0.00     0.020 C 
ENDBRANCH   4  12
TORSDOF 3
