REMARK SMILES CCCc1nnc([C@H]2CCN(CCCc3ccccc3)C2)o1
REMARK SMILES IDX 8 1 9 2 10 3 11 4 21 5 7 6 4 7 5 8 22 9 6 10 3 11 2 12 1 13
REMARK SMILES IDX 12 14 13 15 14 16 15 17 16 18 20 19 17 20 19 21 18 22
REMARK H PARENT
ROOT
ATOM      1  C   UNL     1       1.259  -0.348  -0.680  1.00  0.00     0.093 C 
ATOM      2  C   UNL     1       0.941  -1.313  -1.825  1.00  0.00     0.030 C 
ATOM      3  C   UNL     1      -0.330  -2.008  -1.363  1.00  0.00     0.085 C 
ATOM      4  N   UNL     1      -1.065  -1.013  -0.561  1.00  0.00    -0.303 NA
ATOM      5  C   UNL     1       0.018  -0.414   0.229  1.00  0.00     0.098 C 
ENDROOT
BRANCH   1   6
ATOM      6  C   UNL     1       2.520  -0.695   0.055  1.00  0.00     0.220 A 
ATOM      7  C   UNL     1       4.434  -0.570   0.866  1.00  0.00     0.216 A 
ATOM      8  N   UNL     1       3.976  -1.801   1.161  1.00  0.00    -0.113 NA
ATOM      9  O   UNL     1       3.542   0.115   0.189  1.00  0.00    -0.425 OA
ATOM     10  N   UNL     1       2.760  -1.882   0.645  1.00  0.00    -0.113 NA
BRANCH   7  11
ATOM     11  C   UNL     1       5.787  -0.069   1.284  1.00  0.00     0.099 C 
BRANCH  11  12
ATOM     12  C   UNL     1       6.069   1.384   0.871  1.00  0.00     0.006 C 
ATOM     13  C   UNL     1       6.166   1.575  -0.645  1.00  0.00     0.004 C 
ENDBRANCH  11  12
ENDBRANCH   7  11
ENDBRANCH   1   6
BRANCH   4  14
ATOM     14  C   UNL     1      -1.796  -0.007  -1.367  1.00  0.00     0.085 C 
BRANCH  14  15
ATOM     15  C   UNL     1      -3.091  -0.599  -1.958  1.00  0.00     0.020 C 
BRANCH  15  16
ATOM     16  C   UNL     1      -4.029  -1.151  -0.870  1.00  0.00     0.037 C 
BRANCH  16  17
ATOM     17  C   UNL     1      -4.509  -0.070   0.068  1.00  0.00    -0.048 A 
ATOM     18  C   UNL     1      -4.135  -0.082   1.422  1.00  0.00     0.004 A 
ATOM     19  C   UNL     1      -5.338   0.962  -0.407  1.00  0.00     0.004 A 
ATOM     20  C   UNL     1      -4.577   0.927   2.284  1.00  0.00     0.000 A 
ATOM     21  C   UNL     1      -5.782   1.965   0.460  1.00  0.00     0.000 A 
ATOM     22  C   UNL     1      -5.401   1.948   1.804  1.00  0.00     0.000 A 
ENDBRANCH  16  17
ENDBRANCH  15  16
ENDBRANCH  14  15
ENDBRANCH   4  14
TORSDOF 7
