REMARK SMILES C[C@H]1C[C@@H]1/C=C/CC/C=C/C=C[C@@H]1CC=CC(=O)O1
REMARK SMILES IDX 7 1 6 2 5 3 4 4 2 5 3 6 1 7 8 8 9 9 10 10 11 11 12 12 13 13
REMARK SMILES IDX 14 14 19 15 15 16 17 17 16 18 18 19
REMARK H PARENT
ROOT
ATOM      1  C   UNL     1       1.182   1.142   0.403  1.00  0.00     0.031 C 
ENDROOT
BRANCH   1   2
ATOM      2  C   UNL     1       2.671   0.892   0.295  1.00  0.00    -0.031 C 
ATOM      3  C   UNL     1       3.283   0.220  -0.693  1.00  0.00    -0.028 C 
BRANCH   3   4
ATOM      4  C   UNL     1       4.785   0.121  -0.686  1.00  0.00     0.014 C 
ATOM      5  C   UNL     1       5.490   0.842  -1.820  1.00  0.00    -0.007 C 
ATOM      6  C   UNL     1       5.295  -0.661  -1.911  1.00  0.00     0.012 C 
ATOM      7  C   UNL     1       6.854   1.383  -1.387  1.00  0.00     0.008 C 
ENDBRANCH   3   4
ENDBRANCH   1   2
BRANCH   1   8
ATOM      8  C   UNL     1       0.313   0.543  -0.714  1.00  0.00     0.031 C 
BRANCH   8   9
ATOM      9  C   UNL     1      -1.095   1.061  -0.586  1.00  0.00    -0.027 C 
ATOM     10  C   UNL     1      -2.164   0.273  -0.393  1.00  0.00    -0.005 C 
BRANCH  10  11
ATOM     11  C   UNL     1      -3.511   0.895  -0.305  1.00  0.00    -0.001 C 
ATOM     12  C   UNL     1      -4.696   0.297  -0.057  1.00  0.00     0.018 C 
BRANCH  12  13
ATOM     13  C   UNL     1      -5.024  -1.156   0.259  1.00  0.00     0.203 C 
ATOM     14  C   UNL     1      -5.904  -1.230   1.523  1.00  0.00     0.077 C 
ATOM     15  O   UNL     1      -3.909  -1.966   0.448  1.00  0.00    -0.455 OA
ATOM     16  C   UNL     1      -5.085  -0.897   2.746  1.00  0.00    -0.015 C 
ATOM     17  C   UNL     1      -3.246  -2.019   1.640  1.00  0.00     0.331 C 
ATOM     18  C   UNL     1      -3.823  -1.341   2.823  1.00  0.00     0.089 C 
ATOM     19  O   UNL     1      -2.161  -2.573   1.714  1.00  0.00    -0.247 OA
ENDBRANCH  12  13
ENDBRANCH  10  11
ENDBRANCH   8   9
ENDBRANCH   1   8
TORSDOF 6
