REMARK SMILES Oc1ccc2c(c1)O[C@@H](c1ccc(O)c(O)c1)[C@H](O)[C@H]2c1c(O)cc(O)c2c1O[C@H](c1ccc(O)c(O)c1)[C@H](O)C2
REMARK SMILES IDX 2 1 3 2 4 3 5 4 6 5 7 6 8 7 9 8 18 9 20 10 1 11 21 13 22 14
REMARK SMILES IDX 28 15 24 16 27 17 29 18 25 19 41 20 30 21 39 22 23 23 26 25
REMARK SMILES IDX 31 27 32 28 38 29 33 30 36 31 34 32 37 33 35 35 40 37 10 39
REMARK SMILES IDX 11 40 17 41 12 42 15 43 13 44 16 45 14 47 19 49
REMARK H PARENT 1 12 23 24 26 26 37 34 35 36 40 38 16 46 14 48 19 50
ROOT
ATOM      1  C   UNL     1      -0.514  -0.387   4.223  1.00  0.00     0.119 A 
ATOM      2  C   UNL     1       0.630   0.091   3.568  1.00  0.00     0.047 A 
ATOM      3  C   UNL     1       0.610   0.317   2.190  1.00  0.00     0.012 A 
ATOM      4  C   UNL     1      -0.560   0.067   1.448  1.00  0.00     0.005 A 
ATOM      5  C   UNL     1      -1.711  -0.402   2.112  1.00  0.00     0.128 A 
ATOM      6  C   UNL     1      -1.680  -0.630   3.491  1.00  0.00     0.092 A 
ATOM      7  O   UNL     1      -2.862  -0.634   1.430  1.00  0.00    -0.483 OA
ATOM      8  C   UNL     1      -3.130  -0.265   0.114  1.00  0.00     0.233 C 
ATOM      9  C   UNL     1      -2.055   0.728  -0.435  1.00  0.00     0.172 C 
ATOM     10  C   UNL     1      -0.640   0.226  -0.055  1.00  0.00     0.093 C 
ENDROOT
BRANCH   1  11
ATOM     11  O   UNL     1      -0.504  -0.618   5.551  1.00  0.00    -0.508 OA
ATOM     12  H   UNL     1       0.284  -0.468   6.093  1.00  0.00     0.293 HD
ENDBRANCH   1  11
BRANCH  10  13
ATOM     13  C   UNL     1       0.510   1.040  -0.671  1.00  0.00     0.047 A 
ATOM     14  C   UNL     1       0.706   2.431  -0.429  1.00  0.00     0.126 A 
ATOM     15  C   UNL     1       1.452   0.366  -1.487  1.00  0.00     0.135 A 
ATOM     16  C   UNL     1       1.769   3.105  -1.039  1.00  0.00     0.093 A 
ATOM     17  C   UNL     1       2.527   1.061  -2.086  1.00  0.00     0.039 A 
ATOM     18  O   UNL     1       1.362  -0.977  -1.654  1.00  0.00    -0.482 OA
ATOM     19  C   UNL     1       2.676   2.434  -1.862  1.00  0.00     0.126 A 
ATOM     20  C   UNL     1       3.549   0.312  -2.923  1.00  0.00     0.079 C 
ATOM     21  C   UNL     1       2.470  -1.767  -1.909  1.00  0.00     0.232 C 
ATOM     22  C   UNL     1       3.157  -1.169  -3.154  1.00  0.00     0.164 C 
BRANCH  14  23
ATOM     23  O   UNL     1      -0.074   3.155   0.403  1.00  0.00    -0.507 OA
ATOM     24  H   UNL     1      -0.725   2.784   1.006  1.00  0.00     0.293 HD
ENDBRANCH  14  23
BRANCH  19  25
ATOM     25  O   UNL     1       3.707   3.102  -2.425  1.00  0.00    -0.507 OA
ATOM     26  H   UNL     1       3.846   4.049  -2.287  1.00  0.00     0.293 HD
ENDBRANCH  19  25
BRANCH  21  27
ATOM     27  C   UNL     1       3.285  -1.886  -0.617  1.00  0.00    -0.001 A 
ATOM     28  C   UNL     1       2.593  -2.266   0.550  1.00  0.00     0.012 A 
ATOM     29  C   UNL     1       4.668  -1.625  -0.517  1.00  0.00     0.057 A 
ATOM     30  C   UNL     1       3.248  -2.353   1.778  1.00  0.00     0.050 A 
ATOM     31  C   UNL     1       5.330  -1.715   0.715  1.00  0.00     0.157 A 
ATOM     32  C   UNL     1       4.616  -2.074   1.871  1.00  0.00     0.157 A 
BRANCH  31  33
ATOM     33  O   UNL     1       6.652  -1.447   0.765  1.00  0.00    -0.504 OA
ATOM     34  H   UNL     1       7.163  -1.486   1.586  1.00  0.00     0.293 HD
ENDBRANCH  31  33
BRANCH  32  35
ATOM     35  O   UNL     1       5.247  -2.149   3.061  1.00  0.00    -0.504 OA
ATOM     36  H   UNL     1       4.782  -2.382   3.878  1.00  0.00     0.293 HD
ENDBRANCH  32  35
ENDBRANCH  21  27
BRANCH  22  37
ATOM     37  O   UNL     1       4.253  -1.941  -3.566  1.00  0.00    -0.389 OA
ATOM     38  H   UNL     1       4.477  -1.649  -4.488  1.00  0.00     0.211 HD
ENDBRANCH  22  37
ENDBRANCH  10  13
BRANCH   8  39
ATOM     39  C   UNL     1      -4.566   0.242   0.055  1.00  0.00    -0.001 A 
ATOM     40  C   UNL     1      -4.930   1.537  -0.374  1.00  0.00     0.012 A 
ATOM     41  C   UNL     1      -5.585  -0.632   0.477  1.00  0.00     0.057 A 
ATOM     42  C   UNL     1      -6.268   1.939  -0.366  1.00  0.00     0.050 A 
ATOM     43  C   UNL     1      -6.927  -0.234   0.484  1.00  0.00     0.157 A 
ATOM     44  C   UNL     1      -7.272   1.062   0.064  1.00  0.00     0.157 A 
BRANCH  43  45
ATOM     45  O   UNL     1      -7.866  -1.108   0.903  1.00  0.00    -0.504 OA
ATOM     46  H   UNL     1      -8.808  -0.890   0.933  1.00  0.00     0.293 HD
ENDBRANCH  43  45
BRANCH  44  47
ATOM     47  O   UNL     1      -8.562   1.457   0.079  1.00  0.00    -0.504 OA
ATOM     48  H   UNL     1      -8.832   2.346  -0.192  1.00  0.00     0.293 HD
ENDBRANCH  44  47
ENDBRANCH   8  39
BRANCH   9  49
ATOM     49  O   UNL     1      -2.192   0.898  -1.825  1.00  0.00    -0.388 OA
ATOM     50  H   UNL     1      -2.006   0.022  -2.254  1.00  0.00     0.211 HD
ENDBRANCH   9  49
TORSDOF 12
