REMARK SMILES CCCCCCCC=CC(=O)N1CCCCC1
REMARK SMILES IDX 5 1 4 2 3 3 2 4 1 5 6 6 7 7 8 8 9 9 10 10 11 11 12 12 13 13
REMARK SMILES IDX 17 14 14 15 16 16 15 17
REMARK H PARENT
ROOT
ATOM      1  C   UNL     1       2.951  -0.291   0.011  1.00  0.00     0.000 C 
ENDROOT
BRANCH   1   2
ATOM      2  C   UNL     1       3.732  -1.553   0.410  1.00  0.00     0.000 C 
BRANCH   2   3
ATOM      3  C   UNL     1       4.943  -1.833  -0.496  1.00  0.00    -0.000 C 
BRANCH   3   4
ATOM      4  C   UNL     1       6.026  -0.746  -0.407  1.00  0.00    -0.003 C 
ATOM      5  C   UNL     1       7.238  -1.107  -1.260  1.00  0.00     0.004 C 
ENDBRANCH   3   4
ENDBRANCH   2   3
ENDBRANCH   1   2
BRANCH   1   6
ATOM      6  C   UNL     1       1.746  -0.082   0.935  1.00  0.00     0.004 C 
BRANCH   6   7
ATOM      7  C   UNL     1       0.949   1.165   0.536  1.00  0.00     0.027 C 
BRANCH   7   8
ATOM      8  C   UNL     1      -0.187   1.371   1.513  1.00  0.00    -0.021 C 
ATOM      9  C   UNL     1      -1.518   1.341   1.276  1.00  0.00     0.067 C 
BRANCH   9  10
ATOM     10  C   UNL     1      -2.217   1.099  -0.033  1.00  0.00     0.246 C 
ATOM     11  O   UNL     1      -1.555   1.038  -1.058  1.00  0.00    -0.270 OA
ATOM     12  N   UNL     1      -3.583   0.915  -0.113  1.00  0.00    -0.339 N 
ATOM     13  C   UNL     1      -4.139   0.550  -1.426  1.00  0.00     0.120 C 
ATOM     14  C   UNL     1      -4.388   0.893   1.121  1.00  0.00     0.120 C 
ATOM     15  C   UNL     1      -5.657   0.353  -1.472  1.00  0.00     0.022 C 
ATOM     16  C   UNL     1      -5.890   0.686   0.923  1.00  0.00     0.022 C 
ATOM     17  C   UNL     1      -6.167  -0.305  -0.196  1.00  0.00     0.004 C 
ENDBRANCH   9  10
ENDBRANCH   7   8
ENDBRANCH   6   7
ENDBRANCH   1   6
TORSDOF 7
