REMARK SMILES COc1cc2cc(c1O)CN1C[C@@H](CCN=C(N)NCSSCCCCCC[C@H](O)C[C@H](OC(C)=O)CC2)CC1=O
REMARK SMILES IDX 11 1 12 2 13 3 39 4 40 5 41 6 10 7 7 8 3 9 4 10 8 11 5 12
REMARK SMILES IDX 6 13 2 14 1 15 9 16 38 18 37 19 32 20 31 21 29 22 28 23
REMARK SMILES IDX 27 24 26 25 30 27 33 29 34 30 36 31 35 32 14 33 15 34 16 35
REMARK SMILES IDX 17 36 18 37 19 38 20 42 21 43 22 44 23 45 24 46 25 47
REMARK H PARENT 9 17 30 28 18 39 18 40 19 41
REMARK Flexibility Score:  119.900
ROOT
ATOM      1  N   UNL     1      -3.012  -3.498   1.087  1.00  0.00    -0.338 N 
ATOM      2  C   UNL     1      -3.718  -2.329   1.559  1.00  0.00     0.124 C 
ATOM      3  C   UNL     1      -4.667  -2.004   0.387  1.00  0.00     0.020 C 
ATOM      4  C   UNL     1      -3.962  -2.558  -0.856  1.00  0.00     0.105 C 
ATOM      5  C   UNL     1      -3.177  -3.658  -0.246  1.00  0.00     0.223 C 
ATOM      6  O   UNL     1      -2.594  -4.516  -0.896  1.00  0.00    -0.275 OA
ENDROOT
BRANCH   1   7
ATOM      7  C   UNL     1      -2.115  -4.299   1.906  1.00  0.00     0.159 C 
BRANCH   7   8
ATOM      8  C   UNL     1      -0.701  -4.221   1.350  1.00  0.00     0.017 A 
ATOM      9  C   UNL     1       1.280  -5.177   0.269  1.00  0.00     0.161 A 
ATOM     10  C   UNL     1       1.870  -3.906   0.258  1.00  0.00     0.054 A 
ATOM     11  C   UNL     1      -0.002  -5.344   0.818  1.00  0.00     0.162 A 
ATOM     12  C   UNL     1       1.204  -2.796   0.787  1.00  0.00    -0.044 A 
ATOM     13  C   UNL     1      -0.077  -2.956   1.327  1.00  0.00     0.013 A 
BRANCH   9  14
ATOM     14  O   UNL     1       1.906  -6.261  -0.268  1.00  0.00    -0.493 OA
ATOM     15  C   UNL     1       3.124  -6.246  -0.919  1.00  0.00     0.278 C 
ENDBRANCH   9  14
BRANCH  11  16
ATOM     16  O   UNL     1      -0.526  -6.592   0.785  1.00  0.00    -0.504 OA
ATOM     17  H   UNL     1      -1.396  -6.848   1.107  1.00  0.00     0.293 HD
ENDBRANCH  11  16
BRANCH  12  18
ATOM     18  C   UNL     1       1.869  -1.446   0.695  1.00  0.00     0.039 C 
BRANCH  18  19
ATOM     19  C   UNL     1       3.189  -1.375   1.501  1.00  0.00     0.050 C 
BRANCH  19  20
ATOM     20  C   UNL     1       4.142  -0.279   0.980  1.00  0.00     0.179 C 
BRANCH  20  21
ATOM     21  C   UNL     1       3.535   1.139   1.068  1.00  0.00     0.077 C 
BRANCH  21  22
ATOM     22  C   UNL     1       4.440   2.233   0.435  1.00  0.00     0.118 C 
BRANCH  22  23
ATOM     23  C   UNL     1       3.939   3.667   0.721  1.00  0.00     0.032 C 
BRANCH  23  24
ATOM     24  C   UNL     1       2.448   3.977   0.461  1.00  0.00     0.003 C 
BRANCH  24  25
ATOM     25  C   UNL     1       1.953   3.762  -0.982  1.00  0.00     0.000 CG0
ATOM     26  G   UNL     1       0.454   4.082  -1.138  1.00  0.00     0.000 G0
ENDBRANCH  24  25
ENDBRANCH  23  24
ENDBRANCH  22  23
BRANCH  22  27
ATOM     27  O   UNL     1       4.638   2.059  -0.951  1.00  0.00    -0.393 OA
ATOM     28  H   UNL     1       3.873   1.570  -1.344  1.00  0.00     0.210 HD
ENDBRANCH  22  27
ENDBRANCH  21  22
ENDBRANCH  20  21
BRANCH  20  29
ATOM     29  O   UNL     1       4.457  -0.599  -0.332  1.00  0.00    -0.462 OA
BRANCH  29  30
ATOM     30  C   UNL     1       5.685  -0.950  -0.795  1.00  0.00     0.302 C 
ATOM     31  O   UNL     1       6.663  -0.959  -0.061  1.00  0.00    -0.253 OA
ATOM     32  C   UNL     1       5.836  -1.355  -2.225  1.00  0.00     0.139 C 
ENDBRANCH  29  30
ENDBRANCH  20  29
ENDBRANCH  19  20
ENDBRANCH  18  19
ENDBRANCH  12  18
ENDBRANCH   7   8
ENDBRANCH   1   7
BRANCH   3  33
ATOM     33  C   UNL     1      -5.194  -0.557   0.254  1.00  0.00     0.029 C 
BRANCH  33  34
ATOM     34  C   UNL     1      -4.067   0.497   0.357  1.00  0.00     0.146 C 
BRANCH  34  35
ATOM     35  N   UNL     1      -4.439   1.817  -0.115  1.00  0.00    -0.253 NA
ATOM     36  C   UNL     1      -5.318   2.644   0.348  1.00  0.00     0.189 C 
ATOM     37  N   UNL     1      -6.125   2.325   1.477  1.00  0.00    -0.370 N 
ATOM     38  N   UNL     1      -5.489   3.931  -0.261  1.00  0.00    -0.347 N 
ATOM     39  H   UNL     1      -5.988   1.476   2.034  1.00  0.00     0.159 HD
ATOM     40  H   UNL     1      -6.839   2.994   1.801  1.00  0.00     0.159 HD
ATOM     41  H   UNL     1      -6.273   4.504   0.085  1.00  0.00     0.164 HD
BRANCH  38  42
ATOM     42  C   UNL     1      -4.650   4.583  -1.268  1.00  0.00     0.198 C 
BRANCH  42  43
ATOM     43  S   UNL     1      -3.160   3.656  -1.812  1.00  0.00    -0.073 SA
BRANCH  43  44
ATOM     44  S   UNL     1      -2.163   5.369  -2.625  1.00  0.00    -0.092 SA
BRANCH  44  45
ATOM     45  C   UNL     1      -1.373   5.864  -1.048  1.00  0.00     0.082 C 
BRANCH  45  46
ATOM     46  C   UNL     1       0.133   5.581  -1.011  1.00  0.00     0.012 C 
BRANCH  46  47
ATOM     47  C   UNL     1       0.454   4.082  -1.138  1.00  0.00     0.001 CG0
ATOM     48  G   UNL     1       1.953   3.762  -0.982  1.00  0.00     0.000 G0
ENDBRANCH  46  47
ENDBRANCH  45  46
ENDBRANCH  44  45
ENDBRANCH  43  44
ENDBRANCH  42  43
ENDBRANCH  38  42
ENDBRANCH  34  35
ENDBRANCH  33  34
ENDBRANCH   3  33
TORSDOF 5
