REMARK SMILES C=C[C@H]1C[C@@H](O)[C@H]2[C@@H]3CCC4=CC(=O)CC[C@]4(C)[C@H]3CC[C@@]21C
REMARK SMILES IDX 3 1 4 2 5 3 7 4 8 5 9 6 10 7 11 8 12 9 13 10 14 11 15 12
REMARK SMILES IDX 16 13 17 14 18 15 19 16 20 17 21 18 22 19 23 20 2 21 1 22
REMARK SMILES IDX 6 23
REMARK H PARENT 6 24
ROOT
ATOM      1  C   UNL     1       3.299   0.093   0.690  1.00  0.00     0.020 C 
ATOM      2  C   UNL     1       3.680   0.845  -0.611  1.00  0.00     0.040 C 
ATOM      3  C   UNL     1       2.336   1.363  -1.190  1.00  0.00     0.119 C 
ATOM      4  C   UNL     1       1.257   0.701  -0.292  1.00  0.00     0.028 C 
ATOM      5  C   UNL     1      -0.181   0.451  -0.796  1.00  0.00    -0.001 C 
ATOM      6  C   UNL     1      -0.808   1.761  -1.343  1.00  0.00     0.009 C 
ATOM      7  C   UNL     1      -2.275   1.575  -1.766  1.00  0.00     0.032 C 
ATOM      8  C   UNL     1      -3.013   0.998  -0.583  1.00  0.00    -0.060 C 
ATOM      9  C   UNL     1      -3.978   1.723   0.028  1.00  0.00     0.047 C 
ATOM     10  C   UNL     1      -4.561   1.271   1.304  1.00  0.00     0.155 C 
ATOM     11  O   UNL     1      -5.582   1.782   1.736  1.00  0.00    -0.295 OA
ATOM     12  C   UNL     1      -3.852   0.196   2.077  1.00  0.00     0.081 C 
ATOM     13  C   UNL     1      -3.484  -0.894   1.087  1.00  0.00     0.019 C 
ATOM     14  C   UNL     1      -2.533  -0.367  -0.051  1.00  0.00    -0.008 C 
ATOM     15  C   UNL     1      -2.614  -1.448  -1.168  1.00  0.00     0.016 C 
ATOM     16  C   UNL     1      -1.046  -0.107   0.407  1.00  0.00     0.002 C 
ATOM     17  C   UNL     1      -0.365  -1.327   1.097  1.00  0.00     0.005 C 
ATOM     18  C   UNL     1       1.083  -0.998   1.530  1.00  0.00     0.008 C 
ATOM     19  C   UNL     1       1.933  -0.540   0.319  1.00  0.00    -0.021 C 
ATOM     20  C   UNL     1       2.116  -1.747  -0.664  1.00  0.00     0.012 C 
ENDROOT
BRANCH   1  21
ATOM     21  C   UNL     1       4.314  -0.872   1.271  1.00  0.00    -0.031 C 
ATOM     22  C   UNL     1       5.524  -1.113   0.750  1.00  0.00     0.004 C 
ENDBRANCH   1  21
BRANCH   3  23
ATOM     23  O   UNL     1       2.235   1.075  -2.565  1.00  0.00    -0.393 OA
ATOM     24  H   UNL     1       1.885   0.157  -2.681  1.00  0.00     0.210 HD
ENDBRANCH   3  23
TORSDOF 2
