REMARK SMILES O=C1O[C@@H]2O[C@@H]3COC(=O)c4cc(O)c(O)c(O)c4-c4c(cc(O)c(O)c4O)C(=O)O[C@H]3[C@H](OC(=O)c3cc(O)c(O)c(O)c3)[C@H]2OC(=O)c2cc(O)c(O)c(O)c2Oc2cc(cc(O)c2O)C(=O)O[C@@H]2O[C@@H]3COC(=O)c4cc(O)c(O)c(O)c4-c4c(cc(O)c(O)c4O)C(=O)O[C@H]3[C@H](OC(=O)c3cc(O)c(O)c(O)c3)[C@H]2OC(=O)c2cc(O)c(O)c(O)c2Oc2c(O)cc1cc2O
REMARK SMILES IDX 1 1 2 2 3 3 4 4 5 5 6 6 32 7 33 8 46 9 47 10 48 11 49 12
REMARK SMILES IDX 50 13 51 14 52 15 54 16 56 17 58 18 59 19 60 20 61 21 62 22
REMARK SMILES IDX 63 23 64 24 66 25 68 26 69 27 70 28 71 29 72 30 73 31 99 32
REMARK SMILES IDX 100 33 113 34 114 35 115 36 116 37 117 38 118 39 119 40
REMARK SMILES IDX 121 41 123 42 125 43 126 44 127 45 128 46 130 47 131 48
REMARK SMILES IDX 132 49 133 50 129 53 134 55 34 57 35 58 36 59 37 60 38 61
REMARK SMILES IDX 45 62 39 63 43 64 41 65 40 66 44 68 42 70 31 72 29 73 30 74
REMARK SMILES IDX 21 75 20 76 22 77 27 78 23 79 25 80 19 81 17 82 11 83 15 84
REMARK SMILES IDX 12 85 13 86 18 87 9 89 10 90 8 91 7 92 16 94 14 96 28 98
REMARK SMILES IDX 24 100 26 102 124 104 53 106 57 108 122 110 55 112 120 114
REMARK SMILES IDX 67 116 65 118 101 120 102 121 103 122 104 123 105 124
REMARK SMILES IDX 112 125 106 126 110 127 108 128 107 129 111 131 109 133
REMARK SMILES IDX 98 135 96 136 97 137 88 138 87 139 89 140 94 141 90 142
REMARK SMILES IDX 92 143 86 144 84 145 78 146 82 147 79 148 80 149 85 150
REMARK SMILES IDX 76 152 77 153 75 154 74 155 83 157 81 159 95 161 91 163
REMARK SMILES IDX 93 165
REMARK H PARENT 129 54 134 56 40 67 44 69 42 71 18 88 16 95 14 97 28 99 24 101
REMARK H PARENT 26 103 124 105 53 107 57 109 122 111 55 113 120 115 67 117
REMARK H PARENT 65 119 107 130 111 132 109 134 85 151 83 158 81 160 95 162
REMARK H PARENT 91 164 93 166
REMARK Flexibility Score:  202.800
ROOT
ATOM      1  O   UNL     1      -3.532   3.194  -0.563  1.00  0.00    -0.246 OA
ATOM      2  C   UNL     1      -3.178   2.631   0.460  1.00  0.00     0.340 C 
ATOM      3  O   UNL     1      -4.048   1.839   1.148  1.00  0.00    -0.428 OA
ATOM      4  C   UNL     1      -5.314   1.437   0.735  1.00  0.00     0.357 C 
ATOM      5  O   UNL     1      -6.022   1.040   1.901  1.00  0.00    -0.329 OA
ATOM      6  C   UNL     1      -7.367   0.731   1.582  1.00  0.00     0.205 CG0
ATOM      7  C   UNL     1      -7.400  -0.540   0.718  1.00  0.00     0.254 C 
ATOM      8  C   UNL     1      -6.626  -0.350  -0.600  1.00  0.00     0.267 C 
ATOM      9  C   UNL     1      -5.221   0.229  -0.261  1.00  0.00     0.290 C 
ATOM     10  O   UNL     1      -4.502   0.552  -1.408  1.00  0.00    -0.448 OA
ATOM     11  C   UNL     1      -4.791   1.514  -2.335  1.00  0.00     0.342 C 
ATOM     12  O   UNL     1      -5.858   2.110  -2.287  1.00  0.00    -0.246 OA
ATOM     13  C   UNL     1      -3.746   1.950  -3.322  1.00  0.00     0.110 A 
ATOM     14  C   UNL     1      -3.983   3.093  -4.100  1.00  0.00     0.070 A 
ATOM     15  C   UNL     1      -3.031   3.552  -5.012  1.00  0.00     0.162 A 
ATOM     16  C   UNL     1      -1.817   2.858  -5.166  1.00  0.00     0.204 A 
ATOM     17  C   UNL     1      -1.554   1.705  -4.388  1.00  0.00     0.206 A 
ATOM     18  C   UNL     1      -2.515   1.259  -3.460  1.00  0.00     0.187 A 
ATOM     19  O   UNL     1      -2.377   0.138  -2.717  1.00  0.00    -0.448 OA
ATOM     20  C   UNL     1      -1.457  -0.527  -1.970  1.00  0.00     0.174 A 
ATOM     21  C   UNL     1      -0.137  -0.103  -1.649  1.00  0.00     0.067 A 
ATOM     22  C   UNL     1       0.648  -0.888  -0.750  1.00  0.00     0.067 A 
ATOM     23  C   UNL     1       0.087  -2.055  -0.200  1.00  0.00     0.066 A 
ATOM     24  C   UNL     1      -1.194  -2.475  -0.538  1.00  0.00     0.162 A 
ATOM     25  C   UNL     1      -1.951  -1.713  -1.426  1.00  0.00     0.201 A 
ATOM     26  C   UNL     1       2.061  -0.577  -0.362  1.00  0.00     0.340 C 
ATOM     27  O   UNL     1       2.601  -1.254   0.506  1.00  0.00    -0.246 OA
ATOM     28  O   UNL     1       2.801   0.317  -1.052  1.00  0.00    -0.428 OA
ATOM     29  C   UNL     1       4.197   0.332  -1.080  1.00  0.00     0.357 C 
ATOM     30  O   UNL     1       4.670  -0.986  -1.417  1.00  0.00    -0.329 OA
ATOM     31  C   UNL     1       6.102  -1.131  -1.475  1.00  0.00     0.205 CG1
ATOM     32  C   UNL     1       6.812  -0.501  -0.259  1.00  0.00     0.254 C 
ATOM     33  C   UNL     1       6.356   0.930  -0.131  1.00  0.00     0.267 C 
ATOM     34  C   UNL     1       4.856   0.842   0.246  1.00  0.00     0.290 C 
ATOM     35  O   UNL     1       4.363   2.055   0.700  1.00  0.00    -0.448 OA
ATOM     36  C   UNL     1       4.795   2.624   1.873  1.00  0.00     0.342 C 
ATOM     37  O   UNL     1       5.603   2.060   2.598  1.00  0.00    -0.246 OA
ATOM     38  C   UNL     1       4.358   3.968   2.240  1.00  0.00     0.110 A 
ATOM     39  C   UNL     1       5.316   4.961   2.452  1.00  0.00     0.070 A 
ATOM     40  C   UNL     1       4.923   6.263   2.760  1.00  0.00     0.162 A 
ATOM     41  C   UNL     1       3.553   6.570   2.876  1.00  0.00     0.204 A 
ATOM     42  C   UNL     1       2.583   5.557   2.689  1.00  0.00     0.206 A 
ATOM     43  C   UNL     1       2.995   4.246   2.370  1.00  0.00     0.188 A 
ATOM     44  O   UNL     1       2.140   3.194   2.273  1.00  0.00    -0.445 OA
ATOM     45  C   UNL     1       0.862   3.136   1.842  1.00  0.00     0.210 A 
ATOM     46  C   UNL     1       0.486   3.614   0.570  1.00  0.00     0.163 A 
ATOM     47  C   UNL     1      -0.836   3.463   0.141  1.00  0.00     0.066 A 
ATOM     48  C   UNL     1      -1.792   2.823   0.951  1.00  0.00     0.067 A 
ATOM     49  C   UNL     1      -1.410   2.353   2.216  1.00  0.00     0.066 A 
ATOM     50  C   UNL     1      -0.090   2.510   2.662  1.00  0.00     0.163 A 
ATOM     51  G   UNL     1      -8.178   0.489   2.890  1.00  0.00     0.000 G0
ATOM     52  G   UNL     1       6.425  -2.653  -1.579  1.00  0.00     0.000 G1
ENDROOT
BRANCH  46  53
ATOM     53  O   UNL     1       1.375   4.178  -0.276  1.00  0.00    -0.504 OA
ATOM     54  H   UNL     1       2.320   4.253  -0.090  1.00  0.00     0.293 HD
ENDBRANCH  46  53
BRANCH  50  55
ATOM     55  O   UNL     1       0.274   2.061   3.882  1.00  0.00    -0.504 OA
ATOM     56  H   UNL     1      -0.357   1.652   4.492  1.00  0.00     0.293 HD
ENDBRANCH  50  55
BRANCH   8  57
ATOM     57  O   UNL     1      -6.482  -1.585  -1.233  1.00  0.00    -0.450 OA
BRANCH  57  58
ATOM     58  C   UNL     1      -7.504  -2.330  -1.749  1.00  0.00     0.338 C 
ATOM     59  O   UNL     1      -8.546  -1.778  -2.081  1.00  0.00    -0.246 OA
BRANCH  58  60
ATOM     60  C   UNL     1      -7.391  -3.816  -1.857  1.00  0.00     0.067 A 
ATOM     61  C   UNL     1      -6.208  -4.474  -1.491  1.00  0.00     0.066 A 
ATOM     62  C   UNL     1      -8.479  -4.590  -2.301  1.00  0.00     0.066 A 
ATOM     63  C   UNL     1      -6.091  -5.870  -1.589  1.00  0.00     0.162 A 
ATOM     64  C   UNL     1      -8.383  -5.986  -2.387  1.00  0.00     0.162 A 
ATOM     65  C   UNL     1      -7.183  -6.633  -2.037  1.00  0.00     0.200 A 
BRANCH  63  66
ATOM     66  O   UNL     1      -4.934  -6.481  -1.253  1.00  0.00    -0.504 OA
ATOM     67  H   UNL     1      -4.155  -5.990  -0.958  1.00  0.00     0.293 HD
ENDBRANCH  63  66
BRANCH  64  68
ATOM     68  O   UNL     1      -9.457  -6.690  -2.802  1.00  0.00    -0.504 OA
ATOM     69  H   UNL     1      -9.458  -7.656  -2.866  1.00  0.00     0.293 HD
ENDBRANCH  64  68
BRANCH  65  70
ATOM     70  O   UNL     1      -7.095  -7.977  -2.134  1.00  0.00    -0.502 OA
ATOM     71  H   UNL     1      -6.292  -8.471  -1.911  1.00  0.00     0.293 HD
ENDBRANCH  65  70
ENDBRANCH  58  60
ENDBRANCH  57  58
ENDBRANCH   8  57
BRANCH   7  72
ATOM     72  O   UNL     1      -8.726  -0.894   0.491  1.00  0.00    -0.452 OA
BRANCH  72  73
ATOM     73  C   UNL     1      -9.246  -2.055   0.955  1.00  0.00     0.339 C 
ATOM     74  O   UNL     1      -8.487  -2.980   1.223  1.00  0.00    -0.246 OA
BRANCH  73  75
ATOM     75  C   UNL     1     -10.704  -2.222   1.231  1.00  0.00     0.075 A 
ATOM     76  C   UNL     1     -11.738  -1.268   0.950  1.00  0.00     0.047 A 
ATOM     77  C   UNL     1     -11.071  -3.464   1.803  1.00  0.00     0.066 A 
ATOM     78  C   UNL     1     -13.086  -1.626   1.265  1.00  0.00     0.170 A 
ATOM     79  C   UNL     1     -12.392  -3.789   2.094  1.00  0.00     0.162 A 
ATOM     80  C   UNL     1     -13.403  -2.871   1.827  1.00  0.00     0.200 A 
BRANCH  76  81
ATOM     81  C   UNL     1     -11.604   0.074   0.263  1.00  0.00     0.047 A 
ATOM     82  C   UNL     1     -12.306   0.185  -0.976  1.00  0.00     0.170 A 
ATOM     83  C   UNL     1     -11.015   1.260   0.819  1.00  0.00     0.075 A 
ATOM     84  C   UNL     1     -12.437   1.416  -1.637  1.00  0.00     0.200 A 
ATOM     85  C   UNL     1     -11.182   2.481   0.120  1.00  0.00     0.066 A 
ATOM     86  C   UNL     1     -11.881   2.565  -1.080  1.00  0.00     0.162 A 
BRANCH  82  87
ATOM     87  O   UNL     1     -12.875  -0.919  -1.519  1.00  0.00    -0.504 OA
ATOM     88  H   UNL     1     -13.372  -0.910  -2.348  1.00  0.00     0.293 HD
ENDBRANCH  82  87
BRANCH  83  89
ATOM     89  C   UNL     1     -10.235   1.369   2.093  1.00  0.00     0.339 C 
ATOM     90  O   UNL     1     -10.034   2.480   2.570  1.00  0.00    -0.246 OA
BRANCH  89  91
ATOM     91  O   UNL     1      -9.530   0.326   2.589  1.00  0.00    -0.459 OA
BRANCH  91  92
ATOM     92  C   UNL     1      -8.178   0.489   2.890  1.00  0.00     0.269 CG0
ATOM     93  G   UNL     1      -7.367   0.731   1.582  1.00  0.00     0.000 G0
ENDBRANCH  91  92
ENDBRANCH  89  91
ENDBRANCH  83  89
BRANCH  84  94
ATOM     94  O   UNL     1     -13.126   1.482  -2.799  1.00  0.00    -0.502 OA
ATOM     95  H   UNL     1     -13.269   2.308  -3.283  1.00  0.00     0.293 HD
ENDBRANCH  84  94
BRANCH  86  96
ATOM     96  O   UNL     1     -12.026   3.756  -1.701  1.00  0.00    -0.504 OA
ATOM     97  H   UNL     1     -11.673   4.579  -1.335  1.00  0.00     0.293 HD
ENDBRANCH  86  96
ENDBRANCH  76  81
BRANCH  78  98
ATOM     98  O   UNL     1     -14.086  -0.745   1.016  1.00  0.00    -0.504 OA
ATOM     99  H   UNL     1     -15.019  -0.928   1.196  1.00  0.00     0.293 HD
ENDBRANCH  78  98
BRANCH  79 100
ATOM    100  O   UNL     1     -12.695  -4.992   2.627  1.00  0.00    -0.504 OA
ATOM    101  H   UNL     1     -12.021  -5.660   2.817  1.00  0.00     0.293 HD
ENDBRANCH  79 100
BRANCH  80 102
ATOM    102  O   UNL     1     -14.693  -3.173   2.096  1.00  0.00    -0.502 OA
ATOM    103  H   UNL     1     -14.971  -4.022   2.467  1.00  0.00     0.293 HD
ENDBRANCH  80 102
ENDBRANCH  73  75
ENDBRANCH  72  73
ENDBRANCH   7  72
BRANCH  42 104
ATOM    104  O   UNL     1       1.269   5.826   2.847  1.00  0.00    -0.502 OA
ATOM    105  H   UNL     1       0.942   6.702   3.093  1.00  0.00     0.293 HD
ENDBRANCH  42 104
BRANCH  15 106
ATOM    106  O   UNL     1      -3.281   4.659  -5.744  1.00  0.00    -0.504 OA
ATOM    107  H   UNL     1      -4.104   5.164  -5.654  1.00  0.00     0.293 HD
ENDBRANCH  15 106
BRANCH  17 108
ATOM    108  O   UNL     1      -0.411   1.008  -4.558  1.00  0.00    -0.502 OA
ATOM    109  H   UNL     1       0.256   1.254  -5.215  1.00  0.00     0.293 HD
ENDBRANCH  17 108
BRANCH  41 110
ATOM    110  O   UNL     1       3.160   7.825   3.185  1.00  0.00    -0.502 OA
ATOM    111  H   UNL     1       3.787   8.548   3.330  1.00  0.00     0.293 HD
ENDBRANCH  41 110
BRANCH  16 112
ATOM    112  O   UNL     1      -0.902   3.284  -6.066  1.00  0.00    -0.502 OA
ATOM    113  H   UNL     1      -1.043   4.057  -6.630  1.00  0.00     0.293 HD
ENDBRANCH  16 112
BRANCH  40 114
ATOM    114  O   UNL     1       5.857   7.222   2.942  1.00  0.00    -0.504 OA
ATOM    115  H   UNL     1       6.805   7.040   2.861  1.00  0.00     0.293 HD
ENDBRANCH  40 114
BRANCH  25 116
ATOM    116  O   UNL     1      -3.192  -2.112  -1.771  1.00  0.00    -0.502 OA
ATOM    117  H   UNL     1      -3.556  -2.949  -1.468  1.00  0.00     0.293 HD
ENDBRANCH  25 116
BRANCH  24 118
ATOM    118  O   UNL     1      -1.704  -3.603  -0.007  1.00  0.00    -0.504 OA
ATOM    119  H   UNL     1      -1.219  -4.146   0.630  1.00  0.00     0.293 HD
ENDBRANCH  24 118
BRANCH  33 120
ATOM    120  O   UNL     1       7.186   1.628   0.740  1.00  0.00    -0.450 OA
BRANCH 120 121
ATOM    121  C   UNL     1       7.949   2.695   0.333  1.00  0.00     0.338 C 
ATOM    122  O   UNL     1       7.861   3.115  -0.815  1.00  0.00    -0.246 OA
BRANCH 121 123
ATOM    123  C   UNL     1       8.922   3.347   1.238  1.00  0.00     0.067 A 
ATOM    124  C   UNL     1       9.051   2.961   2.578  1.00  0.00     0.066 A 
ATOM    125  C   UNL     1       9.744   4.374   0.738  1.00  0.00     0.066 A 
ATOM    126  C   UNL     1       9.989   3.595   3.411  1.00  0.00     0.162 A 
ATOM    127  C   UNL     1      10.681   5.006   1.554  1.00  0.00     0.162 A 
ATOM    128  C   UNL     1      10.808   4.620   2.897  1.00  0.00     0.200 A 
BRANCH 126 129
ATOM    129  O   UNL     1      10.107   3.224   4.703  1.00  0.00    -0.504 OA
ATOM    130  H   UNL     1       9.560   2.527   5.091  1.00  0.00     0.293 HD
ENDBRANCH 126 129
BRANCH 127 131
ATOM    131  O   UNL     1      11.451   5.979   1.022  1.00  0.00    -0.504 OA
ATOM    132  H   UNL     1      12.126   6.452   1.528  1.00  0.00     0.293 HD
ENDBRANCH 127 131
BRANCH 128 133
ATOM    133  O   UNL     1      11.719   5.240   3.680  1.00  0.00    -0.502 OA
ATOM    134  H   UNL     1      11.850   5.016   4.611  1.00  0.00     0.293 HD
ENDBRANCH 128 133
ENDBRANCH 121 123
ENDBRANCH 120 121
ENDBRANCH  33 120
BRANCH  32 135
ATOM    135  O   UNL     1       8.159  -0.490  -0.496  1.00  0.00    -0.452 OA
BRANCH 135 136
ATOM    136  C   UNL     1       9.073  -1.236   0.155  1.00  0.00     0.339 C 
ATOM    137  O   UNL     1       8.787  -1.861   1.168  1.00  0.00    -0.246 OA
BRANCH 136 138
ATOM    138  C   UNL     1      10.312  -1.466  -0.580  1.00  0.00     0.075 A 
ATOM    139  C   UNL     1      11.018  -2.688  -0.541  1.00  0.00     0.047 A 
ATOM    140  C   UNL     1      10.792  -0.391  -1.347  1.00  0.00     0.066 A 
ATOM    141  C   UNL     1      12.226  -2.780  -1.296  1.00  0.00     0.170 A 
ATOM    142  C   UNL     1      11.985  -0.484  -2.055  1.00  0.00     0.162 A 
ATOM    143  C   UNL     1      12.707  -1.681  -2.034  1.00  0.00     0.200 A 
BRANCH 139 144
ATOM    144  C   UNL     1      10.573  -3.881   0.275  1.00  0.00     0.047 A 
ATOM    145  C   UNL     1      11.574  -4.404   1.158  1.00  0.00     0.170 A 
ATOM    146  C   UNL     1       9.268  -4.528   0.241  1.00  0.00     0.075 A 
ATOM    147  C   UNL     1      11.336  -5.529   1.956  1.00  0.00     0.200 A 
ATOM    148  C   UNL     1       9.103  -5.668   1.078  1.00  0.00     0.066 A 
ATOM    149  C   UNL     1      10.102  -6.161   1.910  1.00  0.00     0.162 A 
BRANCH 145 150
ATOM    150  O   UNL     1      12.776  -3.784   1.259  1.00  0.00    -0.504 OA
ATOM    151  H   UNL     1      13.489  -4.080   1.842  1.00  0.00     0.293 HD
ENDBRANCH 145 150
BRANCH 146 152
ATOM    152  C   UNL     1       8.004  -4.190  -0.572  1.00  0.00     0.339 C 
ATOM    153  O   UNL     1       7.097  -5.015  -0.534  1.00  0.00    -0.246 OA
BRANCH 152 154
ATOM    154  O   UNL     1       7.753  -3.035  -1.279  1.00  0.00    -0.459 OA
BRANCH 154 155
ATOM    155  C   UNL     1       6.425  -2.653  -1.579  1.00  0.00     0.269 CG1
ATOM    156  G   UNL     1       6.102  -1.131  -1.475  1.00  0.00     0.000 G1
ENDBRANCH 154 155
ENDBRANCH 152 154
ENDBRANCH 146 152
BRANCH 147 157
ATOM    157  O   UNL     1      12.313  -5.989   2.771  1.00  0.00    -0.502 OA
ATOM    158  H   UNL     1      12.207  -6.763   3.342  1.00  0.00     0.293 HD
ENDBRANCH 147 157
BRANCH 149 159
ATOM    159  O   UNL     1       9.874  -7.246   2.682  1.00  0.00    -0.504 OA
ATOM    160  H   UNL     1       9.027  -7.715   2.685  1.00  0.00     0.293 HD
ENDBRANCH 149 159
ENDBRANCH 139 144
BRANCH 141 161
ATOM    161  O   UNL     1      12.916  -3.945  -1.321  1.00  0.00    -0.504 OA
ATOM    162  H   UNL     1      13.741  -4.065  -1.811  1.00  0.00     0.293 HD
ENDBRANCH 141 161
BRANCH 142 163
ATOM    163  O   UNL     1      12.445   0.577  -2.752  1.00  0.00    -0.504 OA
ATOM    164  H   UNL     1      11.979   1.425  -2.768  1.00  0.00     0.293 HD
ENDBRANCH 142 163
BRANCH 143 165
ATOM    165  O   UNL     1      13.868  -1.791  -2.717  1.00  0.00    -0.502 OA
ATOM    166  H   UNL     1      14.252  -1.061  -3.222  1.00  0.00     0.293 HD
ENDBRANCH 143 165
ENDBRANCH 136 138
ENDBRANCH 135 136
ENDBRANCH  32 135
TORSDOF 34
