REMARK SMILES C=C1[C@@H]2[C@@H](OC=O)[C@H](OC(=O)CC(C)C)[C@@]3(C)[C@H](c4ccoc4)CC(=O)[C@]13O[C@H]1CC(=O)O[C@]3(C)COC(=O)C[C@@H]3[C@]12C
REMARK SMILES IDX 1 1 2 2 3 3 4 4 8 5 16 6 17 7 18 8 24 9 25 10 26 11 27 12
REMARK SMILES IDX 28 13 29 14 42 15 43 16 5 18 6 19 7 20 41 21 40 22 34 23
REMARK SMILES IDX 38 24 36 25 37 26 39 27 35 28 33 29 31 30 32 31 30 32 9 34
REMARK SMILES IDX 10 35 11 36 12 37 13 38 14 39 15 40 19 41 23 42 20 43 22 44
REMARK SMILES IDX 21 45
REMARK H PARENT
REMARK Flexibility Score:   30.900
ROOT
ATOM      1  C   UNL     1      -0.133  -0.251   3.215  1.00  0.00     0.012 C 
ATOM      2  C   UNL     1      -0.429   0.134   1.964  1.00  0.00    -0.030 C 
ATOM      3  C   UNL     1      -0.724  -0.803   0.800  1.00  0.00     0.072 C 
ATOM      4  C   UNL     1       0.168  -0.339  -0.473  1.00  0.00     0.225 C 
ATOM      5  C   UNL     1       1.306   0.709  -0.184  1.00  0.00     0.228 C 
ATOM      6  C   UNL     1       0.939   1.791   0.924  1.00  0.00     0.056 C 
ATOM      7  C   UNL     1       2.033   1.708   2.072  1.00  0.00     0.020 C 
ATOM      8  C   UNL     1       0.792   3.268   0.467  1.00  0.00     0.043 C 
ATOM      9  C   UNL     1       0.099   3.938   1.688  1.00  0.00     0.088 C 
ATOM     10  C   UNL     1      -0.675   2.788   2.295  1.00  0.00     0.170 C 
ATOM     11  O   UNL     1      -1.394   2.880   3.277  1.00  0.00    -0.296 OA
ATOM     12  C   UNL     1      -0.513   1.554   1.470  1.00  0.00     0.157 C 
ATOM     13  O   UNL     1      -1.497   1.649   0.423  1.00  0.00    -0.358 OA
ATOM     14  C   UNL     1      -2.659   0.866   0.703  1.00  0.00     0.138 CG0
ATOM     15  C   UNL     1      -2.324  -0.697   0.623  1.00  0.00     0.012 C 
ATOM     16  C   UNL     1      -2.960  -1.374   1.869  1.00  0.00     0.015 C 
ATOM     17  G   UNL     1      -3.782   1.381  -0.199  1.00  0.00     0.000 G0
ENDROOT
BRANCH   4  18
ATOM     18  O   UNL     1      -0.593   0.208  -1.495  1.00  0.00    -0.460 OA
BRANCH  18  19
ATOM     19  C   UNL     1      -0.548  -0.176  -2.804  1.00  0.00     0.447 C 
ATOM     20  O   UNL     1       0.224  -1.038  -3.194  1.00  0.00    -0.256 OA
ENDBRANCH  18  19
ENDBRANCH   4  18
BRANCH  15  21
ATOM     21  C   UNL     1      -2.924  -1.379  -0.707  1.00  0.00     0.057 C 
ATOM     22  C   UNL     1      -2.190  -2.678  -1.163  1.00  0.00     0.131 C 
ATOM     23  C   UNL     1      -4.494  -1.636  -0.792  1.00  0.00     0.147 C 
ATOM     24  C   UNL     1      -2.817  -3.954  -0.683  1.00  0.00     0.306 C 
ATOM     25  C   UNL     1      -4.911  -2.912   0.011  1.00  0.00     0.281 C 
ATOM     26  O   UNL     1      -4.045  -3.981  -0.118  1.00  0.00    -0.461 OA
ATOM     27  O   UNL     1      -2.242  -5.009  -0.895  1.00  0.00    -0.252 OA
ATOM     28  C   UNL     1      -4.893  -1.863  -2.272  1.00  0.00     0.061 C 
BRANCH  23  29
ATOM     29  O   UNL     1      -5.312  -0.606  -0.337  1.00  0.00    -0.455 OA
BRANCH  29  30
ATOM     30  C   UNL     1      -5.085   0.683   0.019  1.00  0.00     0.309 C 
ATOM     31  O   UNL     1      -6.020   1.328   0.466  1.00  0.00    -0.252 OA
BRANCH  30  32
ATOM     32  C   UNL     1      -3.782   1.381  -0.199  1.00  0.00     0.155 CG0
ATOM     33  G   UNL     1      -2.659   0.866   0.703  1.00  0.00     0.000 G0
ENDBRANCH  30  32
ENDBRANCH  29  30
ENDBRANCH  23  29
ENDBRANCH  15  21
BRANCH   5  34
ATOM     34  O   UNL     1       2.445  -0.002   0.171  1.00  0.00    -0.458 OA
BRANCH  34  35
ATOM     35  C   UNL     1       3.576  -0.102  -0.577  1.00  0.00     0.306 C 
ATOM     36  O   UNL     1       3.619   0.320  -1.724  1.00  0.00    -0.252 OA
BRANCH  35  37
ATOM     37  C   UNL     1       4.777  -0.783   0.007  1.00  0.00     0.125 C 
BRANCH  37  38
ATOM     38  C   UNL     1       5.100  -2.090  -0.740  1.00  0.00    -0.006 C 
ATOM     39  C   UNL     1       6.389  -2.704  -0.183  1.00  0.00     0.008 C 
ATOM     40  C   UNL     1       3.942  -3.095  -0.608  1.00  0.00     0.008 C 
ENDBRANCH  37  38
ENDBRANCH  35  37
ENDBRANCH  34  35
ENDBRANCH   5  34
BRANCH   8  41
ATOM     41  C   UNL     1       2.041   3.977  -0.007  1.00  0.00    -0.005 A 
ATOM     42  C   UNL     1       3.135   4.377   0.740  1.00  0.00     0.198 A 
ATOM     43  C   UNL     1       2.306   4.357  -1.305  1.00  0.00     0.046 A 
ATOM     44  O   UNL     1       4.014   4.954  -0.049  1.00  0.00    -0.472 OA
ATOM     45  C   UNL     1       3.549   4.954  -1.278  1.00  0.00     0.195 A 
ENDBRANCH   8  41
TORSDOF 7
