REMARK SMILES C[C@@H]1O[C@H](OC[C@H]2O[C@@H](Oc3cc(O)c4c(=O)c(-c5ccc(O)cc5)coc4c3)[C@H](O)[C@@H](O)[C@@H]2O)[C@@H](O)[C@H](O)[C@H]1O
REMARK SMILES IDX 7 1 8 2 9 3 30 4 32 5 34 6 6 7 5 8 4 9 2 10 3 11 40 12 38 13
REMARK SMILES IDX 36 14 1 15 41 16 39 18 37 20 35 22 10 24 11 25 12 26 29 27
REMARK SMILES IDX 13 28 28 29 15 30 27 31 16 32 26 33 17 34 18 35 14 36 19 38
REMARK SMILES IDX 20 39 25 40 21 41 24 42 22 43 23 44 33 46 31 48
REMARK H PARENT 41 17 39 19 37 21 35 23 14 37 23 45 33 47 31 49
ROOT
ATOM      1  C   UNL     1      -2.704   1.910   1.422  1.00  0.00     0.180 C 
ATOM      2  O   UNL     1      -1.327   1.925   1.762  1.00  0.00    -0.332 OA
ATOM      3  C   UNL     1      -0.437   2.120   0.655  1.00  0.00     0.339 C 
ATOM      4  C   UNL     1      -1.038   2.857  -0.578  1.00  0.00     0.214 C 
ATOM      5  C   UNL     1      -1.994   3.922  -0.055  1.00  0.00     0.180 C 
ATOM      6  C   UNL     1      -3.155   3.220   0.685  1.00  0.00     0.177 C 
ENDROOT
BRANCH   1   7
ATOM      7  C   UNL     1      -3.064   0.588   0.707  1.00  0.00     0.198 C 
BRANCH   7   8
ATOM      8  O   UNL     1      -4.456   0.544   0.476  1.00  0.00    -0.347 OA
BRANCH   8   9
ATOM      9  C   UNL     1      -4.873  -0.744   0.058  1.00  0.00     0.281 C 
ATOM     10  C   UNL     1      -6.202  -2.558   0.716  1.00  0.00     0.150 C 
ATOM     11  O   UNL     1      -5.771  -1.244   1.036  1.00  0.00    -0.344 OA
ATOM     12  C   UNL     1      -7.014  -2.550  -0.605  1.00  0.00     0.174 C 
ATOM     13  C   UNL     1      -6.142  -1.973  -1.736  1.00  0.00     0.179 C 
ATOM     14  C   UNL     1      -5.589  -0.602  -1.303  1.00  0.00     0.202 C 
ATOM     15  C   UNL     1      -7.057  -3.071   1.875  1.00  0.00     0.041 C 
BRANCH  12  16
ATOM     16  O   UNL     1      -7.476  -3.836  -0.940  1.00  0.00    -0.388 OA
ATOM     17  H   UNL     1      -6.683  -4.427  -1.022  1.00  0.00     0.211 HD
ENDBRANCH  12  16
BRANCH  13  18
ATOM     18  O   UNL     1      -6.862  -1.878  -2.940  1.00  0.00    -0.387 OA
ATOM     19  H   UNL     1      -7.620  -1.256  -2.788  1.00  0.00     0.211 HD
ENDBRANCH  13  18
BRANCH  14  20
ATOM     20  O   UNL     1      -4.728  -0.072  -2.280  1.00  0.00    -0.385 OA
ATOM     21  H   UNL     1      -3.958  -0.694  -2.372  1.00  0.00     0.211 HD
ENDBRANCH  14  20
ENDBRANCH   8   9
ENDBRANCH   7   8
ENDBRANCH   1   7
BRANCH   6  22
ATOM     22  O   UNL     1      -3.763   4.130   1.567  1.00  0.00    -0.387 OA
ATOM     23  H   UNL     1      -3.117   4.310   2.301  1.00  0.00     0.211 HD
ENDBRANCH   6  22
BRANCH   3  24
ATOM     24  O   UNL     1       0.079   0.903   0.242  1.00  0.00    -0.462 OA
BRANCH  24  25
ATOM     25  C   UNL     1       1.373   0.492   0.168  1.00  0.00     0.130 A 
ATOM     26  C   UNL     1       1.605  -0.810  -0.284  1.00  0.00     0.093 A 
ATOM     27  C   UNL     1       2.474   1.306   0.498  1.00  0.00     0.094 A 
ATOM     28  C   UNL     1       2.907  -1.318  -0.403  1.00  0.00     0.134 A 
ATOM     29  C   UNL     1       3.778   0.817   0.381  1.00  0.00     0.145 A 
ATOM     30  C   UNL     1       4.012  -0.503  -0.061  1.00  0.00     0.107 A 
ATOM     31  O   UNL     1       4.790   1.616   0.683  1.00  0.00    -0.463 OA
ATOM     32  C   UNL     1       5.353  -0.941  -0.151  1.00  0.00     0.204 A 
ATOM     33  C   UNL     1       6.057   1.242   0.592  1.00  0.00     0.208 A 
ATOM     34  O   UNL     1       5.596  -2.068  -0.547  1.00  0.00    -0.288 OA
ATOM     35  C   UNL     1       6.410  -0.058   0.182  1.00  0.00     0.065 A 
BRANCH  28  36
ATOM     36  O   UNL     1       3.087  -2.579  -0.853  1.00  0.00    -0.507 OA
ATOM     37  H   UNL     1       2.349  -3.148  -1.114  1.00  0.00     0.293 HD
ENDBRANCH  28  36
BRANCH  35  38
ATOM     38  C   UNL     1       7.859  -0.450   0.112  1.00  0.00    -0.011 A 
ATOM     39  C   UNL     1       8.281  -1.780   0.329  1.00  0.00     0.013 A 
ATOM     40  C   UNL     1       8.849   0.520  -0.169  1.00  0.00     0.013 A 
ATOM     41  C   UNL     1       9.635  -2.123   0.267  1.00  0.00     0.047 A 
ATOM     42  C   UNL     1      10.199   0.168  -0.245  1.00  0.00     0.047 A 
ATOM     43  C   UNL     1      10.598  -1.151  -0.025  1.00  0.00     0.115 A 
BRANCH  43  44
ATOM     44  O   UNL     1      11.905  -1.471  -0.094  1.00  0.00    -0.508 OA
ATOM     45  H   UNL     1      12.221  -2.374   0.056  1.00  0.00     0.293 HD
ENDBRANCH  43  44
ENDBRANCH  35  38
ENDBRANCH  24  25
ENDBRANCH   3  24
BRANCH   5  46
ATOM     46  O   UNL     1      -2.478   4.768  -1.068  1.00  0.00    -0.387 OA
ATOM     47  H   UNL     1      -2.882   4.194  -1.770  1.00  0.00     0.211 HD
ENDBRANCH   5  46
BRANCH   4  48
ATOM     48  O   UNL     1      -0.017   3.396  -1.382  1.00  0.00    -0.384 OA
ATOM     49  H   UNL     1       0.439   4.106  -0.859  1.00  0.00     0.211 HD
ENDBRANCH   4  48
TORSDOF 14
