REMARK SMILES C[C@H]1O[C@@H](Oc2c(-c3cc(O)c(O)c(O)c3)oc3cc(O)cc(O)c3c2=O)[C@@H](O)[C@@H](O)[C@@H]1O
REMARK SMILES IDX 6 1 7 2 17 3 18 4 19 5 20 6 22 7 23 8 25 9 26 10 27 11 5 12
REMARK SMILES IDX 4 13 2 14 3 15 32 16 30 17 28 18 1 19 33 20 31 22 29 24 8 26
REMARK SMILES IDX 9 27 16 28 10 29 14 30 12 31 11 32 15 34 13 36 24 38 21 40
REMARK H PARENT 33 21 31 23 29 25 11 33 15 35 13 37 24 39 21 41
ROOT
ATOM      1  C   UNL     1      -0.623  -0.644   0.702  1.00  0.00     0.214 A 
ATOM      2  C   UNL     1      -1.809   0.006   0.266  1.00  0.00     0.181 A 
ATOM      3  O   UNL     1      -2.842  -0.741  -0.120  1.00  0.00    -0.452 OA
ATOM      4  C   UNL     1      -2.855  -2.067  -0.100  1.00  0.00     0.146 A 
ATOM      5  C   UNL     1      -4.003  -2.741  -0.525  1.00  0.00     0.094 A 
ATOM      6  C   UNL     1      -4.048  -4.140  -0.514  1.00  0.00     0.123 A 
ATOM      7  C   UNL     1      -2.939  -4.865  -0.073  1.00  0.00     0.093 A 
ATOM      8  C   UNL     1      -1.776  -4.206   0.356  1.00  0.00     0.134 A 
ATOM      9  C   UNL     1      -1.727  -2.789   0.343  1.00  0.00     0.111 A 
ATOM     10  C   UNL     1      -0.597  -2.051   0.742  1.00  0.00     0.239 A 
ATOM     11  O   UNL     1       0.414  -2.618   1.121  1.00  0.00    -0.285 OA
ENDROOT
BRANCH   1  12
ATOM     12  O   UNL     1       0.499   0.042   1.034  1.00  0.00    -0.454 OA
BRANCH  12  13
ATOM     13  C   UNL     1       1.626   0.049   0.223  1.00  0.00     0.339 C 
ATOM     14  C   UNL     1       3.633  -1.062  -0.253  1.00  0.00     0.151 C 
ATOM     15  O   UNL     1       2.640  -0.781   0.750  1.00  0.00    -0.335 OA
ATOM     16  C   UNL     1       3.928   0.152  -1.218  1.00  0.00     0.174 C 
ATOM     17  C   UNL     1       3.661   1.469  -0.462  1.00  0.00     0.180 C 
ATOM     18  C   UNL     1       2.177   1.497   0.028  1.00  0.00     0.214 C 
ATOM     19  C   UNL     1       4.909  -1.533   0.457  1.00  0.00     0.042 C 
BRANCH  16  20
ATOM     20  O   UNL     1       3.072   0.081  -2.333  1.00  0.00    -0.388 OA
ATOM     21  H   UNL     1       3.396   0.752  -2.990  1.00  0.00     0.211 HD
ENDBRANCH  16  20
BRANCH  17  22
ATOM     22  O   UNL     1       4.589   1.609   0.591  1.00  0.00    -0.387 OA
ATOM     23  H   UNL     1       4.257   1.131   1.391  1.00  0.00     0.211 HD
ENDBRANCH  17  22
BRANCH  18  24
ATOM     24  O   UNL     1       2.061   2.315   1.169  1.00  0.00    -0.384 OA
ATOM     25  H   UNL     1       2.189   1.751   1.975  1.00  0.00     0.211 HD
ENDBRANCH  18  24
ENDBRANCH  12  13
ENDBRANCH   1  12
BRANCH   2  26
ATOM     26  C   UNL     1      -1.983   1.492   0.159  1.00  0.00     0.029 A 
ATOM     27  C   UNL     1      -3.035   1.990  -0.637  1.00  0.00     0.062 A 
ATOM     28  C   UNL     1      -1.159   2.423   0.820  1.00  0.00     0.062 A 
ATOM     29  C   UNL     1      -3.240   3.369  -0.793  1.00  0.00     0.162 A 
ATOM     30  C   UNL     1      -1.356   3.801   0.674  1.00  0.00     0.162 A 
ATOM     31  C   UNL     1      -2.395   4.280  -0.140  1.00  0.00     0.200 A 
BRANCH  29  32
ATOM     32  O   UNL     1      -4.245   3.820  -1.573  1.00  0.00    -0.504 OA
ATOM     33  H   UNL     1      -4.845   3.222  -2.042  1.00  0.00     0.293 HD
ENDBRANCH  29  32
BRANCH  30  34
ATOM     34  O   UNL     1      -0.532   4.648   1.328  1.00  0.00    -0.504 OA
ATOM     35  H   UNL     1      -0.612   5.610   1.266  1.00  0.00     0.293 HD
ENDBRANCH  30  34
BRANCH  31  36
ATOM     36  O   UNL     1      -2.573   5.612  -0.280  1.00  0.00    -0.502 OA
ATOM     37  H   UNL     1      -3.271   5.994  -0.830  1.00  0.00     0.293 HD
ENDBRANCH  31  36
ENDBRANCH   2  26
BRANCH   8  38
ATOM     38  O   UNL     1      -0.717  -4.932   0.775  1.00  0.00    -0.507 OA
ATOM     39  H   UNL     1      -0.728  -5.900   0.797  1.00  0.00     0.293 HD
ENDBRANCH   8  38
BRANCH   6  40
ATOM     40  O   UNL     1      -5.151  -4.798  -0.925  1.00  0.00    -0.508 OA
ATOM     41  H   UNL     1      -5.939  -4.333  -1.242  1.00  0.00     0.293 HD
ENDBRANCH   6  40
TORSDOF 11
