REMARK SMILES COc1ccc(C2=NO[C@@H](C(=O)c3ccccc3)[C@@]23C(=O)Nc2ccccc23)cc1OC
REMARK SMILES IDX 7 1 8 2 9 3 10 4 19 5 20 6 21 7 22 8 23 9 24 10 25 11 26 12
REMARK SMILES IDX 27 13 28 14 6 16 3 17 4 18 30 19 5 20 29 21 2 22 1 23 31 24
REMARK SMILES IDX 32 25 11 26 12 27 13 28 14 29 18 30 15 31 17 32 16 33
REMARK H PARENT 22 15
ROOT
ATOM      1  C   UNL     1      -0.262   0.168  -0.420  1.00  0.00     0.112 C 
ATOM      2  N   UNL     1      -1.010  -0.516  -1.199  1.00  0.00    -0.088 NA
ATOM      3  O   UNL     1      -2.281  -0.193  -1.097  1.00  0.00    -0.382 OA
ATOM      4  C   UNL     1      -2.541   0.620  -0.023  1.00  0.00     0.302 C 
ATOM      5  C   UNL     1      -1.114   1.182   0.285  1.00  0.00     0.169 C 
ATOM      6  C   UNL     1      -0.776   1.516   1.730  1.00  0.00     0.245 C 
ATOM      7  O   UNL     1      -0.739   0.709   2.646  1.00  0.00    -0.273 OA
ATOM      8  N   UNL     1      -0.478   2.823   1.902  1.00  0.00    -0.325 N 
ATOM      9  C   UNL     1      -0.562   3.447   0.650  1.00  0.00     0.046 A 
ATOM     10  C   UNL     1      -0.325   4.790   0.362  1.00  0.00     0.026 A 
ATOM     11  C   UNL     1      -0.462   5.216  -0.970  1.00  0.00     0.002 A 
ATOM     12  C   UNL     1      -0.827   4.300  -1.977  1.00  0.00     0.000 A 
ATOM     13  C   UNL     1      -1.058   2.952  -1.659  1.00  0.00     0.007 A 
ATOM     14  C   UNL     1      -0.917   2.546  -0.328  1.00  0.00     0.002 A 
ATOM     15  H   UNL     1      -0.213   3.271   2.791  1.00  0.00     0.169 HD
ENDROOT
BRANCH   1  16
ATOM     16  C   UNL     1       1.220  -0.030  -0.382  1.00  0.00     0.005 A 
ATOM     17  C   UNL     1       4.007  -0.522  -0.302  1.00  0.00     0.160 A 
ATOM     18  C   UNL     1       3.439   0.519   0.456  1.00  0.00     0.051 A 
ATOM     19  C   UNL     1       3.180  -1.313  -1.114  1.00  0.00     0.161 A 
ATOM     20  C   UNL     1       2.064   0.762   0.413  1.00  0.00     0.014 A 
ATOM     21  C   UNL     1       1.794  -1.062  -1.147  1.00  0.00     0.060 A 
BRANCH  17  22
ATOM     22  O   UNL     1       5.338  -0.798  -0.274  1.00  0.00    -0.493 OA
ATOM     23  C   UNL     1       6.280  -0.161   0.507  1.00  0.00     0.278 C 
ENDBRANCH  17  22
BRANCH  19  24
ATOM     24  O   UNL     1       3.753  -2.311  -1.840  1.00  0.00    -0.493 OA
ATOM     25  C   UNL     1       3.092  -3.176  -2.687  1.00  0.00     0.278 C 
ENDBRANCH  19  24
ENDBRANCH   1  16
BRANCH   4  26
ATOM     26  C   UNL     1      -3.160  -0.198   1.119  1.00  0.00     0.208 C 
ATOM     27  O   UNL     1      -3.368   0.401   2.165  1.00  0.00    -0.290 OA
BRANCH  26  28
ATOM     28  C   UNL     1      -3.538  -1.659   1.074  1.00  0.00     0.022 A 
ATOM     29  C   UNL     1      -3.726  -2.397  -0.121  1.00  0.00     0.012 A 
ATOM     30  C   UNL     1      -3.731  -2.339   2.298  1.00  0.00     0.012 A 
ATOM     31  C   UNL     1      -4.072  -3.751  -0.083  1.00  0.00     0.001 A 
ATOM     32  C   UNL     1      -4.071  -3.695   2.327  1.00  0.00     0.001 A 
ATOM     33  C   UNL     1      -4.240  -4.401   1.137  1.00  0.00     0.000 A 
ENDBRANCH  26  28
ENDBRANCH   4  26
TORSDOF 5
