REMARK SMILES C[N+](C)(C)[C@H]1Oc2c(cc3c4c(ccnc24)NC=C3)O[C@@H]1c1c[nH]c2cc(Br)ccc12
REMARK SMILES IDX 5 1 6 2 7 3 8 4 9 5 10 6 19 7 18 8 17 9 12 10 11 11 16 12
REMARK SMILES IDX 15 13 14 14 13 15 20 16 21 17 2 19 1 20 3 21 4 22 22 23
REMARK SMILES IDX 23 24 31 25 24 26 30 27 25 28 29 29 26 30 27 31 28 33
REMARK H PARENT 17 18 24 32
ROOT
ATOM      1  C   UNL     1       0.717   1.385   0.042  1.00  0.00     0.425 C 
ATOM      2  O   UNL     1      -0.292   0.902   0.867  1.00  0.00    -0.432 OA
ATOM      3  C   UNL     1      -1.210  -0.028   0.544  1.00  0.00     0.194 A 
ATOM      4  C   UNL     1      -1.180  -0.620  -0.716  1.00  0.00     0.165 A 
ATOM      5  C   UNL     1      -2.128  -1.590  -1.067  1.00  0.00     0.059 A 
ATOM      6  C   UNL     1      -3.116  -1.972  -0.148  1.00  0.00    -0.009 A 
ATOM      7  C   UNL     1      -4.137  -2.986  -0.497  1.00  0.00     0.026 C 
ATOM      8  C   UNL     1      -5.073  -3.331   0.404  1.00  0.00     0.083 C 
ATOM      9  N   UNL     1      -5.090  -2.731   1.698  1.00  0.00    -0.361 N 
ATOM     10  C   UNL     1      -4.120  -1.752   2.057  1.00  0.00     0.050 A 
ATOM     11  C   UNL     1      -3.140  -1.379   1.125  1.00  0.00     0.035 A 
ATOM     12  C   UNL     1      -2.184  -0.406   1.476  1.00  0.00     0.119 A 
ATOM     13  N   UNL     1      -2.219   0.157   2.716  1.00  0.00    -0.252 NA
ATOM     14  C   UNL     1      -3.158  -0.196   3.635  1.00  0.00     0.114 A 
ATOM     15  C   UNL     1      -4.127  -1.155   3.323  1.00  0.00     0.047 A 
ATOM     16  O   UNL     1      -0.243  -0.244  -1.608  1.00  0.00    -0.471 OA
ATOM     17  C   UNL     1       0.692   0.762  -1.422  1.00  0.00     0.306 C 
ATOM     18  H   UNL     1      -5.817  -3.012   2.373  1.00  0.00     0.166 HD
ENDROOT
BRANCH   1  19
ATOM     19  N   UNL     1       0.720   2.890   0.077  1.00  0.00    -0.292 N 
ATOM     20  C   UNL     1      -0.564   3.447  -0.424  1.00  0.00     0.337 C 
ATOM     21  C   UNL     1       0.893   3.341   1.484  1.00  0.00     0.337 C 
ATOM     22  C   UNL     1       1.846   3.452  -0.710  1.00  0.00     0.337 C 
ENDBRANCH   1  19
BRANCH  17  23
ATOM     23  C   UNL     1       2.050   0.228  -1.804  1.00  0.00     0.028 A 
ATOM     24  C   UNL     1       2.865   0.691  -2.834  1.00  0.00     0.091 A 
ATOM     25  C   UNL     1       2.739  -0.823  -1.223  1.00  0.00     0.007 A 
ATOM     26  N   UNL     1       4.006  -0.032  -2.886  1.00  0.00    -0.361 N 
ATOM     27  C   UNL     1       2.413  -1.668  -0.161  1.00  0.00     0.012 A 
ATOM     28  C   UNL     1       3.921  -0.949  -1.906  1.00  0.00     0.047 A 
ATOM     29  C   UNL     1       3.341  -2.663   0.196  1.00  0.00     0.016 A 
ATOM     30  C   UNL     1       4.861  -1.924  -1.575  1.00  0.00     0.042 A 
ATOM     31  C   UNL     1       4.561  -2.791  -0.507  1.00  0.00     0.020 A 
ATOM     32  H   UNL     1       4.796   0.097  -3.558  1.00  0.00     0.166 HD
ATOM     33  Br  UNL     1       5.807  -4.149  -0.009  1.00  0.00    -0.051 Br
ENDBRANCH  17  23
TORSDOF 2
