REMARK SMILES O=C1OCC(c2ccccc2)=C1c1ccccc1
REMARK SMILES IDX 1 1 2 2 3 3 4 4 5 5 12 6 13 7 14 8 18 9 15 10 17 11 16 12
REMARK SMILES IDX 6 13 7 14 11 15 8 16 10 17 9 18
REMARK H PARENT
ROOT
ATOM      1  O   UNL     1      -2.353  -2.961   1.136  1.00  0.00    -0.246 OA
ATOM      2  C   UNL     1      -1.200  -2.572   1.047  1.00  0.00     0.339 C 
ATOM      3  O   UNL     1      -0.151  -3.334   1.381  1.00  0.00    -0.457 OA
ATOM      4  C   UNL     1       1.018  -2.659   1.110  1.00  0.00     0.270 C 
ATOM      5  C   UNL     1       0.581  -1.316   0.559  1.00  0.00     0.012 C 
ATOM      6  C   UNL     1      -0.770  -1.291   0.497  1.00  0.00     0.074 C 
ENDROOT
BRANCH   6   7
ATOM      7  C   UNL     1      -1.697  -0.254  -0.061  1.00  0.00    -0.011 A 
ATOM      8  C   UNL     1      -3.001  -0.111   0.453  1.00  0.00     0.009 A 
ATOM      9  C   UNL     1      -1.314   0.561  -1.147  1.00  0.00     0.009 A 
ATOM     10  C   UNL     1      -3.878   0.840  -0.080  1.00  0.00     0.001 A 
ATOM     11  C   UNL     1      -2.195   1.507  -1.677  1.00  0.00     0.001 A 
ATOM     12  C   UNL     1      -3.474   1.651  -1.141  1.00  0.00     0.000 A 
ENDBRANCH   6   7
BRANCH   5  13
ATOM     13  C   UNL     1       1.572  -0.243   0.226  1.00  0.00    -0.018 A 
ATOM     14  C   UNL     1       2.891  -0.592  -0.131  1.00  0.00     0.008 A 
ATOM     15  C   UNL     1       1.249   1.127   0.321  1.00  0.00     0.008 A 
ATOM     16  C   UNL     1       3.837   0.395  -0.425  1.00  0.00     0.001 A 
ATOM     17  C   UNL     1       2.199   2.109   0.030  1.00  0.00     0.001 A 
ATOM     18  C   UNL     1       3.490   1.744  -0.349  1.00  0.00     0.000 A 
ENDBRANCH   5  13
TORSDOF 2
