REMARK SMILES Oc1cc(O)c(Oc2cc(O)c(Oc3cc(O)c(O)c(O)c3Oc3cc(O)c(Oc4cc(O)c(O)c(O)c4Oc4cc(O)c(Oc5cc(O)c(O)c(O)c5Oc5cc(O)c(Oc6cc(O)c(O)c(O)c6Oc6cc(O)c(O)c(O)c6)c(O)c5)c(O)c4)c(O)c3)c(O)c2)c(O)c1
REMARK SMILES IDX 39 1 38 2 30 3 31 4 32 5 36 6 34 7 29 8 28 9 24 10 25 11
REMARK SMILES IDX 89 12 26 13 87 14 23 15 22 16 14 17 15 18 16 19 20 20 18 21
REMARK SMILES IDX 13 22 12 23 8 24 9 25 92 26 10 27 90 28 7 29 6 30 2 31 3 32
REMARK SMILES IDX 95 33 4 34 93 35 1 36 5 38 94 40 11 42 91 44 17 46 21 48
REMARK SMILES IDX 19 50 27 52 88 54 33 56 37 58 35 60 40 62 41 63 86 64 42 65
REMARK SMILES IDX 84 66 44 67 43 68 85 70 45 72 46 73 47 74 54 75 48 76 52 77
REMARK SMILES IDX 50 78 55 79 56 80 57 81 83 82 58 83 81 84 60 85 59 86 82 88
REMARK SMILES IDX 61 90 62 91 63 92 70 93 64 94 68 95 66 96 71 97 72 98 73 99
REMARK SMILES IDX 80 100 74 101 78 102 76 103 75 104 79 106 77 108 65 110
REMARK SMILES IDX 69 112 67 114 49 116 53 118 51 120
REMARK H PARENT 1 37 5 39 94 41 11 43 91 45 17 47 21 49 19 51 27 53 88 55
REMARK H PARENT 33 57 37 59 35 61 43 69 85 71 59 87 82 89 75 105 79 107 77 109
REMARK H PARENT 65 111 69 113 67 115 49 117 53 119 51 121
ROOT
ATOM      1  O   UNL     1       0.203   1.005   0.960  1.00  0.00    -0.449 OA
ENDROOT
BRANCH   1   2
ATOM      2  C   UNL     1       0.836   2.201   0.861  1.00  0.00     0.215 A 
ATOM      3  C   UNL     1       2.194   2.226   0.529  1.00  0.00     0.178 A 
ATOM      4  C   UNL     1       2.837   3.475   0.371  1.00  0.00     0.101 A 
ATOM      5  C   UNL     1       2.145   4.673   0.554  1.00  0.00     0.165 A 
ATOM      6  C   UNL     1       0.131   3.411   1.058  1.00  0.00     0.209 A 
ATOM      7  C   UNL     1       0.788   4.646   0.904  1.00  0.00     0.204 A 
BRANCH   3   8
ATOM      8  O   UNL     1       2.856   1.050   0.319  1.00  0.00    -0.445 OA
BRANCH   8   9
ATOM      9  C   UNL     1       4.207   0.974   0.260  1.00  0.00     0.211 A 
ATOM     10  C   UNL     1       7.008   1.057   0.048  1.00  0.00     0.135 A 
ATOM     11  C   UNL     1       6.362   1.495   1.222  1.00  0.00     0.097 A 
ATOM     12  C   UNL     1       6.241   0.515  -0.991  1.00  0.00     0.097 A 
ATOM     13  C   UNL     1       4.977   1.451   1.333  1.00  0.00     0.166 A 
ATOM     14  C   UNL     1       4.842   0.473  -0.894  1.00  0.00     0.166 A 
BRANCH  10  15
ATOM     15  O   UNL     1       8.355   1.175  -0.090  1.00  0.00    -0.449 OA
BRANCH  15  16
ATOM     16  C   UNL     1       9.047   2.079   0.646  1.00  0.00     0.215 A 
ATOM     17  C   UNL     1       9.823   1.644   1.724  1.00  0.00     0.178 A 
ATOM     18  C   UNL     1      10.447   2.576   2.559  1.00  0.00     0.101 A 
ATOM     19  C   UNL     1      10.325   3.950   2.299  1.00  0.00     0.165 A 
ATOM     20  C   UNL     1       8.918   3.453   0.376  1.00  0.00     0.209 A 
ATOM     21  C   UNL     1       9.565   4.392   1.199  1.00  0.00     0.204 A 
BRANCH  17  22
ATOM     22  O   UNL     1       9.942   0.318   1.955  1.00  0.00    -0.445 OA
BRANCH  22  23
ATOM     23  C   UNL     1      10.749  -0.486   1.214  1.00  0.00     0.211 A 
ATOM     24  C   UNL     1      12.396  -2.194  -0.307  1.00  0.00     0.135 A 
ATOM     25  C   UNL     1      12.825  -0.908   0.016  1.00  0.00     0.097 A 
ATOM     26  C   UNL     1      11.133  -2.631   0.129  1.00  0.00     0.097 A 
ATOM     27  C   UNL     1      12.026  -0.057   0.781  1.00  0.00     0.166 A 
ATOM     28  C   UNL     1      10.307  -1.782   0.877  1.00  0.00     0.166 A 
BRANCH  24  29
ATOM     29  O   UNL     1      13.231  -2.978  -1.028  1.00  0.00    -0.449 OA
BRANCH  29  30
ATOM     30  C   UNL     1      13.524  -4.255  -0.697  1.00  0.00     0.210 A 
ATOM     31  C   UNL     1      14.197  -6.883   0.025  1.00  0.00     0.123 A 
ATOM     32  C   UNL     1      13.095  -6.642  -0.811  1.00  0.00     0.096 A 
ATOM     33  C   UNL     1      14.961  -5.813   0.491  1.00  0.00     0.096 A 
ATOM     34  C   UNL     1      12.757  -5.330  -1.179  1.00  0.00     0.166 A 
ATOM     35  C   UNL     1      14.635  -4.503   0.136  1.00  0.00     0.166 A 
BRANCH  31  36
ATOM     36  O   UNL     1      14.531  -8.142   0.381  1.00  0.00    -0.508 OA
ATOM     37  H   UNL     1      14.030  -8.910   0.083  1.00  0.00     0.293 HD
ENDBRANCH  31  36
BRANCH  34  38
ATOM     38  O   UNL     1      11.704  -5.097  -1.990  1.00  0.00    -0.504 OA
ATOM     39  H   UNL     1      11.150  -5.814  -2.329  1.00  0.00     0.293 HD
ENDBRANCH  34  38
BRANCH  35  40
ATOM     40  O   UNL     1      15.404  -3.494   0.601  1.00  0.00    -0.504 OA
ATOM     41  H   UNL     1      15.246  -2.566   0.381  1.00  0.00     0.293 HD
ENDBRANCH  35  40
ENDBRANCH  29  30
ENDBRANCH  24  29
BRANCH  27  42
ATOM     42  O   UNL     1      12.495   1.161   1.120  1.00  0.00    -0.504 OA
ATOM     43  H   UNL     1      13.382   1.465   0.878  1.00  0.00     0.293 HD
ENDBRANCH  27  42
BRANCH  28  44
ATOM     44  O   UNL     1       9.085  -2.222   1.248  1.00  0.00    -0.504 OA
ATOM     45  H   UNL     1       8.450  -1.669   1.725  1.00  0.00     0.293 HD
ENDBRANCH  28  44
ENDBRANCH  22  23
ENDBRANCH  17  22
BRANCH  19  46
ATOM     46  O   UNL     1      10.935   4.848   3.101  1.00  0.00    -0.504 OA
ATOM     47  H   UNL     1      11.459   4.580   3.869  1.00  0.00     0.293 HD
ENDBRANCH  19  46
BRANCH  20  48
ATOM     48  O   UNL     1       8.161   3.848  -0.671  1.00  0.00    -0.501 OA
ATOM     49  H   UNL     1       8.035   4.777  -0.909  1.00  0.00     0.293 HD
ENDBRANCH  20  48
BRANCH  21  50
ATOM     50  O   UNL     1       9.437   5.710   0.930  1.00  0.00    -0.502 OA
ATOM     51  H   UNL     1       9.858   6.399   1.463  1.00  0.00     0.293 HD
ENDBRANCH  21  50
ENDBRANCH  15  16
ENDBRANCH  10  15
BRANCH  13  52
ATOM     52  O   UNL     1       4.374   1.889   2.459  1.00  0.00    -0.504 OA
ATOM     53  H   UNL     1       4.873   2.221   3.219  1.00  0.00     0.293 HD
ENDBRANCH  13  52
BRANCH  14  54
ATOM     54  O   UNL     1       4.126  -0.007  -1.932  1.00  0.00    -0.504 OA
ATOM     55  H   UNL     1       3.159  -0.046  -1.925  1.00  0.00     0.293 HD
ENDBRANCH  14  54
ENDBRANCH   8   9
ENDBRANCH   3   8
BRANCH   5  56
ATOM     56  O   UNL     1       2.780   5.853   0.387  1.00  0.00    -0.504 OA
ATOM     57  H   UNL     1       3.713   5.906   0.134  1.00  0.00     0.293 HD
ENDBRANCH   5  56
BRANCH   6  58
ATOM     58  O   UNL     1      -1.178   3.367   1.391  1.00  0.00    -0.501 OA
ATOM     59  H   UNL     1      -1.711   4.162   1.534  1.00  0.00     0.293 HD
ENDBRANCH   6  58
BRANCH   7  60
ATOM     60  O   UNL     1       0.101   5.796   1.083  1.00  0.00    -0.502 OA
ATOM     61  H   UNL     1       0.503   6.669   0.975  1.00  0.00     0.293 HD
ENDBRANCH   7  60
ENDBRANCH   1   2
BRANCH   1  62
ATOM     62  C   UNL     1      -0.888   0.677   0.221  1.00  0.00     0.135 A 
ATOM     63  C   UNL     1      -1.194   1.372  -0.962  1.00  0.00     0.097 A 
ATOM     64  C   UNL     1      -1.712  -0.378   0.624  1.00  0.00     0.097 A 
ATOM     65  C   UNL     1      -2.315   1.041  -1.717  1.00  0.00     0.166 A 
ATOM     66  C   UNL     1      -2.845  -0.726  -0.125  1.00  0.00     0.166 A 
ATOM     67  C   UNL     1      -3.163  -0.008  -1.298  1.00  0.00     0.211 A 
BRANCH  65  68
ATOM     68  O   UNL     1      -2.564   1.720  -2.857  1.00  0.00    -0.504 OA
ATOM     69  H   UNL     1      -1.984   2.425  -3.180  1.00  0.00     0.293 HD
ENDBRANCH  65  68
BRANCH  66  70
ATOM     70  O   UNL     1      -3.623  -1.741   0.307  1.00  0.00    -0.504 OA
ATOM     71  H   UNL     1      -4.421  -2.025  -0.160  1.00  0.00     0.293 HD
ENDBRANCH  66  70
BRANCH  67  72
ATOM     72  O   UNL     1      -4.272  -0.338  -2.011  1.00  0.00    -0.445 OA
BRANCH  72  73
ATOM     73  C   UNL     1      -5.059   0.596  -2.596  1.00  0.00     0.178 A 
ATOM     74  C   UNL     1      -5.116   0.694  -3.991  1.00  0.00     0.101 A 
ATOM     75  C   UNL     1      -5.806   1.482  -1.803  1.00  0.00     0.215 A 
ATOM     76  C   UNL     1      -5.889   1.696  -4.600  1.00  0.00     0.165 A 
ATOM     77  C   UNL     1      -6.590   2.477  -2.405  1.00  0.00     0.209 A 
ATOM     78  C   UNL     1      -6.628   2.592  -3.805  1.00  0.00     0.204 A 
BRANCH  75  79
ATOM     79  O   UNL     1      -5.789   1.394  -0.454  1.00  0.00    -0.449 OA
BRANCH  79  80
ATOM     80  C   UNL     1      -6.762   0.742   0.225  1.00  0.00     0.135 A 
ATOM     81  C   UNL     1      -7.422   1.404   1.261  1.00  0.00     0.097 A 
ATOM     82  C   UNL     1      -7.129  -0.575  -0.101  1.00  0.00     0.097 A 
ATOM     83  C   UNL     1      -8.473   0.781   1.946  1.00  0.00     0.166 A 
ATOM     84  C   UNL     1      -8.151  -1.223   0.601  1.00  0.00     0.166 A 
ATOM     85  C   UNL     1      -8.848  -0.535   1.614  1.00  0.00     0.211 A 
BRANCH  83  86
ATOM     86  O   UNL     1      -9.122   1.438   2.930  1.00  0.00    -0.504 OA
ATOM     87  H   UNL     1      -8.890   2.341   3.189  1.00  0.00     0.293 HD
ENDBRANCH  83  86
BRANCH  84  88
ATOM     88  O   UNL     1      -8.461  -2.496   0.276  1.00  0.00    -0.504 OA
ATOM     89  H   UNL     1      -9.147  -3.000   0.735  1.00  0.00     0.293 HD
ENDBRANCH  84  88
BRANCH  85  90
ATOM     90  O   UNL     1      -9.876  -1.132   2.268  1.00  0.00    -0.445 OA
BRANCH  90  91
ATOM     91  C   UNL     1     -11.143  -0.655   2.192  1.00  0.00     0.178 A 
ATOM     92  C   UNL     1     -11.796  -0.244   3.358  1.00  0.00     0.101 A 
ATOM     93  C   UNL     1     -11.816  -0.582   0.956  1.00  0.00     0.215 A 
ATOM     94  C   UNL     1     -13.100   0.268   3.301  1.00  0.00     0.165 A 
ATOM     95  C   UNL     1     -13.123  -0.077   0.891  1.00  0.00     0.209 A 
ATOM     96  C   UNL     1     -13.767   0.354   2.065  1.00  0.00     0.204 A 
BRANCH  93  97
ATOM     97  O   UNL     1     -11.211  -1.028  -0.172  1.00  0.00    -0.449 OA
BRANCH  97  98
ATOM     98  C   UNL     1     -11.447  -2.248  -0.731  1.00  0.00     0.135 A 
ATOM     99  C   UNL     1     -12.281  -3.207  -0.124  1.00  0.00     0.097 A 
ATOM    100  C   UNL     1     -10.815  -2.563  -1.940  1.00  0.00     0.097 A 
ATOM    101  C   UNL     1     -12.478  -4.461  -0.718  1.00  0.00     0.165 A 
ATOM    102  C   UNL     1     -11.005  -3.812  -2.543  1.00  0.00     0.165 A 
ATOM    103  C   UNL     1     -11.839  -4.768  -1.933  1.00  0.00     0.200 A 
BRANCH 101 104
ATOM    104  O   UNL     1     -13.275  -5.374  -0.124  1.00  0.00    -0.504 OA
ATOM    105  H   UNL     1     -13.727  -5.199   0.714  1.00  0.00     0.293 HD
ENDBRANCH 101 104
BRANCH 102 106
ATOM    106  O   UNL     1     -10.373  -4.077  -3.706  1.00  0.00    -0.504 OA
ATOM    107  H   UNL     1     -10.460  -4.923  -4.169  1.00  0.00     0.293 HD
ENDBRANCH 102 106
BRANCH 103 108
ATOM    108  O   UNL     1     -12.013  -5.974  -2.518  1.00  0.00    -0.502 OA
ATOM    109  H   UNL     1     -12.570  -6.668  -2.138  1.00  0.00     0.293 HD
ENDBRANCH 103 108
ENDBRANCH  97  98
ENDBRANCH  93  97
BRANCH  94 110
ATOM    110  O   UNL     1     -13.716   0.677   4.430  1.00  0.00    -0.504 OA
ATOM    111  H   UNL     1     -13.287   0.637   5.296  1.00  0.00     0.293 HD
ENDBRANCH  94 110
BRANCH  95 112
ATOM    112  O   UNL     1     -13.745  -0.018  -0.308  1.00  0.00    -0.501 OA
ATOM    113  H   UNL     1     -14.645   0.320  -0.416  1.00  0.00     0.293 HD
ENDBRANCH  95 112
BRANCH  96 114
ATOM    114  O   UNL     1     -15.024   0.846   1.990  1.00  0.00    -0.502 OA
ATOM    115  H   UNL     1     -15.513   1.160   2.764  1.00  0.00     0.293 HD
ENDBRANCH  96 114
ENDBRANCH  90  91
ENDBRANCH  85  90
ENDBRANCH  79  80
ENDBRANCH  75  79
BRANCH  76 116
ATOM    116  O   UNL     1      -5.919   1.808  -5.944  1.00  0.00    -0.504 OA
ATOM    117  H   UNL     1      -5.409   1.224  -6.522  1.00  0.00     0.293 HD
ENDBRANCH  76 116
BRANCH  77 118
ATOM    118  O   UNL     1      -7.291   3.321  -1.616  1.00  0.00    -0.501 OA
ATOM    119  H   UNL     1      -7.846   4.033  -1.965  1.00  0.00     0.293 HD
ENDBRANCH  77 118
BRANCH  78 120
ATOM    120  O   UNL     1      -7.373   3.568  -4.368  1.00  0.00    -0.502 OA
ATOM    121  H   UNL     1      -7.427   3.704  -5.324  1.00  0.00     0.293 HD
ENDBRANCH  78 120
ENDBRANCH  72  73
ENDBRANCH  67  72
ENDBRANCH   1  62
TORSDOF 44
