REMARK SMILES CC1=C[C@H]2/C=C(/C)CC[C@H]3O[C@@H]3/C=C\C(=O)O[C@]23C(O)=N[C@H](CC(C)C)[C@@H]3[C@H]1C
REMARK SMILES IDX 17 1 18 2 4 3 3 4 2 5 19 6 27 7 28 8 21 9 22 10 1 11 29 12
REMARK SMILES IDX 5 13 6 14 7 15 8 16 20 18 23 20 24 21 25 22 26 23 15 24
REMARK SMILES IDX 16 25 14 26 13 27 12 28 11 29 10 30 9 31
REMARK H PARENT 20 19
REMARK Flexibility Score:   38.900
ROOT
ATOM      1  O   UNL     1      -1.199  -0.831  -0.594  1.00  0.00    -0.445 OA
ENDROOT
BRANCH   1   2
ATOM      2  C   UNL     1      -0.156  -0.263   0.178  1.00  0.00     0.202 C 
ATOM      3  C   UNL     1      -0.532   1.079   0.887  1.00  0.00     0.089 C 
ATOM      4  C   UNL     1      -0.556   2.236  -0.086  1.00  0.00    -0.016 C 
ATOM      5  C   UNL     1       0.447   2.382  -0.971  1.00  0.00    -0.073 C 
ATOM      6  C   UNL     1       0.278  -1.268   1.203  1.00  0.00     0.228 C 
ATOM      7  C   UNL     1       1.156  -0.070  -0.677  1.00  0.00     0.076 C 
ATOM      8  C   UNL     1       1.627   1.416  -0.886  1.00  0.00     0.021 C 
ATOM      9  N   UNL     1       1.478  -1.681   1.066  1.00  0.00    -0.248 NA
ATOM     10  C   UNL     1       2.202  -1.037  -0.003  1.00  0.00     0.117 C 
ATOM     11  C   UNL     1       0.396   3.514  -1.972  1.00  0.00     0.039 C 
ATOM     12  C   UNL     1       2.577   1.540  -2.096  1.00  0.00     0.013 C 
BRANCH   3  13
ATOM     13  C   UNL     1      -1.724   1.018   1.830  1.00  0.00    -0.016 C 
ATOM     14  C   UNL     1      -3.045   1.202   1.563  1.00  0.00    -0.076 C 
ATOM     15  C   UNL     1      -4.017   1.167   2.724  1.00  0.00     0.039 C 
BRANCH  14  16
ATOM     16  C   UNL     1      -3.617   1.528   0.189  1.00  0.00     0.033 CG0
ATOM     17  G   UNL     1      -4.785   0.646  -0.230  1.00  0.00     0.000 G0
ENDBRANCH  14  16
ENDBRANCH   3  13
BRANCH   6  18
ATOM     18  O   UNL     1      -0.538  -1.751   2.162  1.00  0.00    -0.494 OA
ATOM     19  H   UNL     1      -0.232  -2.411   2.799  1.00  0.00     0.295 HD
ENDBRANCH   6  18
BRANCH  10  20
ATOM     20  C   UNL     1       3.476  -0.407   0.621  1.00  0.00     0.031 C 
BRANCH  20  21
ATOM     21  C   UNL     1       4.428  -1.437   1.284  1.00  0.00    -0.015 C 
ATOM     22  C   UNL     1       5.602  -0.699   1.942  1.00  0.00     0.007 C 
ATOM     23  C   UNL     1       4.976  -2.465   0.279  1.00  0.00     0.007 C 
ENDBRANCH  20  21
ENDBRANCH  10  20
ENDBRANCH   1   2
BRANCH   1  24
ATOM     24  C   UNL     1      -1.091  -2.072  -1.203  1.00  0.00     0.331 C 
ATOM     25  O   UNL     1      -0.046  -2.701  -1.118  1.00  0.00    -0.247 OA
BRANCH  24  26
ATOM     26  C   UNL     1      -2.157  -2.764  -1.972  1.00  0.00     0.092 C 
ATOM     27  C   UNL     1      -3.397  -2.375  -2.281  1.00  0.00     0.015 C 
BRANCH  27  28
ATOM     28  C   UNL     1      -4.052  -1.096  -1.912  1.00  0.00     0.171 C 
ATOM     29  O   UNL     1      -5.264  -1.457  -1.264  1.00  0.00    -0.365 OA
ATOM     30  C   UNL     1      -4.327  -0.782  -0.487  1.00  0.00     0.152 C 
BRANCH  30  31
ATOM     31  C   UNL     1      -4.785   0.646  -0.230  1.00  0.00     0.039 CG0
ATOM     32  G   UNL     1      -3.617   1.528   0.189  1.00  0.00     0.000 G0
ENDBRANCH  30  31
ENDBRANCH  27  28
ENDBRANCH  24  26
ENDBRANCH   1  24
TORSDOF 3
