REMARK SMILES CC[C@H](C)[C@]1(OC)NC(=O)[C@@H](C(C)C)n2c1nc1ccc(OC)cc1c2=O
REMARK SMILES IDX 5 1 8 2 9 3 10 4 11 5 15 6 16 7 17 8 18 9 19 10 20 11 21 12
REMARK SMILES IDX 24 13 25 14 26 15 27 16 3 18 4 19 2 20 1 21 6 22 7 23 12 24
REMARK SMILES IDX 13 25 14 26 22 27 23 28
REMARK H PARENT 8 17
ROOT
ATOM      1  C   UNL     1      -1.904  -0.198   0.208  1.00  0.00     0.202 C 
ATOM      2  N   UNL     1      -2.610   0.581  -0.812  1.00  0.00    -0.320 N 
ATOM      3  C   UNL     1      -2.132   1.777  -1.252  1.00  0.00     0.246 C 
ATOM      4  O   UNL     1      -2.696   2.355  -2.171  1.00  0.00    -0.273 OA
ATOM      5  C   UNL     1      -0.826   2.317  -0.708  1.00  0.00     0.184 C 
ATOM      6  N   UNL     1       0.100   1.174  -0.501  1.00  0.00    -0.279 N 
ATOM      7  C   UNL     1      -0.399  -0.034  -0.064  1.00  0.00     0.166 A 
ATOM      8  N   UNL     1       0.438  -1.092   0.111  1.00  0.00    -0.229 NA
ATOM      9  C   UNL     1       1.765  -1.006  -0.134  1.00  0.00     0.078 A 
ATOM     10  C   UNL     1       2.584  -2.118   0.078  1.00  0.00     0.033 A 
ATOM     11  C   UNL     1       3.956  -2.038  -0.175  1.00  0.00     0.048 A 
ATOM     12  C   UNL     1       4.523  -0.838  -0.649  1.00  0.00     0.119 A 
ATOM     13  C   UNL     1       3.695   0.273  -0.862  1.00  0.00     0.062 A 
ATOM     14  C   UNL     1       2.314   0.198  -0.604  1.00  0.00     0.069 A 
ATOM     15  C   UNL     1       1.452   1.291  -0.795  1.00  0.00     0.262 A 
ATOM     16  O   UNL     1       1.902   2.348  -1.209  1.00  0.00    -0.269 OA
ATOM     17  H   UNL     1      -3.446   0.202  -1.280  1.00  0.00     0.166 HD
ENDROOT
BRANCH   1  18
ATOM     18  C   UNL     1      -2.367  -1.713   0.128  1.00  0.00     0.047 C 
ATOM     19  C   UNL     1      -3.837  -1.879   0.576  1.00  0.00     0.013 C 
BRANCH  18  20
ATOM     20  C   UNL     1      -2.139  -2.307  -1.297  1.00  0.00     0.005 C 
ATOM     21  C   UNL     1      -2.399  -3.812  -1.389  1.00  0.00     0.004 C 
ENDBRANCH  18  20
ENDBRANCH   1  18
BRANCH   1  22
ATOM     22  O   UNL     1      -2.246   0.374   1.471  1.00  0.00    -0.352 OA
ATOM     23  C   UNL     1      -1.529  -0.165   2.569  1.00  0.00     0.198 C 
ENDBRANCH   1  22
BRANCH   5  24
ATOM     24  C   UNL     1      -1.018   3.173   0.584  1.00  0.00     0.015 C 
ATOM     25  C   UNL     1       0.325   3.701   1.114  1.00  0.00     0.010 C 
ATOM     26  C   UNL     1      -1.949   4.369   0.316  1.00  0.00     0.010 C 
ENDBRANCH   5  24
BRANCH  12  27
ATOM     27  O   UNL     1       5.850  -0.709  -0.909  1.00  0.00    -0.497 OA
ATOM     28  C   UNL     1       6.803  -1.692  -0.739  1.00  0.00     0.278 C 
ENDBRANCH  12  27
TORSDOF 5
