REMARK SMILES CCOC(=O)[C@@H](C(C)=O)[C@@H](c1ccc(OCCC(C)C)cc1)[C@@H](C(C)=O)C(=O)OCC
REMARK SMILES IDX 11 1 12 2 13 3 14 4 21 5 22 6 10 7 6 8 4 9 5 10 3 11 2 12
REMARK SMILES IDX 1 13 7 14 9 15 8 16 23 17 24 18 26 19 25 20 27 21 28 22
REMARK SMILES IDX 29 23 30 24 31 25 15 26 16 27 17 28 18 29 19 30 20 31
REMARK H PARENT
ROOT
ATOM      1  C   UNL     1      -0.543  -0.250   0.405  1.00  0.00    -0.042 A 
ATOM      2  C   UNL     1       0.049  -0.271  -0.873  1.00  0.00     0.008 A 
ATOM      3  C   UNL     1       1.430  -0.427  -1.015  1.00  0.00     0.047 A 
ATOM      4  C   UNL     1       2.250  -0.570   0.120  1.00  0.00     0.119 A 
ATOM      5  C   UNL     1       1.663  -0.562   1.389  1.00  0.00     0.047 A 
ATOM      6  C   UNL     1       0.282  -0.404   1.534  1.00  0.00     0.008 A 
ENDROOT
BRANCH   1   7
ATOM      7  C   UNL     1      -2.055  -0.059   0.578  1.00  0.00     0.063 C 
BRANCH   7   8
ATOM      8  C   UNL     1      -2.833  -1.243  -0.130  1.00  0.00     0.174 C 
BRANCH   8   9
ATOM      9  C   UNL     1      -2.297  -2.630   0.203  1.00  0.00     0.317 C 
ATOM     10  O   UNL     1      -1.425  -2.784   1.047  1.00  0.00    -0.251 OA
BRANCH   9  11
ATOM     11  O   UNL     1      -2.814  -3.708  -0.446  1.00  0.00    -0.465 OA
BRANCH  11  12
ATOM     12  C   UNL     1      -2.482  -5.028  -0.206  1.00  0.00     0.229 C 
ATOM     13  C   UNL     1      -2.921  -5.473   1.188  1.00  0.00     0.049 C 
ENDBRANCH  11  12
ENDBRANCH   9  11
ENDBRANCH   8   9
BRANCH   8  14
ATOM     14  C   UNL     1      -4.321  -1.284   0.196  1.00  0.00     0.144 C 
ATOM     15  O   UNL     1      -4.752  -0.743   1.202  1.00  0.00    -0.299 OA
ATOM     16  C   UNL     1      -5.284  -2.062  -0.655  1.00  0.00     0.088 C 
ENDBRANCH   8  14
ENDBRANCH   7   8
BRANCH   7  17
ATOM     17  C   UNL     1      -2.417   1.372   0.007  1.00  0.00     0.174 C 
BRANCH  17  18
ATOM     18  C   UNL     1      -3.894   1.697   0.035  1.00  0.00     0.144 C 
ATOM     19  O   UNL     1      -4.456   1.898   1.102  1.00  0.00    -0.299 OA
ATOM     20  C   UNL     1      -4.690   1.794  -1.238  1.00  0.00     0.088 C 
ENDBRANCH  17  18
BRANCH  17  21
ATOM     21  C   UNL     1      -1.683   2.498   0.725  1.00  0.00     0.317 C 
ATOM     22  O   UNL     1      -1.000   2.266   1.712  1.00  0.00    -0.251 OA
BRANCH  21  23
ATOM     23  O   UNL     1      -1.815   3.775   0.277  1.00  0.00    -0.465 OA
BRANCH  23  24
ATOM     24  C   UNL     1      -1.182   4.851   0.875  1.00  0.00     0.229 C 
ATOM     25  C   UNL     1      -1.551   6.138   0.154  1.00  0.00     0.049 C 
ENDBRANCH  23  24
ENDBRANCH  21  23
ENDBRANCH  17  21
ENDBRANCH   7  17
ENDBRANCH   1   7
BRANCH   4  26
ATOM     26  O   UNL     1       3.598  -0.706   0.035  1.00  0.00    -0.494 OA
BRANCH  26  27
ATOM     27  C   UNL     1       4.335  -0.711  -1.133  1.00  0.00     0.230 C 
BRANCH  27  28
ATOM     28  C   UNL     1       5.829  -0.828  -0.811  1.00  0.00     0.044 C 
BRANCH  28  29
ATOM     29  C   UNL     1       6.364   0.297   0.109  1.00  0.00    -0.014 C 
ATOM     30  C   UNL     1       6.202   1.693  -0.514  1.00  0.00     0.007 C 
ATOM     31  C   UNL     1       7.844   0.044   0.421  1.00  0.00     0.007 C 
ENDBRANCH  28  29
ENDBRANCH  27  28
ENDBRANCH  26  27
ENDBRANCH   4  26
TORSDOF 15
