REMARK SMILES O=c1c(O)c(-c2ccc(O)cc2)oc2cc(O[C@@H]3O[C@H](CO)[C@@H](O)[C@H](O)[C@H]3O)c(Cc3ccc(O)cc3)c(O)c12
REMARK SMILES IDX 1 1 2 2 3 3 5 4 13 5 14 6 15 7 16 8 29 9 38 10 40 11 4 12
REMARK SMILES IDX 6 14 7 15 12 16 8 17 11 18 9 19 10 20 39 22 30 24 31 25
REMARK SMILES IDX 32 26 37 27 33 28 36 29 34 30 35 31 17 33 18 34 19 35 27 36
REMARK SMILES IDX 20 37 25 38 23 39 28 40 21 42 22 43 26 45 24 47
REMARK H PARENT 4 13 10 21 39 23 35 32 28 41 22 44 26 46 24 48
ROOT
ATOM      1  O   UNL     1       4.032   2.626  -2.348  1.00  0.00    -0.285 OA
ATOM      2  C   UNL     1       3.698   1.607  -1.766  1.00  0.00     0.238 A 
ATOM      3  C   UNL     1       4.686   0.671  -1.401  1.00  0.00     0.208 A 
ATOM      4  C   UNL     1       4.293  -0.513  -0.725  1.00  0.00     0.180 A 
ATOM      5  O   UNL     1       2.999  -0.688  -0.461  1.00  0.00    -0.452 OA
ATOM      6  C   UNL     1       2.040   0.170  -0.783  1.00  0.00     0.146 A 
ATOM      7  C   UNL     1       0.728  -0.136  -0.435  1.00  0.00     0.095 A 
ATOM      8  C   UNL     1      -0.327   0.739  -0.749  1.00  0.00     0.134 A 
ATOM      9  C   UNL     1      -0.049   1.951  -1.427  1.00  0.00     0.041 A 
ATOM     10  C   UNL     1       1.295   2.264  -1.790  1.00  0.00     0.137 A 
ATOM     11  C   UNL     1       2.341   1.364  -1.458  1.00  0.00     0.111 A 
ENDROOT
BRANCH   3  12
ATOM     12  O   UNL     1       5.977   0.915  -1.704  1.00  0.00    -0.502 OA
ATOM     13  H   UNL     1       6.279   1.713  -2.161  1.00  0.00     0.293 HD
ENDBRANCH   3  12
BRANCH   4  14
ATOM     14  C   UNL     1       5.219  -1.614  -0.272  1.00  0.00     0.021 A 
ATOM     15  C   UNL     1       6.630  -1.582  -0.395  1.00  0.00     0.016 A 
ATOM     16  C   UNL     1       4.645  -2.764   0.319  1.00  0.00     0.016 A 
ATOM     17  C   UNL     1       7.416  -2.650   0.050  1.00  0.00     0.047 A 
ATOM     18  C   UNL     1       5.436  -3.828   0.759  1.00  0.00     0.047 A 
ATOM     19  C   UNL     1       6.822  -3.776   0.626  1.00  0.00     0.115 A 
BRANCH  19  20
ATOM     20  O   UNL     1       7.572  -4.811   1.056  1.00  0.00    -0.508 OA
ATOM     21  H   UNL     1       8.537  -4.813   0.981  1.00  0.00     0.293 HD
ENDBRANCH  19  20
ENDBRANCH   4  14
BRANCH  10  22
ATOM     22  O   UNL     1       1.617   3.415  -2.429  1.00  0.00    -0.507 OA
ATOM     23  H   UNL     1       1.016   4.125  -2.675  1.00  0.00     0.293 HD
ENDBRANCH  10  22
BRANCH   9  24
ATOM     24  C   UNL     1      -1.222   2.870  -1.743  1.00  0.00     0.079 C 
BRANCH  24  25
ATOM     25  C   UNL     1      -1.761   3.493  -0.480  1.00  0.00    -0.043 A 
ATOM     26  C   UNL     1      -3.075   3.244  -0.051  1.00  0.00     0.008 A 
ATOM     27  C   UNL     1      -0.941   4.348   0.276  1.00  0.00     0.008 A 
ATOM     28  C   UNL     1      -3.557   3.841   1.119  1.00  0.00     0.046 A 
ATOM     29  C   UNL     1      -1.425   4.944   1.442  1.00  0.00     0.046 A 
ATOM     30  C   UNL     1      -2.732   4.694   1.869  1.00  0.00     0.115 A 
BRANCH  30  31
ATOM     31  O   UNL     1      -3.185   5.280   2.996  1.00  0.00    -0.508 OA
ATOM     32  H   UNL     1      -4.084   5.138   3.324  1.00  0.00     0.293 HD
ENDBRANCH  30  31
ENDBRANCH  24  25
ENDBRANCH   9  24
BRANCH   8  33
ATOM     33  O   UNL     1      -1.624   0.467  -0.425  1.00  0.00    -0.461 OA
BRANCH  33  34
ATOM     34  C   UNL     1      -2.196  -0.713   0.026  1.00  0.00     0.339 C 
ATOM     35  O   UNL     1      -3.269  -1.042  -0.844  1.00  0.00    -0.332 OA
ATOM     36  C   UNL     1      -2.730  -0.485   1.456  1.00  0.00     0.214 C 
ATOM     37  C   UNL     1      -3.856  -2.288  -0.490  1.00  0.00     0.179 C 
ATOM     38  C   UNL     1      -3.436  -1.764   1.944  1.00  0.00     0.180 C 
ATOM     39  C   UNL     1      -4.505  -2.186   0.918  1.00  0.00     0.177 C 
BRANCH  36  40
ATOM     40  O   UNL     1      -1.696  -0.113   2.333  1.00  0.00    -0.384 OA
ATOM     41  H   UNL     1      -1.021  -0.842   2.328  1.00  0.00     0.211 HD
ENDBRANCH  36  40
BRANCH  37  42
ATOM     42  C   UNL     1      -4.893  -2.639  -1.570  1.00  0.00     0.191 C 
BRANCH  42  43
ATOM     43  O   UNL     1      -5.488  -3.886  -1.329  1.00  0.00    -0.394 OA
ATOM     44  H   UNL     1      -4.822  -4.574  -1.591  1.00  0.00     0.210 HD
ENDBRANCH  42  43
ENDBRANCH  37  42
BRANCH  38  45
ATOM     45  O   UNL     1      -3.994  -1.583   3.222  1.00  0.00    -0.387 OA
ATOM     46  H   UNL     1      -4.669  -0.858   3.154  1.00  0.00     0.211 HD
ENDBRANCH  38  45
BRANCH  39  47
ATOM     47  O   UNL     1      -5.111  -3.393   1.310  1.00  0.00    -0.387 OA
ATOM     48  H   UNL     1      -4.410  -4.096   1.304  1.00  0.00     0.211 HD
ENDBRANCH  39  47
ENDBRANCH  33  34
ENDBRANCH   8  33
TORSDOF 14
