REMARK SMILES CC(=O)OC[C@@H]1O[C@@H](c2c(O)cc(O)c3c(=O)cc(-c4ccc(O)c(O)c4)oc23)[C@H](O)[C@@H](O)[C@@H]1O
REMARK SMILES IDX 6 1 7 2 8 3 30 4 32 5 34 6 5 7 4 8 2 9 3 10 1 11 35 12 9 14
REMARK SMILES IDX 10 15 29 16 12 17 15 18 28 19 13 20 16 21 19 22 18 23 17 24
REMARK SMILES IDX 11 25 14 27 20 29 21 30 27 31 22 32 25 33 23 34 26 35 24 37
REMARK SMILES IDX 33 39 31 41
REMARK H PARENT 35 13 11 26 14 28 26 36 24 38 33 40 31 42
ROOT
ATOM      1  C   UNL     1       3.044   0.083   1.190  1.00  0.00     0.188 C 
ATOM      2  O   UNL     1       2.360   0.016  -0.067  1.00  0.00    -0.361 OA
ATOM      3  C   UNL     1       1.149  -0.728  -0.064  1.00  0.00     0.188 C 
ATOM      4  C   UNL     1       1.243  -2.142   0.594  1.00  0.00     0.179 C 
ATOM      5  C   UNL     1       2.205  -2.181   1.819  1.00  0.00     0.177 C 
ATOM      6  C   UNL     1       2.420  -0.764   2.361  1.00  0.00     0.178 C 
ENDROOT
BRANCH   1   7
ATOM      7  C   UNL     1       3.319   1.546   1.568  1.00  0.00     0.267 C 
BRANCH   7   8
ATOM      8  O   UNL     1       4.031   2.154   0.553  1.00  0.00    -0.463 OA
BRANCH   8   9
ATOM      9  C   UNL     1       4.446   3.446   0.587  1.00  0.00     0.302 C 
ATOM     10  O   UNL     1       4.215   4.154   1.557  1.00  0.00    -0.253 OA
ATOM     11  C   UNL     1       5.195   4.002  -0.580  1.00  0.00     0.139 C 
ENDBRANCH   8   9
ENDBRANCH   7   8
ENDBRANCH   1   7
BRANCH   6  12
ATOM     12  O   UNL     1       1.191  -0.284   2.864  1.00  0.00    -0.387 OA
ATOM     13  H   UNL     1       1.067   0.664   2.620  1.00  0.00     0.211 HD
ENDBRANCH   6  12
BRANCH   3  14
ATOM     14  C   UNL     1       0.625  -0.868  -1.490  1.00  0.00     0.069 A 
ATOM     15  C   UNL     1       1.477  -1.268  -2.558  1.00  0.00     0.128 A 
ATOM     16  C   UNL     1      -0.744  -0.628  -1.767  1.00  0.00     0.152 A 
ATOM     17  C   UNL     1       0.972  -1.381  -3.851  1.00  0.00     0.093 A 
ATOM     18  C   UNL     1      -1.248  -0.765  -3.085  1.00  0.00     0.107 A 
ATOM     19  O   UNL     1      -1.574  -0.306  -0.774  1.00  0.00    -0.455 OA
ATOM     20  C   UNL     1      -0.374  -1.132  -4.130  1.00  0.00     0.134 A 
ATOM     21  C   UNL     1      -2.625  -0.541  -3.288  1.00  0.00     0.197 A 
ATOM     22  C   UNL     1      -2.882  -0.102  -0.926  1.00  0.00     0.138 A 
ATOM     23  C   UNL     1      -3.441  -0.213  -2.213  1.00  0.00     0.100 A 
ATOM     24  O   UNL     1      -3.124  -0.640  -4.398  1.00  0.00    -0.289 OA
BRANCH  15  25
ATOM     25  O   UNL     1       2.788  -1.555  -2.388  1.00  0.00    -0.507 OA
ATOM     26  H   UNL     1       3.252  -1.558  -1.544  1.00  0.00     0.293 HD
ENDBRANCH  15  25
BRANCH  20  27
ATOM     27  O   UNL     1      -0.822  -1.264  -5.396  1.00  0.00    -0.507 OA
ATOM     28  H   UNL     1      -0.243  -1.521  -6.128  1.00  0.00     0.293 HD
ENDBRANCH  20  27
BRANCH  22  29
ATOM     29  C   UNL     1      -3.699   0.212   0.287  1.00  0.00     0.021 A 
ATOM     30  C   UNL     1      -3.055   0.322   1.536  1.00  0.00     0.016 A 
ATOM     31  C   UNL     1      -5.099   0.395   0.240  1.00  0.00     0.062 A 
ATOM     32  C   UNL     1      -3.782   0.604   2.695  1.00  0.00     0.051 A 
ATOM     33  C   UNL     1      -5.829   0.677   1.401  1.00  0.00     0.158 A 
ATOM     34  C   UNL     1      -5.170   0.782   2.636  1.00  0.00     0.157 A 
BRANCH  33  35
ATOM     35  O   UNL     1      -7.167   0.839   1.305  1.00  0.00    -0.504 OA
ATOM     36  H   UNL     1      -7.727   1.033   2.071  1.00  0.00     0.293 HD
ENDBRANCH  33  35
BRANCH  34  37
ATOM     37  O   UNL     1      -5.870   1.054   3.756  1.00  0.00    -0.504 OA
ATOM     38  H   UNL     1      -5.448   1.133   4.623  1.00  0.00     0.293 HD
ENDBRANCH  34  37
ENDBRANCH  22  29
ENDBRANCH   3  14
BRANCH   5  39
ATOM     39  O   UNL     1       3.448  -2.765   1.493  1.00  0.00    -0.387 OA
ATOM     40  H   UNL     1       3.694  -2.531   0.562  1.00  0.00     0.211 HD
ENDBRANCH   5  39
BRANCH   4  41
ATOM     41  O   UNL     1      -0.052  -2.560   0.958  1.00  0.00    -0.387 OA
ATOM     42  H   UNL     1      -0.375  -1.963   1.683  1.00  0.00     0.211 HD
ENDBRANCH   4  41
TORSDOF 12
