REMARK SMILES COc1cc(C=CC(=O)OC[C@@H]2O[C@@H](Oc3c(OC)cc(C[C@@H]4CO[C@@H](c5cc(OC)c(O)c(OC)c5)[C@H]4CO)cc3OC)[C@H](O)[C@@H](O)[C@H]2OC(=O)C=Cc2ccc(O)c(OC)c2)ccc1O
REMARK SMILES IDX 12 1 13 2 14 3 45 4 47 5 49 6 11 7 10 8 8 9 9 10 7 11 6 12
REMARK SMILES IDX 5 13 3 14 4 15 66 16 65 17 64 18 2 19 1 20 67 21 50 23 51 24
REMARK SMILES IDX 52 25 53 26 54 27 55 28 56 29 63 30 57 31 60 32 58 33 61 34
REMARK SMILES IDX 62 35 59 36 15 38 16 39 17 40 42 41 20 42 41 43 21 44 18 45
REMARK SMILES IDX 19 46 43 47 44 48 22 49 23 50 24 51 38 52 25 53 26 54 39 55
REMARK SMILES IDX 40 56 27 58 28 59 37 60 29 61 34 62 32 63 30 64 31 65 35 66
REMARK SMILES IDX 36 67 33 68 48 70 46 72
REMARK H PARENT 67 22 59 37 40 57 33 69 48 71 46 73
ROOT
ATOM      1  C   UNL     1      -3.312   0.275   0.087  1.00  0.00     0.204 C 
ATOM      2  O   UNL     1      -2.594   0.361  -1.145  1.00  0.00    -0.330 OA
ATOM      3  C   UNL     1      -1.848  -0.805  -1.431  1.00  0.00     0.339 C 
ATOM      4  C   UNL     1      -2.761  -2.043  -1.612  1.00  0.00     0.215 C 
ATOM      5  C   UNL     1      -4.204  -1.732  -1.153  1.00  0.00     0.193 C 
ATOM      6  C   UNL     1      -4.153  -1.048   0.237  1.00  0.00     0.240 C 
ENDROOT
BRANCH   1   7
ATOM      7  C   UNL     1      -4.194   1.532   0.168  1.00  0.00     0.269 C 
BRANCH   7   8
ATOM      8  O   UNL     1      -3.370   2.642   0.134  1.00  0.00    -0.460 OA
BRANCH   8   9
ATOM      9  C   UNL     1      -3.777   3.938   0.154  1.00  0.00     0.330 C 
ATOM     10  O   UNL     1      -4.960   4.212   0.092  1.00  0.00    -0.247 OA
BRANCH   9  11
ATOM     11  C   UNL     1      -2.709   4.974   0.140  1.00  0.00     0.094 C 
ATOM     12  C   UNL     1      -2.752   6.327   0.185  1.00  0.00     0.016 C 
BRANCH  12  13
ATOM     13  C   UNL     1      -3.872   7.305   0.349  1.00  0.00    -0.021 A 
ATOM     14  C   UNL     1      -6.114   8.023   1.047  1.00  0.00     0.161 A 
ATOM     15  C   UNL     1      -5.124   7.019   0.927  1.00  0.00     0.058 A 
ATOM     16  C   UNL     1      -5.839   9.319   0.592  1.00  0.00     0.157 A 
ATOM     17  C   UNL     1      -4.591   9.615   0.037  1.00  0.00     0.051 A 
ATOM     18  C   UNL     1      -3.620   8.622  -0.075  1.00  0.00     0.012 A 
BRANCH  14  19
ATOM     19  O   UNL     1      -7.333   7.784   1.600  1.00  0.00    -0.493 OA
ATOM     20  C   UNL     1      -7.773   6.579   2.106  1.00  0.00     0.278 C 
ENDBRANCH  14  19
BRANCH  16  21
ATOM     21  O   UNL     1      -6.780  10.279   0.701  1.00  0.00    -0.504 OA
ATOM     22  H   UNL     1      -6.629  11.187   0.401  1.00  0.00     0.293 HD
ENDBRANCH  16  21
ENDBRANCH  12  13
ENDBRANCH   9  11
ENDBRANCH   8   9
ENDBRANCH   7   8
ENDBRANCH   1   7
BRANCH   6  23
ATOM     23  O   UNL     1      -3.515  -1.842   1.183  1.00  0.00    -0.453 OA
BRANCH  23  24
ATOM     24  C   UNL     1      -3.797  -3.048   1.767  1.00  0.00     0.331 C 
ATOM     25  O   UNL     1      -2.891  -3.568   2.397  1.00  0.00    -0.247 OA
BRANCH  24  26
ATOM     26  C   UNL     1      -5.069  -3.836   1.683  1.00  0.00     0.094 C 
ATOM     27  C   UNL     1      -6.257  -3.412   1.213  1.00  0.00     0.016 C 
BRANCH  27  28
ATOM     28  C   UNL     1      -7.470  -4.266   1.050  1.00  0.00    -0.021 A 
ATOM     29  C   UNL     1      -8.607  -3.674   0.476  1.00  0.00     0.012 A 
ATOM     30  C   UNL     1      -7.520  -5.634   1.395  1.00  0.00     0.058 A 
ATOM     31  C   UNL     1      -9.760  -4.419   0.242  1.00  0.00     0.051 A 
ATOM     32  C   UNL     1      -8.687  -6.394   1.159  1.00  0.00     0.161 A 
ATOM     33  C   UNL     1      -9.804  -5.777   0.577  1.00  0.00     0.157 A 
BRANCH  32  34
ATOM     34  O   UNL     1      -8.772  -7.716   1.466  1.00  0.00    -0.493 OA
ATOM     35  C   UNL     1      -7.780  -8.480   2.046  1.00  0.00     0.278 C 
ENDBRANCH  32  34
BRANCH  33  36
ATOM     36  O   UNL     1     -10.917  -6.502   0.337  1.00  0.00    -0.504 OA
ATOM     37  H   UNL     1     -11.702  -6.116  -0.077  1.00  0.00     0.293 HD
ENDBRANCH  33  36
ENDBRANCH  27  28
ENDBRANCH  24  26
ENDBRANCH  23  24
ENDBRANCH   6  23
BRANCH   3  38
ATOM     38  O   UNL     1      -0.901  -1.015  -0.441  1.00  0.00    -0.454 OA
BRANCH  38  39
ATOM     39  C   UNL     1       0.419  -0.963  -0.719  1.00  0.00     0.206 A 
ATOM     40  C   UNL     1       1.078  -2.106  -1.200  1.00  0.00     0.165 A 
ATOM     41  C   UNL     1       1.106   0.247  -0.552  1.00  0.00     0.165 A 
ATOM     42  C   UNL     1       2.448  -2.028  -1.518  1.00  0.00     0.054 A 
ATOM     43  C   UNL     1       2.467   0.311  -0.883  1.00  0.00     0.054 A 
ATOM     44  C   UNL     1       3.143  -0.820  -1.365  1.00  0.00    -0.040 A 
BRANCH  40  45
ATOM     45  O   UNL     1       0.359  -3.250  -1.350  1.00  0.00    -0.493 OA
ATOM     46  C   UNL     1       0.838  -4.451  -1.827  1.00  0.00     0.278 C 
ENDBRANCH  40  45
BRANCH  41  47
ATOM     47  O   UNL     1       0.422   1.325  -0.082  1.00  0.00    -0.493 OA
ATOM     48  C   UNL     1       0.951   2.581   0.132  1.00  0.00     0.278 C 
ENDBRANCH  41  47
BRANCH  44  49
ATOM     49  C   UNL     1       4.602  -0.713  -1.725  1.00  0.00     0.042 C 
BRANCH  49  50
ATOM     50  C   UNL     1       5.513  -1.610  -0.833  1.00  0.00     0.028 C 
ATOM     51  C   UNL     1       5.476  -1.227   0.656  1.00  0.00     0.165 C 
ATOM     52  C   UNL     1       6.990  -1.375  -1.123  1.00  0.00     0.054 C 
ATOM     53  O   UNL     1       6.428  -0.199   0.888  1.00  0.00    -0.373 OA
ATOM     54  C   UNL     1       7.185  -0.072  -0.301  1.00  0.00     0.154 C 
BRANCH  52  55
ATOM     55  C   UNL     1       7.826  -2.598  -0.665  1.00  0.00     0.163 C 
BRANCH  55  56
ATOM     56  O   UNL     1       9.179  -2.438  -0.995  1.00  0.00    -0.396 OA
ATOM     57  H   UNL     1       9.264  -2.631  -1.965  1.00  0.00     0.210 HD
ENDBRANCH  55  56
ENDBRANCH  52  55
BRANCH  54  58
ATOM     58  C   UNL     1       8.595   0.430  -0.033  1.00  0.00    -0.011 A 
ATOM     59  C   UNL     1       9.500  -0.263   0.784  1.00  0.00     0.057 A 
ATOM     60  C   UNL     1       8.993   1.656  -0.596  1.00  0.00     0.057 A 
ATOM     61  C   UNL     1      10.800   0.239   1.010  1.00  0.00     0.164 A 
ATOM     62  C   UNL     1      10.275   2.181  -0.367  1.00  0.00     0.164 A 
ATOM     63  C   UNL     1      11.178   1.466   0.430  1.00  0.00     0.200 A 
BRANCH  61  64
ATOM     64  O   UNL     1      11.707  -0.427   1.774  1.00  0.00    -0.493 OA
ATOM     65  C   UNL     1      11.524  -1.661   2.362  1.00  0.00     0.278 C 
ENDBRANCH  61  64
BRANCH  62  66
ATOM     66  O   UNL     1      10.672   3.372  -0.894  1.00  0.00    -0.493 OA
ATOM     67  C   UNL     1       9.889   4.220  -1.652  1.00  0.00     0.278 C 
ENDBRANCH  62  66
BRANCH  63  68
ATOM     68  O   UNL     1      12.412   1.978   0.633  1.00  0.00    -0.502 OA
ATOM     69  H   UNL     1      13.084   1.538   1.171  1.00  0.00     0.293 HD
ENDBRANCH  63  68
ENDBRANCH  54  58
ENDBRANCH  49  50
ENDBRANCH  44  49
ENDBRANCH  38  39
ENDBRANCH   3  38
BRANCH   5  70
ATOM     70  O   UNL     1      -5.022  -2.873  -1.199  1.00  0.00    -0.386 OA
ATOM     71  H   UNL     1      -4.479  -3.671  -0.970  1.00  0.00     0.211 HD
ENDBRANCH   5  70
BRANCH   4  72
ATOM     72  O   UNL     1      -2.751  -2.511  -2.939  1.00  0.00    -0.384 OA
ATOM     73  H   UNL     1      -3.125  -1.794  -3.513  1.00  0.00     0.211 HD
ENDBRANCH   4  72
TORSDOF 27
