REMARK SMILES Oc1cc(O)c2c(c1)O[C@]1(c3ccc(O)c(O)c3)Oc3cc(O)c4c(c3[C@H]2[C@@H]1O[C@@H]1OC[C@H](O)[C@H](O)[C@H]1O)O[C@H](c1ccc(O)c(O)c1)[C@H](O)C4
REMARK SMILES IDX 2 1 3 2 4 3 6 4 7 5 8 6 9 7 10 8 19 9 20 10 21 11 22 12
REMARK SMILES IDX 24 13 51 14 49 15 40 16 39 17 25 18 26 19 27 20 28 21 1 22
REMARK SMILES IDX 5 24 11 26 12 27 18 28 13 29 16 30 14 31 17 32 15 34 29 36
REMARK SMILES IDX 30 37 31 38 37 39 32 40 35 41 33 42 38 43 36 45 34 47 41 49
REMARK SMILES IDX 42 50 48 51 43 52 46 53 44 54 47 55 45 57 23 59 50 61
REMARK H PARENT 1 23 5 25 17 33 15 35 38 44 36 46 34 48 47 56 45 58 23 60
REMARK H PARENT 50 62
ROOT
ATOM      1  C   UNL     1      -2.818  -0.353   4.740  1.00  0.00     0.122 A 
ATOM      2  C   UNL     1      -1.658   0.434   4.779  1.00  0.00     0.092 A 
ATOM      3  C   UNL     1      -0.829   0.538   3.651  1.00  0.00     0.126 A 
ATOM      4  C   UNL     1      -1.165  -0.152   2.471  1.00  0.00     0.047 A 
ATOM      5  C   UNL     1      -2.323  -0.965   2.447  1.00  0.00     0.136 A 
ATOM      6  C   UNL     1      -3.145  -1.051   3.574  1.00  0.00     0.093 A 
ATOM      7  O   UNL     1      -2.634  -1.676   1.332  1.00  0.00    -0.445 OA
ATOM      8  C   UNL     1      -1.714  -1.871   0.311  1.00  0.00     0.305 C 
ATOM      9  O   UNL     1      -0.726  -2.748   0.774  1.00  0.00    -0.445 OA
ATOM     10  C   UNL     1       0.542  -2.387   1.105  1.00  0.00     0.136 A 
ATOM     11  C   UNL     1       1.546  -3.354   1.173  1.00  0.00     0.093 A 
ATOM     12  C   UNL     1       2.873  -2.978   1.428  1.00  0.00     0.126 A 
ATOM     13  C   UNL     1       3.192  -1.621   1.625  1.00  0.00     0.039 A 
ATOM     14  C   UNL     1       4.626  -1.203   1.863  1.00  0.00     0.079 C 
ATOM     15  C   UNL     1       4.730   0.274   2.306  1.00  0.00     0.164 C 
ATOM     16  C   UNL     1       3.748   1.181   1.534  1.00  0.00     0.232 C 
ATOM     17  O   UNL     1       2.473   0.671   1.716  1.00  0.00    -0.482 OA
ATOM     18  C   UNL     1       2.172  -0.644   1.564  1.00  0.00     0.135 A 
ATOM     19  C   UNL     1       0.845  -1.033   1.326  1.00  0.00     0.048 A 
ATOM     20  C   UNL     1      -0.298  -0.051   1.219  1.00  0.00     0.102 C 
ATOM     21  C   UNL     1      -1.104  -0.467  -0.032  1.00  0.00     0.224 C 
ENDROOT
BRANCH   1  22
ATOM     22  O   UNL     1      -3.620  -0.453   5.819  1.00  0.00    -0.508 OA
ATOM     23  H   UNL     1      -3.429   0.011   6.647  1.00  0.00     0.293 HD
ENDBRANCH   1  22
BRANCH   3  24
ATOM     24  O   UNL     1       0.282   1.303   3.695  1.00  0.00    -0.507 OA
ATOM     25  H   UNL     1       0.543   1.790   4.489  1.00  0.00     0.293 HD
ENDBRANCH   3  24
BRANCH   8  26
ATOM     26  C   UNL     1      -2.416  -2.560  -0.858  1.00  0.00     0.043 A 
ATOM     27  C   UNL     1      -2.397  -2.067  -2.179  1.00  0.00     0.016 A 
ATOM     28  C   UNL     1      -3.102  -3.765  -0.609  1.00  0.00     0.062 A 
ATOM     29  C   UNL     1      -3.047  -2.750  -3.208  1.00  0.00     0.051 A 
ATOM     30  C   UNL     1      -3.760  -4.451  -1.637  1.00  0.00     0.157 A 
ATOM     31  C   UNL     1      -3.733  -3.941  -2.946  1.00  0.00     0.157 A 
BRANCH  30  32
ATOM     32  O   UNL     1      -4.409  -5.598  -1.346  1.00  0.00    -0.504 OA
ATOM     33  H   UNL     1      -4.882  -6.114  -2.014  1.00  0.00     0.293 HD
ENDBRANCH  30  32
BRANCH  31  34
ATOM     34  O   UNL     1      -4.360  -4.598  -3.943  1.00  0.00    -0.504 OA
ATOM     35  H   UNL     1      -4.356  -4.274  -4.856  1.00  0.00     0.293 HD
ENDBRANCH  31  34
ENDBRANCH   8  26
BRANCH  21  36
ATOM     36  O   UNL     1      -2.168   0.447  -0.276  1.00  0.00    -0.337 OA
BRANCH  36  37
ATOM     37  C   UNL     1      -1.850   1.422  -1.256  1.00  0.00     0.282 C 
ATOM     38  O   UNL     1      -1.115   2.485  -0.634  1.00  0.00    -0.347 OA
ATOM     39  C   UNL     1      -3.183   1.917  -1.858  1.00  0.00     0.202 C 
ATOM     40  C   UNL     1      -1.311   3.787  -1.199  1.00  0.00     0.198 C 
ATOM     41  C   UNL     1      -2.937   2.965  -2.970  1.00  0.00     0.179 C 
ATOM     42  C   UNL     1      -1.623   3.737  -2.705  1.00  0.00     0.171 C 
BRANCH  39  43
ATOM     43  O   UNL     1      -4.001   0.872  -2.317  1.00  0.00    -0.385 OA
ATOM     44  H   UNL     1      -3.526   0.436  -3.071  1.00  0.00     0.211 HD
ENDBRANCH  39  43
BRANCH  41  45
ATOM     45  O   UNL     1      -4.058   3.805  -3.087  1.00  0.00    -0.387 OA
ATOM     46  H   UNL     1      -4.141   4.319  -2.242  1.00  0.00     0.211 HD
ENDBRANCH  41  45
BRANCH  42  47
ATOM     47  O   UNL     1      -1.619   5.000  -3.322  1.00  0.00    -0.388 OA
ATOM     48  H   UNL     1      -2.188   5.602  -2.775  1.00  0.00     0.211 HD
ENDBRANCH  42  47
ENDBRANCH  36  37
ENDBRANCH  21  36
BRANCH  16  49
ATOM     49  C   UNL     1       3.971   1.409   0.042  1.00  0.00    -0.001 A 
ATOM     50  C   UNL     1       5.059   0.896  -0.693  1.00  0.00     0.012 A 
ATOM     51  C   UNL     1       3.016   2.192  -0.636  1.00  0.00     0.057 A 
ATOM     52  C   UNL     1       5.172   1.149  -2.063  1.00  0.00     0.050 A 
ATOM     53  C   UNL     1       3.124   2.447  -2.005  1.00  0.00     0.157 A 
ATOM     54  C   UNL     1       4.208   1.921  -2.727  1.00  0.00     0.157 A 
BRANCH  53  55
ATOM     55  O   UNL     1       2.177   3.197  -2.607  1.00  0.00    -0.504 OA
ATOM     56  H   UNL     1       2.195   3.407  -3.551  1.00  0.00     0.293 HD
ENDBRANCH  53  55
BRANCH  54  57
ATOM     57  O   UNL     1       4.320   2.160  -4.050  1.00  0.00    -0.504 OA
ATOM     58  H   UNL     1       5.053   1.812  -4.577  1.00  0.00     0.293 HD
ENDBRANCH  54  57
ENDBRANCH  16  49
BRANCH  12  59
ATOM     59  O   UNL     1       3.845  -3.914   1.473  1.00  0.00    -0.507 OA
ATOM     60  H   UNL     1       3.661  -4.855   1.338  1.00  0.00     0.293 HD
ENDBRANCH  12  59
BRANCH  15  61
ATOM     61  O   UNL     1       6.048   0.749   2.225  1.00  0.00    -0.389 OA
ATOM     62  H   UNL     1       6.554   0.312   2.958  1.00  0.00     0.211 HD
ENDBRANCH  15  61
TORSDOF 15
