REMARK SMILES CNCCCCCC/C=C\C(=O)CCc1ccc(O)c(OCCc2ccc(O)c([C@H]3CC(=O)[C@@H]4C=CN=C4CC#Cc4cc(C(N)N)ccc43)c2)c1
REMARK SMILES IDX 13 1 11 2 12 3 10 4 9 5 8 6 7 7 6 8 5 9 4 10 3 11 2 12 1 13
REMARK SMILES IDX 14 15 15 16 16 17 52 18 17 19 20 20 18 21 21 22 22 23 23 24
REMARK SMILES IDX 24 25 25 26 51 27 26 28 29 29 27 30 30 31 31 32 32 33 33 34
REMARK SMILES IDX 34 35 35 36 38 37 36 38 37 39 50 41 49 42 42 43 48 44 41 45
REMARK SMILES IDX 43 46 44 47 40 48 39 49 45 51 46 52 47 55 28 58 19 60
REMARK H PARENT 2 14 46 53 46 54 47 56 47 57 28 59 19 61
REMARK Flexibility Score:  780.900
ROOT
ATOM      1  C   UNL     1       5.068  -0.472  -0.129  1.00  0.00     0.085 C 
ENDROOT
BRANCH   1   2
ATOM      2  C   UNL     1       4.515   0.464   0.916  1.00  0.00     0.155 C 
ATOM      3  O   UNL     1       3.374   0.237   1.291  1.00  0.00    -0.295 OA
BRANCH   2   4
ATOM      4  C   UNL     1       5.172   1.659   1.544  1.00  0.00     0.043 C 
ATOM      5  C   UNL     1       6.404   2.242   1.599  1.00  0.00    -0.023 C 
BRANCH   5   6
ATOM      6  C   UNL     1       7.833   2.027   1.109  1.00  0.00     0.027 C 
BRANCH   6   7
ATOM      7  C   UNL     1       8.326   0.795   0.350  1.00  0.00     0.004 C 
BRANCH   7   8
ATOM      8  C   UNL     1       8.253  -0.488   1.202  1.00  0.00     0.000 C 
BRANCH   8   9
ATOM      9  C   UNL     1       8.683  -1.770   0.459  1.00  0.00     0.001 C 
BRANCH   9  10
ATOM     10  C   UNL     1      10.186  -2.147   0.438  1.00  0.00     0.015 C 
BRANCH  10  11
ATOM     11  C   UNL     1      11.166  -1.269  -0.364  1.00  0.00     0.080 C 
BRANCH  11  12
ATOM     12  N   UNL     1      11.445   0.041   0.240  1.00  0.00    -0.320 NA
ATOM     13  C   UNL     1      12.155  -0.047   1.518  1.00  0.00     0.101 C 
ATOM     14  H   UNL     1      12.056   0.571  -0.425  1.00  0.00     0.122 HD
ENDBRANCH  11  12
ENDBRANCH  10  11
ENDBRANCH   9  10
ENDBRANCH   8   9
ENDBRANCH   7   8
ENDBRANCH   6   7
ENDBRANCH   5   6
ENDBRANCH   2   4
ENDBRANCH   1   2
BRANCH   1  15
ATOM     15  C   UNL     1       4.248  -0.468  -1.433  1.00  0.00     0.044 C 
BRANCH  15  16
ATOM     16  C   UNL     1       2.831  -0.953  -1.242  1.00  0.00    -0.044 A 
ATOM     17  C   UNL     1       2.583  -2.262  -0.802  1.00  0.00     0.008 A 
ATOM     18  C   UNL     1       1.749  -0.092  -1.493  1.00  0.00     0.054 A 
ATOM     19  C   UNL     1       1.275  -2.704  -0.604  1.00  0.00     0.050 A 
ATOM     20  C   UNL     1       0.428  -0.534  -1.289  1.00  0.00     0.161 A 
ATOM     21  C   UNL     1       0.198  -1.842  -0.840  1.00  0.00     0.157 A 
BRANCH  20  22
ATOM     22  O   UNL     1      -0.653   0.260  -1.477  1.00  0.00    -0.489 OA
BRANCH  22  23
ATOM     23  C   UNL     1      -0.742   1.481  -2.116  1.00  0.00     0.234 C 
BRANCH  23  24
ATOM     24  C   UNL     1      -0.948   2.599  -1.089  1.00  0.00     0.077 C 
BRANCH  24  25
ATOM     25  C   UNL     1      -2.009   2.256  -0.063  1.00  0.00    -0.044 A 
ATOM     26  C   UNL     1      -1.692   2.279   1.301  1.00  0.00     0.007 A 
ATOM     27  C   UNL     1      -3.308   1.906  -0.456  1.00  0.00     0.012 A 
ATOM     28  C   UNL     1      -2.657   1.966   2.256  1.00  0.00     0.047 A 
ATOM     29  C   UNL     1      -4.305   1.582   0.498  1.00  0.00     0.002 A 
ATOM     30  C   UNL     1      -3.959   1.617   1.868  1.00  0.00     0.119 A 
BRANCH  29  31
ATOM     31  C   UNL     1      -5.737   1.196   0.071  1.00  0.00     0.062 C 
BRANCH  31  32
ATOM     32  C   UNL     1      -6.102   2.033  -1.200  1.00  0.00     0.090 C 
BRANCH  32  33
ATOM     33  C   UNL     1      -7.551   2.371  -1.436  1.00  0.00     0.146 C 
ATOM     34  O   UNL     1      -8.072   1.952  -2.460  1.00  0.00    -0.299 OA
BRANCH  33  35
ATOM     35  C   UNL     1      -8.374   3.300  -0.539  1.00  0.00     0.126 C 
ATOM     36  C   UNL     1      -7.657   3.883   0.641  1.00  0.00     0.010 C 
ATOM     37  C   UNL     1      -9.514   2.596   0.174  1.00  0.00     0.044 CG0
ATOM     38  C   UNL     1      -8.338   3.518   1.777  1.00  0.00     0.108 C 
ATOM     39  N   UNL     1      -9.431   2.707   1.452  1.00  0.00    -0.264 NA
ATOM     40  G   UNL     1     -10.342   1.508  -0.432  1.00  0.00     0.000 G0
ENDBRANCH  33  35
ENDBRANCH  32  33
ENDBRANCH  31  32
BRANCH  31  41
ATOM     41  C   UNL     1      -5.935  -0.360   0.010  1.00  0.00    -0.024 A 
ATOM     42  C   UNL     1      -4.819  -1.221   0.202  1.00  0.00     0.006 A 
ATOM     43  C   UNL     1      -7.202  -1.005  -0.168  1.00  0.00     0.029 A 
ATOM     44  C   UNL     1      -4.954  -2.612   0.243  1.00  0.00     0.007 A 
ATOM     45  C   UNL     1      -8.431  -0.293  -0.324  1.00  0.00    -0.066 C 
ATOM     46  C   UNL     1      -7.317  -2.401  -0.132  1.00  0.00     0.024 A 
ATOM     47  C   UNL     1      -6.205  -3.216   0.088  1.00  0.00    -0.016 A 
BRANCH  45  48
ATOM     48  C   UNL     1      -9.409   0.392  -0.437  1.00  0.00    -0.092 C 
ATOM     49  C   UNL     1     -10.342   1.508  -0.432  1.00  0.00     0.142 CG0
ATOM     50  G   UNL     1      -9.514   2.596   0.174  1.00  0.00     0.000 G0
ENDBRANCH  45  48
BRANCH  47  51
ATOM     51  C   UNL     1      -6.353  -4.725   0.190  1.00  0.00     0.147 C 
BRANCH  51  52
ATOM     52  N   UNL     1      -7.229  -5.095   1.308  1.00  0.00    -0.312 NA
ATOM     53  H   UNL     1      -8.195  -4.722   1.166  1.00  0.00     0.120 HD
ATOM     54  H   UNL     1      -6.847  -4.701   2.199  1.00  0.00     0.120 HD
ENDBRANCH  51  52
BRANCH  51  55
ATOM     55  N   UNL     1      -6.868  -5.284  -1.061  1.00  0.00    -0.312 NA
ATOM     56  H   UNL     1      -7.838  -4.939  -1.242  1.00  0.00     0.120 HD
ATOM     57  H   UNL     1      -6.915  -6.325  -0.969  1.00  0.00     0.120 HD
ENDBRANCH  51  55
ENDBRANCH  47  51
ENDBRANCH  31  41
ENDBRANCH  29  31
BRANCH  30  58
ATOM     58  O   UNL     1      -4.878   1.314   2.809  1.00  0.00    -0.508 OA
ATOM     59  H   UNL     1      -4.674   1.334   3.755  1.00  0.00     0.293 HD
ENDBRANCH  30  58
ENDBRANCH  24  25
ENDBRANCH  23  24
ENDBRANCH  22  23
ENDBRANCH  20  22
BRANCH  21  60
ATOM     60  O   UNL     1      -1.070  -2.261  -0.640  1.00  0.00    -0.504 OA
ATOM     61  H   UNL     1      -1.278  -3.154  -0.333  1.00  0.00     0.293 HD
ENDBRANCH  21  60
ENDBRANCH  15  16
ENDBRANCH   1  15
TORSDOF 21
