REMARK SMILES COc1ccc(-c2cc(=O)c3c(OC)c(OC)c(O[C@@H]4O[C@@H](CO)[C@H](O)[C@H](O)[C@H]4O)cc3o2)cc1
REMARK SMILES IDX 19 1 18 2 7 3 8 4 33 5 9 6 32 7 10 8 11 9 31 10 12 11 15 12
REMARK SMILES IDX 6 13 3 14 4 15 35 16 5 17 34 18 2 19 1 20 13 21 14 22 16 23
REMARK SMILES IDX 17 24 20 25 21 26 29 27 22 28 27 29 25 30 30 31 23 33 24 34
REMARK SMILES IDX 28 36 26 38
REMARK H PARENT 30 32 24 35 28 37 26 39
ROOT
ATOM      1  O   UNL     1      -2.307   0.010   0.379  1.00  0.00    -0.458 OA
ENDROOT
BRANCH   1   2
ATOM      2  C   UNL     1      -1.234  -0.806   0.181  1.00  0.00     0.172 A 
ATOM      3  C   UNL     1       3.534  -0.826  -0.214  1.00  0.00     0.138 A 
ATOM      4  C   UNL     1       3.575  -2.218  -0.423  1.00  0.00     0.100 A 
ATOM      5  O   UNL     1       2.352  -0.241  -0.030  1.00  0.00    -0.456 OA
ATOM      6  C   UNL     1       2.384  -2.950  -0.429  1.00  0.00     0.197 A 
ATOM      7  C   UNL     1       1.194  -0.894  -0.027  1.00  0.00     0.146 A 
ATOM      8  O   UNL     1       2.439  -4.152  -0.620  1.00  0.00    -0.289 OA
ATOM      9  C   UNL     1       1.154  -2.290  -0.223  1.00  0.00     0.111 A 
ATOM     10  C   UNL     1       0.015  -0.178   0.169  1.00  0.00     0.098 A 
ATOM     11  C   UNL     1      -0.099  -2.948  -0.209  1.00  0.00     0.179 A 
ATOM     12  C   UNL     1      -1.291  -2.212  -0.021  1.00  0.00     0.204 A 
BRANCH   3  13
ATOM     13  C   UNL     1       4.757   0.033  -0.198  1.00  0.00     0.018 A 
ATOM     14  C   UNL     1       7.019   1.742  -0.162  1.00  0.00     0.118 A 
ATOM     15  C   UNL     1       7.169   0.369  -0.376  1.00  0.00     0.047 A 
ATOM     16  C   UNL     1       5.727   2.262   0.038  1.00  0.00     0.047 A 
ATOM     17  C   UNL     1       6.058  -0.479  -0.395  1.00  0.00     0.016 A 
ATOM     18  C   UNL     1       4.615   1.417   0.020  1.00  0.00     0.016 A 
BRANCH  14  19
ATOM     19  O   UNL     1       8.131   2.521  -0.156  1.00  0.00    -0.497 OA
ATOM     20  C   UNL     1       8.155   3.887   0.034  1.00  0.00     0.278 C 
ENDBRANCH  14  19
ENDBRANCH   3  13
BRANCH  11  21
ATOM     21  O   UNL     1      -0.175  -4.289  -0.383  1.00  0.00    -0.492 OA
ATOM     22  C   UNL     1      -0.114  -5.164   0.682  1.00  0.00     0.278 C 
ENDBRANCH  11  21
BRANCH  12  23
ATOM     23  O   UNL     1      -2.471  -2.863  -0.055  1.00  0.00    -0.490 OA
ATOM     24  C   UNL     1      -3.090  -3.179  -1.245  1.00  0.00     0.278 C 
ENDBRANCH  12  23
ENDBRANCH   1   2
BRANCH   1  25
ATOM     25  C   UNL     1      -3.624  -0.240   0.746  1.00  0.00     0.339 C 
ATOM     26  O   UNL     1      -4.526   0.197  -0.268  1.00  0.00    -0.332 OA
ATOM     27  C   UNL     1      -3.939   0.450   2.095  1.00  0.00     0.214 C 
ATOM     28  C   UNL     1      -4.449   1.602  -0.513  1.00  0.00     0.179 C 
ATOM     29  C   UNL     1      -3.807   1.977   1.952  1.00  0.00     0.180 C 
ATOM     30  C   UNL     1      -4.703   2.440   0.781  1.00  0.00     0.177 C 
BRANCH  27  31
ATOM     31  O   UNL     1      -5.226   0.102   2.561  1.00  0.00    -0.384 OA
ATOM     32  H   UNL     1      -5.867   0.118   1.804  1.00  0.00     0.211 HD
ENDBRANCH  27  31
BRANCH  28  33
ATOM     33  C   UNL     1      -5.529   1.962  -1.547  1.00  0.00     0.191 C 
BRANCH  33  34
ATOM     34  O   UNL     1      -5.356   1.218  -2.723  1.00  0.00    -0.394 OA
ATOM     35  H   UNL     1      -4.771   1.753  -3.318  1.00  0.00     0.210 HD
ENDBRANCH  33  34
ENDBRANCH  28  33
BRANCH  29  36
ATOM     36  O   UNL     1      -2.452   2.348   1.806  1.00  0.00    -0.387 OA
ATOM     37  H   UNL     1      -2.206   2.384   0.849  1.00  0.00     0.211 HD
ENDBRANCH  29  36
BRANCH  30  38
ATOM     38  O   UNL     1      -4.572   3.823   0.557  1.00  0.00    -0.387 OA
ATOM     39  H   UNL     1      -3.689   3.981   0.135  1.00  0.00     0.211 HD
ENDBRANCH  30  38
ENDBRANCH   1  25
TORSDOF 11
