REMARK SMILES COc1cc(CCc2ccccc2O)cc(O)c1Cc1ccc(O)cc1
REMARK SMILES IDX 3 1 4 2 5 3 15 4 16 5 18 6 2 7 1 8 19 9 20 10 21 11 26 12
REMARK SMILES IDX 22 13 25 14 23 15 24 16 6 18 7 19 8 20 9 21 13 22 10 23
REMARK SMILES IDX 12 24 11 25 14 26 17 28
REMARK H PARENT 24 17 14 27 17 29
ROOT
ATOM      1  C   UNL     1       1.030   0.273   1.592  1.00  0.00     0.126 A 
ATOM      2  C   UNL     1      -0.124   1.067   1.740  1.00  0.00     0.050 A 
ATOM      3  C   UNL     1      -1.399   0.486   1.759  1.00  0.00    -0.040 A 
ATOM      4  C   UNL     1      -1.523  -0.902   1.633  1.00  0.00     0.050 A 
ATOM      5  C   UNL     1      -0.390  -1.709   1.467  1.00  0.00     0.123 A 
ATOM      6  C   UNL     1       0.896  -1.126   1.441  1.00  0.00     0.040 A 
ENDROOT
BRANCH   1   7
ATOM      7  O   UNL     1       2.278   0.815   1.596  1.00  0.00    -0.496 OA
ATOM      8  C   UNL     1       2.589   2.143   1.803  1.00  0.00     0.278 C 
ENDBRANCH   1   7
BRANCH   6   9
ATOM      9  C   UNL     1       2.132  -1.986   1.255  1.00  0.00     0.078 C 
BRANCH   9  10
ATOM     10  C   UNL     1       2.855  -1.624  -0.020  1.00  0.00    -0.043 A 
ATOM     11  C   UNL     1       4.176  -1.146   0.017  1.00  0.00     0.008 A 
ATOM     12  C   UNL     1       2.210  -1.764  -1.261  1.00  0.00     0.008 A 
ATOM     13  C   UNL     1       4.838  -0.809  -1.168  1.00  0.00     0.046 A 
ATOM     14  C   UNL     1       2.874  -1.427  -2.445  1.00  0.00     0.046 A 
ATOM     15  C   UNL     1       4.188  -0.949  -2.403  1.00  0.00     0.115 A 
BRANCH  15  16
ATOM     16  O   UNL     1       4.815  -0.627  -3.554  1.00  0.00    -0.508 OA
ATOM     17  H   UNL     1       5.723  -0.293  -3.568  1.00  0.00     0.293 HD
ENDBRANCH  15  16
ENDBRANCH   9  10
ENDBRANCH   6   9
BRANCH   3  18
ATOM     18  C   UNL     1      -2.626   1.354   1.907  1.00  0.00     0.040 C 
BRANCH  18  19
ATOM     19  C   UNL     1      -2.843   2.220   0.653  1.00  0.00     0.044 C 
BRANCH  19  20
ATOM     20  C   UNL     1      -3.106   1.365  -0.573  1.00  0.00    -0.006 A 
ATOM     21  C   UNL     1      -2.168   1.339  -1.621  1.00  0.00     0.007 A 
ATOM     22  C   UNL     1      -4.280   0.585  -0.682  1.00  0.00     0.118 A 
ATOM     23  C   UNL     1      -2.387   0.543  -2.748  1.00  0.00     0.001 A 
ATOM     24  C   UNL     1      -4.489  -0.208  -1.820  1.00  0.00     0.046 A 
ATOM     25  C   UNL     1      -3.544  -0.230  -2.847  1.00  0.00     0.004 A 
BRANCH  22  26
ATOM     26  O   UNL     1      -5.208   0.607   0.299  1.00  0.00    -0.508 OA
ATOM     27  H   UNL     1      -6.023   0.088   0.253  1.00  0.00     0.293 HD
ENDBRANCH  22  26
ENDBRANCH  19  20
ENDBRANCH  18  19
ENDBRANCH   3  18
BRANCH   5  28
ATOM     28  O   UNL     1      -0.536  -3.044   1.325  1.00  0.00    -0.508 OA
ATOM     29  H   UNL     1      -1.403  -3.473   1.330  1.00  0.00     0.293 HD
ENDBRANCH   5  28
TORSDOF 9
