REMARK SMILES [O-][N@+]12CC[C@@]34c5ccccc5N5[C@@H]6OCC=C7C[N@+]8([O-])CC[C@]9%10c%11ccccc%11N([C@@H]%11OCC=C(C1)[C@H](C[C@@H]32)[C@@H]%11[C@H]54)[C@H]9[C@H]6[C@H]7C[C@@H]%108
REMARK SMILES IDX 1 1 2 2 3 3 4 4 5 5 6 6 7 7 8 8 9 9 10 10 11 11 12 12 34 13
REMARK SMILES IDX 35 14 36 15 37 16 38 17 39 18 40 19 41 20 31 22 30 23 29 24
REMARK SMILES IDX 42 25 28 26 24 27 43 28 23 29 27 30 25 31 44 32 22 33 46 34
REMARK SMILES IDX 26 35 45 36 17 37 21 38 19 39 16 40 18 41 20 42 32 45 33 46
REMARK SMILES IDX 13 48 14 50 15 51
REMARK H PARENT
REMARK Flexibility Score:   79.700
ROOT
ATOM      1  O   UNL     1      -6.362  -0.233  -0.324  1.00  0.00    -0.632 OA
ATOM      2  N   UNL     1      -5.147   0.306  -0.038  1.00  0.00    -0.355 N 
ATOM      3  C   UNL     1      -5.011   0.388   1.425  1.00  0.00     0.266 C 
ATOM      4  C   UNL     1      -3.524   0.433   1.678  1.00  0.00     0.082 C 
ATOM      5  C   UNL     1      -2.965  -0.571   0.650  1.00  0.00     0.076 C 
ATOM      6  C   UNL     1      -2.697  -1.906   1.302  1.00  0.00    -0.010 A 
ATOM      7  C   UNL     1      -3.560  -2.698   2.079  1.00  0.00     0.007 A 
ATOM      8  C   UNL     1      -3.090  -3.900   2.615  1.00  0.00     0.000 A 
ATOM      9  C   UNL     1      -1.776  -4.310   2.376  1.00  0.00     0.002 A 
ATOM     10  C   UNL     1      -0.926  -3.530   1.584  1.00  0.00     0.026 A 
ATOM     11  C   UNL     1      -1.408  -2.319   1.029  1.00  0.00     0.043 A 
ATOM     12  N   UNL     1      -0.746  -1.406   0.144  1.00  0.00    -0.341 N 
ATOM     13  C   UNL     1      -3.254   3.283  -0.486  1.00  0.00     0.006 CG2
ATOM     14  C   UNL     1      -3.659   2.086  -0.946  1.00  0.00    -0.014 C 
ATOM     15  C   UNL     1      -5.089   1.647  -0.687  1.00  0.00     0.296 C 
ATOM     16  C   UNL     1      -2.755   1.107  -1.713  1.00  0.00     0.036 C 
ATOM     17  C   UNL     1      -3.516  -0.233  -1.878  1.00  0.00     0.075 C 
ATOM     18  C   UNL     1      -4.061  -0.631  -0.478  1.00  0.00     0.199 C 
ATOM     19  C   UNL     1      -1.380   0.737  -1.058  1.00  0.00     0.070 C 
ATOM     20  C   UNL     1      -1.519  -0.167   0.189  1.00  0.00     0.110 C 
ATOM     21  G   UNL     1      -1.858   3.769  -0.639  1.00  0.00     0.000 G2
ENDROOT
BRANCH  19  22
ATOM     22  C   UNL     1      -0.406   1.931  -0.856  1.00  0.00     0.221 C 
BRANCH  22  23
ATOM     23  N   UNL     1       0.958   1.633  -0.361  1.00  0.00    -0.341 N 
ATOM     24  C   UNL     1       1.887   2.691  -0.235  1.00  0.00     0.043 A 
ATOM     25  C   UNL     1       1.585   0.358   0.095  1.00  0.00     0.110 C 
ATOM     26  C   UNL     1       1.694   4.038  -0.597  1.00  0.00     0.026 A 
ATOM     27  C   UNL     1       3.070   2.283   0.303  1.00  0.00    -0.010 A 
ATOM     28  C   UNL     1       1.480  -0.760  -1.023  1.00  0.00     0.070 CG0
ATOM     29  C   UNL     1       3.067   0.806   0.542  1.00  0.00     0.076 C 
ATOM     30  C   UNL     1       2.731   4.957  -0.388  1.00  0.00     0.002 A 
ATOM     31  C   UNL     1       4.118   3.189   0.529  1.00  0.00     0.007 A 
ATOM     32  C   UNL     1       2.829  -1.306  -1.608  1.00  0.00     0.036 C 
ATOM     33  C   UNL     1       3.370   0.404   1.983  1.00  0.00     0.082 C 
ATOM     34  C   UNL     1       4.252   0.142  -0.202  1.00  0.00     0.199 C 
ATOM     35  C   UNL     1       3.942   4.534   0.179  1.00  0.00     0.000 A 
ATOM     36  C   UNL     1       3.874  -0.190  -1.651  1.00  0.00     0.075 C 
ATOM     37  C   UNL     1       3.427  -2.497  -0.858  1.00  0.00    -0.014 C 
ATOM     38  C   UNL     1       3.749  -1.056   1.783  1.00  0.00     0.266 C 
ATOM     39  N   UNL     1       4.673  -1.039   0.628  1.00  0.00    -0.355 N 
ATOM     40  C   UNL     1       2.818  -3.684  -0.843  1.00  0.00     0.006 CG1
ATOM     41  C   UNL     1       4.730  -2.308  -0.129  1.00  0.00     0.296 C 
ATOM     42  O   UNL     1       5.922  -0.802   1.115  1.00  0.00    -0.632 OA
ATOM     43  G   UNL     1       0.270  -1.807  -0.866  1.00  0.00     0.000 G0
ATOM     44  G   UNL     1       1.468  -3.806  -1.429  1.00  0.00     0.000 G1
ENDBRANCH  22  23
BRANCH  22  45
ATOM     45  O   UNL     1      -0.986   2.876   0.030  1.00  0.00    -0.354 OA
BRANCH  45  46
ATOM     46  C   UNL     1      -1.858   3.769  -0.639  1.00  0.00     0.190 CG2
ATOM     47  G   UNL     1      -3.254   3.283  -0.486  1.00  0.00     0.000 G2
ENDBRANCH  45  46
ENDBRANCH  22  45
ENDBRANCH  19  22
BRANCH  12  48
ATOM     48  C   UNL     1       0.270  -1.807  -0.866  1.00  0.00     0.221 CG0
ATOM     49  G   UNL     1       1.480  -0.760  -1.023  1.00  0.00     0.000 G0
BRANCH  48  50
ATOM     50  O   UNL     1       0.660  -3.115  -0.525  1.00  0.00    -0.354 OA
BRANCH  50  51
ATOM     51  C   UNL     1       1.468  -3.806  -1.429  1.00  0.00     0.190 CG1
ATOM     52  G   UNL     1       2.818  -3.684  -0.843  1.00  0.00     0.000 G1
ENDBRANCH  50  51
ENDBRANCH  48  50
ENDBRANCH  12  48
TORSDOF 0
