REMARK SMILES C/C=C(/C)C(=O)O[C@@H]1[C@H](O)[C@H](O[C@@H]2C(=O)OC[C@]2(C)CC)O[C@H](CO)[C@H]1OC(=O)/C(C)=C\C
REMARK SMILES IDX 8 1 9 2 11 3 22 4 23 5 26 6 7 7 5 8 6 9 3 10 2 11 1 12 4 13
REMARK SMILES IDX 10 14 27 16 28 17 29 18 30 19 32 20 31 21 33 22 12 23 13 24
REMARK SMILES IDX 14 25 18 26 15 27 16 28 17 29 19 30 20 31 21 32 24 33 25 34
REMARK H PARENT 10 15 25 35
ROOT
ATOM      1  C   UNL     1      -0.620   0.824   0.336  1.00  0.00     0.254 C 
ATOM      2  C   UNL     1       0.860   1.109   0.119  1.00  0.00     0.215 C 
ATOM      3  C   UNL     1       1.666  -0.137   0.585  1.00  0.00     0.284 C 
ATOM      4  O   UNL     1       0.994  -1.391   0.559  1.00  0.00    -0.340 OA
ATOM      5  C   UNL     1      -0.079  -1.568  -0.360  1.00  0.00     0.192 C 
ATOM      6  C   UNL     1      -1.001  -0.330  -0.589  1.00  0.00     0.252 C 
ENDROOT
BRANCH   1   7
ATOM      7  O   UNL     1      -1.386   1.938   0.024  1.00  0.00    -0.452 OA
BRANCH   7   8
ATOM      8  C   UNL     1      -2.266   2.543   0.865  1.00  0.00     0.333 C 
ATOM      9  O   UNL     1      -2.393   2.131   2.008  1.00  0.00    -0.247 OA
BRANCH   8  10
ATOM     10  C   UNL     1      -3.082   3.692   0.367  1.00  0.00     0.030 C 
ATOM     11  C   UNL     1      -4.012   4.338   1.114  1.00  0.00    -0.020 C 
ATOM     12  C   UNL     1      -4.359   4.000   2.537  1.00  0.00     0.036 C 
ATOM     13  C   UNL     1      -2.852   4.143  -1.056  1.00  0.00     0.052 C 
ENDBRANCH   8  10
ENDBRANCH   7   8
ENDBRANCH   1   7
BRANCH   2  14
ATOM     14  O   UNL     1       1.110   1.483  -1.220  1.00  0.00    -0.384 OA
ATOM     15  H   UNL     1       1.292   0.677  -1.762  1.00  0.00     0.211 HD
ENDBRANCH   2  14
BRANCH   6  16
ATOM     16  O   UNL     1      -2.318  -0.671  -0.325  1.00  0.00    -0.452 OA
BRANCH  16  17
ATOM     17  C   UNL     1      -3.374  -0.589  -1.165  1.00  0.00     0.333 C 
ATOM     18  O   UNL     1      -3.205  -0.219  -2.318  1.00  0.00    -0.247 OA
BRANCH  17  19
ATOM     19  C   UNL     1      -4.762  -0.926  -0.691  1.00  0.00     0.030 C 
ATOM     20  C   UNL     1      -5.094  -1.331   0.563  1.00  0.00    -0.020 C 
ATOM     21  C   UNL     1      -5.905  -0.805  -1.673  1.00  0.00     0.052 C 
ATOM     22  C   UNL     1      -4.204  -1.544   1.765  1.00  0.00     0.036 C 
ENDBRANCH  17  19
ENDBRANCH  16  17
ENDBRANCH   6  16
BRANCH   3  23
ATOM     23  O   UNL     1       2.890  -0.231  -0.127  1.00  0.00    -0.334 OA
BRANCH  23  24
ATOM     24  C   UNL     1       4.028  -0.249   0.716  1.00  0.00     0.240 C 
ATOM     25  C   UNL     1       5.055   0.733   0.295  1.00  0.00     0.336 C 
ATOM     26  C   UNL     1       4.859  -1.540   0.566  1.00  0.00     0.039 C 
ATOM     27  O   UNL     1       4.815   1.865  -0.099  1.00  0.00    -0.249 OA
ATOM     28  O   UNL     1       6.306   0.254   0.440  1.00  0.00    -0.463 OA
ATOM     29  C   UNL     1       6.259  -1.024   0.962  1.00  0.00     0.243 C 
ATOM     30  C   UNL     1       4.358  -2.661   1.493  1.00  0.00     0.018 C 
BRANCH  26  31
ATOM     31  C   UNL     1       4.884  -2.108  -0.903  1.00  0.00     0.010 C 
ATOM     32  C   UNL     1       5.374  -1.180  -2.023  1.00  0.00     0.005 C 
ENDBRANCH  26  31
ENDBRANCH  23  24
ENDBRANCH   3  23
BRANCH   5  33
ATOM     33  C   UNL     1       0.443  -2.196  -1.664  1.00  0.00     0.192 C 
BRANCH  33  34
ATOM     34  O   UNL     1       1.016  -3.451  -1.419  1.00  0.00    -0.394 OA
ATOM     35  H   UNL     1       1.809  -3.306  -0.840  1.00  0.00     0.210 HD
ENDBRANCH  33  34
ENDBRANCH   5  33
TORSDOF 12
