REMARK SMILES C[C@]12CCCC[C@@H]1CC[C@@H]1[C@@H]2CC[C@@]2(C)[C@H]1CC[C@@]2(O)CNCCO
REMARK SMILES IDX 22 1 21 3 19 4 14 5 13 6 16 7 12 8 10 9 17 10 18 11 11 12
REMARK SMILES IDX 9 13 2 14 8 15 3 16 7 17 4 18 6 19 5 20 15 21 1 22 20 23
REMARK SMILES IDX 23 25 24 26 25 27
REMARK H PARENT 22 2 20 24 25 28
ROOT
ATOM      1  N   UNL     1       4.306   0.494  -0.635  1.00  0.00    -0.312 NA
ATOM      2  H   UNL     1       4.875   0.621   0.235  1.00  0.00     0.122 HD
ENDROOT
BRANCH   1   3
ATOM      3  C   UNL     1       3.863  -0.906  -0.718  1.00  0.00     0.116 C 
BRANCH   3   4
ATOM      4  C   UNL     1       2.935  -1.239   0.479  1.00  0.00     0.083 C 
ATOM      5  C   UNL     1       1.560  -0.412   0.526  1.00  0.00     0.001 C 
ATOM      6  C   UNL     1       1.221   0.551  -0.656  1.00  0.00     0.010 C 
ATOM      7  C   UNL     1       0.485  -1.526   0.450  1.00  0.00     0.001 C 
ATOM      8  C   UNL     1      -0.205   1.148  -0.505  1.00  0.00     0.005 C 
ATOM      9  C   UNL     1      -0.931  -1.006   0.778  1.00  0.00    -0.004 C 
ATOM     10  C   UNL     1       1.120  -2.686   1.201  1.00  0.00     0.007 C 
ATOM     11  C   UNL     1       2.474  -2.719   0.479  1.00  0.00     0.037 C 
ATOM     12  C   UNL     1      -1.309   0.050  -0.326  1.00  0.00    -0.001 C 
ATOM     13  C   UNL     1      -1.965  -2.148   0.780  1.00  0.00     0.004 C 
ATOM     14  C   UNL     1      -2.759   0.631  -0.102  1.00  0.00    -0.027 C 
ATOM     15  C   UNL     1      -3.368  -1.603   1.070  1.00  0.00     0.004 C 
ATOM     16  C   UNL     1      -3.188   1.497  -1.353  1.00  0.00     0.007 C 
ATOM     17  C   UNL     1      -3.765  -0.556   0.013  1.00  0.00    -0.005 C 
ATOM     18  C   UNL     1      -4.674   1.339  -1.789  1.00  0.00     0.001 C 
ATOM     19  C   UNL     1      -5.228  -0.060   0.236  1.00  0.00     0.004 C 
ATOM     20  C   UNL     1      -5.577   1.220  -0.571  1.00  0.00     0.000 C 
ATOM     21  C   UNL     1       1.523   0.398   1.873  1.00  0.00     0.015 C 
ATOM     22  C   UNL     1      -2.802   1.505   1.197  1.00  0.00     0.012 C 
BRANCH   4  23
ATOM     23  O   UNL     1       3.668  -1.038   1.673  1.00  0.00    -0.388 OA
ATOM     24  H   UNL     1       4.462  -1.635   1.664  1.00  0.00     0.211 HD
ENDBRANCH   4  23
ENDBRANCH   3   4
ENDBRANCH   1   3
BRANCH   1  25
ATOM     25  C   UNL     1       5.124   0.872  -1.791  1.00  0.00     0.109 C 
BRANCH  25  26
ATOM     26  C   UNL     1       5.425   2.372  -1.758  1.00  0.00     0.171 C 
BRANCH  26  27
ATOM     27  O   UNL     1       6.175   2.707  -0.620  1.00  0.00    -0.395 OA
ATOM     28  H   UNL     1       5.529   2.983   0.083  1.00  0.00     0.210 HD
ENDBRANCH  26  27
ENDBRANCH  25  26
ENDBRANCH   1  25
TORSDOF 6
