REMARK SMILES CCOc1cc2c(cc1O)[C@H]1C=CC[N@@+]3(C)CCc4cc(OC)c(OC[C@@H]5[C@@H](Cc6ccc([C@@]78CCCC[C@@H]7CCc7ccccc78)cc6)C[C@@H]6Cc7cccc(c7)Cc7cccc(c7)C7(CCCCC7)c7cccc(c7)C[C@H]65)c-2c4[C@H]13
REMARK SMILES IDX 27 1 28 2 50 3 51 4 79 5 26 7 25 8 24 9 4 10 5 11 9 12 6 13
REMARK SMILES IDX 8 14 7 15 80 16 11 17 81 18 12 19 82 20 19 21 21 22 13 23
REMARK SMILES IDX 15 24 18 25 20 26 14 27 17 28 16 29 3 30 2 31 1 32 10 33
REMARK SMILES IDX 22 35 23 36 29 37 30 38 31 39 49 40 32 41 48 42 33 43 34 44
REMARK SMILES IDX 35 45 39 46 47 47 36 48 38 49 40 50 46 51 42 52 37 53 41 54
REMARK SMILES IDX 45 55 43 56 44 57 78 58 76 59 77 60 75 61 72 62 74 63 73 64
REMARK SMILES IDX 66 65 67 66 71 67 68 68 70 69 69 70 64 71 65 72 63 73 60 74
REMARK SMILES IDX 62 75 61 76 59 77 57 78 58 79 56 80 53 81 55 82 54 83 52 84
REMARK H PARENT 10 34
REMARK Flexibility Score:  373.900
ROOT
ATOM      1  C   UNL     1      -1.032   0.750   0.000  1.00  0.00     0.034 C 
ATOM      2  C   UNL     1       0.071   1.694   0.742  1.00  0.00     0.000 C 
ATOM      3  C   UNL     1       1.191   0.602   0.826  1.00  0.00     0.008 C 
ATOM      4  C   UNL     1       0.656  -0.825   1.255  1.00  0.00    -0.003 CG0
ATOM      5  C   UNL     1      -0.819  -0.777   0.843  1.00  0.00     0.003 C 
ATOM      6  G   UNL     1       1.519  -1.946   0.505  1.00  0.00     0.000 G0
ENDROOT
BRANCH   1   7
ATOM      7  C   UNL     1      -2.524   0.593   0.000  1.00  0.00     0.234 C 
BRANCH   7   8
ATOM      8  O   UNL     1      -4.016   0.436   0.000  1.00  0.00    -0.489 OA
BRANCH   8   9
ATOM      9  C   UNL     1      -4.758   1.575   0.166  1.00  0.00     0.169 A 
ATOM     10  C   UNL     1      -6.442  -2.285   0.568  1.00  0.00     0.161 A 
ATOM     11  C   UNL     1      -6.054  -1.004   0.686  1.00  0.00     0.059 A 
ATOM     12  C   UNL     1      -7.777  -2.525   0.110  1.00  0.00     0.157 A 
ATOM     13  C   UNL     1      -6.820   0.097   0.306  1.00  0.00    -0.006 A 
ATOM     14  C   UNL     1      -8.632  -1.412  -0.187  1.00  0.00     0.055 A 
ATOM     15  C   UNL     1      -8.165  -0.073  -0.084  1.00  0.00    -0.023 A 
ATOM     16  C   UNL     1      -6.176   1.438   0.299  1.00  0.00     0.038 A 
ATOM     17  C   UNL     1      -8.984   1.186  -0.463  1.00  0.00     0.106 C 
ATOM     18  C   UNL     1      -7.000   2.568   0.366  1.00  0.00     0.026 A 
ATOM     19  C   UNL     1     -10.496   1.071  -0.308  1.00  0.00    -0.011 C 
ATOM     20  C   UNL     1      -8.514   2.396   0.409  1.00  0.00     0.229 C 
ATOM     21  C   UNL     1      -6.418   3.836   0.444  1.00  0.00    -0.029 A 
ATOM     22  C   UNL     1      -4.162   2.901   0.174  1.00  0.00     0.161 A 
ATOM     23  C   UNL     1     -11.259   2.102   0.111  1.00  0.00     0.030 C 
ATOM     24  N   UNL     1      -9.270   3.655   0.089  1.00  0.00    -0.316 N 
ATOM     25  C   UNL     1      -7.268   5.070   0.607  1.00  0.00     0.097 C 
ATOM     26  C   UNL     1      -5.029   3.965   0.360  1.00  0.00     0.055 A 
ATOM     27  C   UNL     1     -10.710   3.480   0.442  1.00  0.00     0.292 C 
ATOM     28  C   UNL     1      -8.725   4.747   0.935  1.00  0.00     0.269 C 
ATOM     29  C   UNL     1      -9.175   4.040  -1.355  1.00  0.00     0.335 C 
BRANCH  10  30
ATOM     30  O   UNL     1      -5.439  -3.204   0.864  1.00  0.00    -0.490 OA
BRANCH  30  31
ATOM     31  C   UNL     1      -4.354  -3.518   0.000  1.00  0.00     0.226 C 
ATOM     32  C   UNL     1      -2.863  -3.361  -0.000  1.00  0.00     0.049 C 
ENDBRANCH  30  31
ENDBRANCH  10  30
BRANCH  12  33
ATOM     33  O   UNL     1      -8.248  -3.778  -0.054  1.00  0.00    -0.504 OA
ATOM     34  H   UNL     1      -9.149  -3.950  -0.375  1.00  0.00     0.293 HD
ENDBRANCH  12  33
BRANCH  22  35
ATOM     35  O   UNL     1      -2.796   3.177   0.000  1.00  0.00    -0.493 OA
ATOM     36  C   UNL     1      -2.186   4.547   0.000  1.00  0.00     0.278 C 
ENDBRANCH  22  35
ENDBRANCH   8   9
ENDBRANCH   7   8
ENDBRANCH   1   7
BRANCH   2  37
ATOM     37  C   UNL     1      -0.116   2.655   2.149  1.00  0.00     0.039 C 
BRANCH  37  38
ATOM     38  C   UNL     1      -0.578   4.179   1.903  1.00  0.00    -0.048 A 
ATOM     39  C   UNL     1       0.282   4.840   1.001  1.00  0.00     0.004 A 
ATOM     40  C   UNL     1      -1.784   5.021   2.404  1.00  0.00     0.004 A 
ATOM     41  C   UNL     1      -0.554   6.538   0.000  1.00  0.00     0.005 A 
ATOM     42  C   UNL     1      -2.460   6.266   1.690  1.00  0.00     0.005 A 
ATOM     43  C   UNL     1      -2.046   6.695  -0.000  1.00  0.00    -0.037 A 
BRANCH  43  44
ATOM     44  C   UNL     1      -2.656   8.065   0.000  1.00  0.00     0.023 C 
ATOM     45  C   UNL     1      -3.715   7.548  -1.115  1.00  0.00     0.017 C 
ATOM     46  C   UNL     1      -3.266   9.435  -0.000  1.00  0.00     0.004 C 
ATOM     47  C   UNL     1      -1.484   8.316  -0.593  1.00  0.00    -0.034 A 
ATOM     48  C   UNL     1      -5.169   7.447  -0.543  1.00  0.00     0.001 C 
ATOM     49  C   UNL     1      -4.811   9.758  -0.137  1.00  0.00     0.005 C 
ATOM     50  C   UNL     1      -2.704  10.594  -0.961  1.00  0.00     0.009 C 
ATOM     51  C   UNL     1      -0.554   6.538   0.000  1.00  0.00     0.005 A 
ATOM     52  C   UNL     1      -0.681   9.310  -1.168  1.00  0.00    -0.044 A 
ATOM     53  C   UNL     1      -5.594   8.611   0.336  1.00  0.00     0.000 C 
ATOM     54  C   UNL     1      -1.202  10.678  -0.949  1.00  0.00     0.036 C 
ATOM     55  C   UNL     1       1.202   6.631  -1.208  1.00  0.00     0.000 A 
ATOM     56  C   UNL     1       0.634   9.091  -1.712  1.00  0.00     0.004 A 
ATOM     57  C   UNL     1       1.451   7.901  -1.799  1.00  0.00     0.000 A 
ENDBRANCH  43  44
ENDBRANCH  37  38
ENDBRANCH   2  37
BRANCH   5  58
ATOM     58  C   UNL     1      -1.816  -1.403   2.135  1.00  0.00     0.039 C 
BRANCH  58  59
ATOM     59  C   UNL     1      -2.879  -2.615   2.650  1.00  0.00    -0.047 A 
ATOM     60  C   UNL     1      -2.912  -4.090   2.425  1.00  0.00     0.008 A 
ATOM     61  C   UNL     1      -4.033  -2.128   3.305  1.00  0.00     0.004 A 
ATOM     62  C   UNL     1      -4.166  -4.915   2.495  1.00  0.00    -0.037 A 
ATOM     63  C   UNL     1      -5.112  -2.941   3.655  1.00  0.00     0.001 A 
ATOM     64  C   UNL     1      -5.187  -4.274   3.269  1.00  0.00     0.004 A 
BRANCH  62  65
ATOM     65  C   UNL     1      -4.639  -6.350   1.702  1.00  0.00     0.020 C 
ATOM     66  C   UNL     1      -6.151  -5.823   1.337  1.00  0.00     0.016 C 
ATOM     67  C   UNL     1      -4.836  -7.270   0.263  1.00  0.00     0.016 C 
ATOM     68  C   UNL     1      -7.371  -6.705   1.536  1.00  0.00     0.001 C 
ATOM     69  C   UNL     1      -5.997  -8.365   0.358  1.00  0.00     0.001 C 
ATOM     70  C   UNL     1      -7.384  -7.715   0.410  1.00  0.00     0.000 C 
BRANCH  65  71
ATOM     71  C   UNL     1      -3.352  -7.204   1.870  1.00  0.00    -0.037 A 
ATOM     72  C   UNL     1      -2.111  -6.861   1.228  1.00  0.00     0.008 A 
ATOM     73  C   UNL     1      -3.427  -8.472   2.467  1.00  0.00     0.004 A 
ATOM     74  C   UNL     1      -0.989  -7.675   1.228  1.00  0.00    -0.043 A 
ATOM     75  C   UNL     1      -2.340  -9.348   2.399  1.00  0.00     0.001 A 
ATOM     76  C   UNL     1      -1.137  -8.956   1.798  1.00  0.00     0.004 A 
BRANCH  74  77
ATOM     77  C   UNL     1       0.312  -7.315   0.481  1.00  0.00     0.071 C 
BRANCH  77  78
ATOM     78  C   UNL     1       1.151  -5.988   0.476  1.00  0.00    -0.043 A 
ATOM     79  C   UNL     1       0.755  -4.603   0.672  1.00  0.00     0.007 A 
ATOM     80  C   UNL     1       2.495  -6.226   0.131  1.00  0.00     0.004 A 
ATOM     81  C   UNL     1       1.713  -3.518   0.538  1.00  0.00    -0.047 A 
ATOM     82  C   UNL     1       3.415  -5.206   0.015  1.00  0.00     0.001 A 
ATOM     83  C   UNL     1       3.037  -3.893   0.210  1.00  0.00     0.004 A 
BRANCH  81  84
ATOM     84  C   UNL     1       1.519  -1.946   0.505  1.00  0.00     0.039 CG0
ATOM     85  G   UNL     1       0.656  -0.825   1.255  1.00  0.00     0.000 G0
ENDBRANCH  81  84
ENDBRANCH  77  78
ENDBRANCH  74  77
ENDBRANCH  65  71
ENDBRANCH  62  65
ENDBRANCH  58  59
ENDBRANCH   5  58
TORSDOF 10
