REMARK SMILES O=C1C[C@H]2OCC=C3C[N@+]4([O-])CC[C@]56c7ccccc7N1[C@@H]5[C@H]2[C@H]3C[C@@H]64
REMARK SMILES IDX 1 1 2 2 3 3 4 4 7 5 8 6 9 7 10 8 11 9 12 10 13 11 14 12
REMARK SMILES IDX 15 13 16 14 17 15 18 16 19 17 20 18 21 19 22 20 23 21 24 22
REMARK SMILES IDX 25 23 26 24 5 26 6 27
REMARK H PARENT
REMARK Flexibility Score:    3.900
ROOT
ATOM      1  O   UNL     1      -6.092   4.182  -1.572  1.00  0.00    -0.274 OA
ATOM      2  C   UNL     1      -5.043   4.114  -0.950  1.00  0.00     0.229 C 
ATOM      3  C   UNL     1      -4.101   5.341  -0.908  1.00  0.00     0.133 C 
ATOM      4  C   UNL     1      -2.639   4.951  -0.528  1.00  0.00     0.133 C 
ATOM      5  C   UNL     1       0.343   4.612  -0.338  1.00  0.00     0.006 CG0
ATOM      6  C   UNL     1      -0.046   3.622   0.529  1.00  0.00    -0.014 C 
ATOM      7  C   UNL     1       0.642   2.223   0.562  1.00  0.00     0.296 C 
ATOM      8  N   UNL     1      -0.420   1.164   0.293  1.00  0.00    -0.355 N 
ATOM      9  O   UNL     1       0.166  -0.056   0.408  1.00  0.00    -0.632 OA
ATOM     10  C   UNL     1      -0.900   1.314  -1.107  1.00  0.00     0.266 C 
ATOM     11  C   UNL     1      -2.353   0.954  -1.107  1.00  0.00     0.082 C 
ATOM     12  C   UNL     1      -2.945   1.406   0.244  1.00  0.00     0.076 C 
ATOM     13  C   UNL     1      -4.324   0.733   0.228  1.00  0.00    -0.010 A 
ATOM     14  C   UNL     1      -4.665  -0.610   0.383  1.00  0.00     0.007 A 
ATOM     15  C   UNL     1      -5.993  -0.995   0.132  1.00  0.00     0.000 A 
ATOM     16  C   UNL     1      -6.950  -0.052  -0.301  1.00  0.00     0.002 A 
ATOM     17  C   UNL     1      -6.599   1.296  -0.486  1.00  0.00     0.026 A 
ATOM     18  C   UNL     1      -5.286   1.672  -0.210  1.00  0.00     0.048 A 
ATOM     19  N   UNL     1      -4.701   2.962  -0.295  1.00  0.00    -0.307 N 
ATOM     20  C   UNL     1      -3.562   2.836   0.531  1.00  0.00     0.114 C 
ATOM     21  C   UNL     1      -2.697   4.105   0.742  1.00  0.00     0.050 C 
ATOM     22  C   UNL     1      -1.329   3.682   1.319  1.00  0.00     0.034 C 
ATOM     23  C   UNL     1      -1.501   2.390   2.210  1.00  0.00     0.075 C 
ATOM     24  C   UNL     1      -1.665   1.185   1.202  1.00  0.00     0.199 C 
ATOM     25  G   UNL     1      -0.453   5.881  -0.726  1.00  0.00     0.000 G0
ENDROOT
BRANCH   4  26
ATOM     26  O   UNL     1      -1.790   6.058  -0.235  1.00  0.00    -0.373 OA
BRANCH  26  27
ATOM     27  C   UNL     1      -0.453   5.881  -0.726  1.00  0.00     0.188 CG0
ATOM     28  G   UNL     1       0.343   4.612  -0.338  1.00  0.00     0.000 G0
ENDBRANCH  26  27
ENDBRANCH   4  26
TORSDOF 0
