REMARK SMILES COCCN1CCN(C[C@@H]2C=C(C)[C@H](Cc3nnc(-c4ccc([N+](=O)[O-])cc4)o3)C[C@H]2C(C)C)CC1
REMARK SMILES IDX 10 1 11 2 12 3 13 4 14 5 30 6 31 7 9 8 8 9 5 10 6 11 36 12
REMARK SMILES IDX 7 13 35 14 4 15 3 16 2 17 1 18 32 19 33 20 34 21 15 22 16 23
REMARK SMILES IDX 17 24 29 25 18 26 19 27 20 28 21 29 28 30 22 31 27 32 23 33
REMARK SMILES IDX 24 34 25 35 26 36
REMARK H PARENT
ROOT
ATOM      1  C   UNL     1      -0.841  -0.388  -2.313  1.00  0.00     0.029 C 
ATOM      2  C   UNL     1       0.459  -0.907  -2.915  1.00  0.00    -0.023 C 
ATOM      3  C   UNL     1       1.682  -0.369  -2.684  1.00  0.00    -0.073 C 
ATOM      4  C   UNL     1       2.892  -0.983  -3.349  1.00  0.00     0.039 C 
ATOM      5  C   UNL     1       1.834   0.859  -1.791  1.00  0.00     0.024 C 
ATOM      6  C   UNL     1       0.669   0.952  -0.783  1.00  0.00     0.013 C 
ATOM      7  C   UNL     1      -0.677   0.981  -1.551  1.00  0.00     0.000 C 
ENDROOT
BRANCH   1   8
ATOM      8  C   UNL     1      -1.440  -1.495  -1.401  1.00  0.00     0.092 C 
BRANCH   8   9
ATOM      9  N   UNL     1      -2.719  -1.060  -0.807  1.00  0.00    -0.300 NA
ATOM     10  N   UNL     1      -5.023  -0.166   0.191  1.00  0.00    -0.299 NA
ATOM     11  C   UNL     1      -5.186  -0.762  -1.142  1.00  0.00     0.100 C 
ATOM     12  C   UNL     1      -4.240  -1.069   1.079  1.00  0.00     0.100 C 
ATOM     13  C   UNL     1      -3.795  -0.804  -1.803  1.00  0.00     0.100 C 
ATOM     14  C   UNL     1      -3.209  -1.909   0.283  1.00  0.00     0.100 C 
BRANCH  10  15
ATOM     15  C   UNL     1      -6.305   0.308   0.746  1.00  0.00     0.113 C 
BRANCH  15  16
ATOM     16  C   UNL     1      -6.147   1.065   2.080  1.00  0.00     0.175 C 
BRANCH  16  17
ATOM     17  O   UNL     1      -5.744   0.223   3.145  1.00  0.00    -0.383 OA
ATOM     18  C   UNL     1      -6.859  -0.453   3.689  1.00  0.00     0.194 C 
ENDBRANCH  16  17
ENDBRANCH  15  16
ENDBRANCH  10  15
ENDBRANCH   8   9
ENDBRANCH   1   8
BRANCH   7  19
ATOM     19  C   UNL     1      -0.829   2.245  -2.490  1.00  0.00    -0.014 C 
ATOM     20  C   UNL     1      -0.552   3.558  -1.726  1.00  0.00     0.007 C 
ATOM     21  C   UNL     1      -2.242   2.371  -3.094  1.00  0.00     0.007 C 
ENDBRANCH   7  19
BRANCH   5  22
ATOM     22  C   UNL     1       3.220   1.060  -1.139  1.00  0.00     0.107 C 
BRANCH  22  23
ATOM     23  C   UNL     1       3.681   0.049  -0.136  1.00  0.00     0.217 A 
ATOM     24  N   UNL     1       3.024  -1.058   0.261  1.00  0.00    -0.113 NA
ATOM     25  O   UNL     1       4.831   0.161   0.479  1.00  0.00    -0.421 OA
ATOM     26  N   UNL     1       3.803  -1.647   1.159  1.00  0.00    -0.108 NA
ATOM     27  C   UNL     1       4.905  -0.876   1.272  1.00  0.00     0.247 A 
BRANCH  27  28
ATOM     28  C   UNL     1       6.050  -1.140   2.165  1.00  0.00     0.039 A 
ATOM     29  C   UNL     1       7.136  -0.252   2.177  1.00  0.00     0.021 A 
ATOM     30  C   UNL     1       6.075  -2.263   3.004  1.00  0.00     0.021 A 
ATOM     31  C   UNL     1       8.232  -0.477   3.014  1.00  0.00     0.086 A 
ATOM     32  C   UNL     1       7.173  -2.491   3.844  1.00  0.00     0.086 A 
ATOM     33  C   UNL     1       8.264  -1.600   3.857  1.00  0.00     0.269 A 
BRANCH  33  34
ATOM     34  N   UNL     1       9.386  -1.827   4.712  1.00  0.00     0.062 N 
ATOM     35  O   UNL     1       9.419  -2.778   5.433  1.00  0.00    -0.258 OA
ATOM     36  O   UNL     1      10.400  -0.988   4.718  1.00  0.00    -0.258 OA
ENDBRANCH  33  34
ENDBRANCH  27  28
ENDBRANCH  22  23
ENDBRANCH   5  22
TORSDOF 10
