REMARK SMILES NC1=NC(=O)C2=NC=[N+](c3ccccc3Cc3cc4c(c(OC[C@H](O)CC=O)c3O[C@H]3O[C@@H](CO)[C@H](O)[C@@H](O)[C@@H]3OCCc3ccnc(N)c3)C(=O)c3cc(CO)ccc3C4=O)C2=N1
REMARK SMILES IDX 31 1 32 2 33 3 36 4 38 5 40 6 30 7 29 8 17 9 18 10 19 11
REMARK SMILES IDX 21 12 20 13 61 14 51 15 60 16 62 17 52 18 53 19 59 20 54 21
REMARK SMILES IDX 58 22 55 23 16 24 15 25 10 26 11 27 12 28 14 29 13 30 9 31
REMARK SMILES IDX 1 32 2 33 3 34 64 35 4 36 63 37 5 38 6 39 7 40 8 41 22 44
REMARK SMILES IDX 23 45 24 46 25 47 26 49 27 50 28 51 56 52 57 53 41 55 42 56
REMARK SMILES IDX 43 57 44 58 45 59 50 60 46 61 48 62 47 63 49 64 34 67 35 68
REMARK SMILES IDX 39 70 37 72
REMARK H PARENT 1 42 1 43 25 48 57 54 49 65 49 66 35 69 39 71 37 73
ROOT
ATOM      1  C   UNL     1       2.302   0.705  -0.755  1.00  0.00     0.339 C 
ATOM      2  O   UNL     1       2.734   1.879  -1.460  1.00  0.00    -0.332 OA
ATOM      3  C   UNL     1       4.127   2.086  -1.685  1.00  0.00     0.179 C 
ATOM      4  C   UNL     1       4.872   0.785  -2.057  1.00  0.00     0.177 C 
ATOM      5  C   UNL     1       4.554  -0.388  -1.094  1.00  0.00     0.181 C 
ATOM      6  C   UNL     1       3.481  -0.031  -0.045  1.00  0.00     0.218 C 
ENDROOT
BRANCH   1   7
ATOM      7  O   UNL     1       1.354   1.127   0.172  1.00  0.00    -0.458 OA
BRANCH   7   8
ATOM      8  C   UNL     1      -0.012   0.976   0.284  1.00  0.00     0.169 A 
ATOM      9  C   UNL     1      -0.744  -0.270   0.295  1.00  0.00     0.003 A 
ATOM     10  C   UNL     1      -2.124  -0.224   0.570  1.00  0.00     0.021 A 
ATOM     11  C   UNL     1      -2.814   0.968   0.817  1.00  0.00     0.038 A 
ATOM     12  C   UNL     1      -0.743   2.186   0.481  1.00  0.00     0.173 A 
ATOM     13  C   UNL     1      -2.121   2.180   0.783  1.00  0.00     0.080 A 
ATOM     14  C   UNL     1      -4.281   0.952   1.096  1.00  0.00     0.194 C 
ATOM     15  C   UNL     1      -2.862   3.454   1.063  1.00  0.00     0.198 C 
ATOM     16  C   UNL     1      -5.016   2.224   1.327  1.00  0.00     0.034 A 
ATOM     17  O   UNL     1      -4.887  -0.109   1.122  1.00  0.00    -0.289 OA
ATOM     18  O   UNL     1      -2.269   4.523   1.105  1.00  0.00    -0.288 OA
ATOM     19  C   UNL     1      -4.317   3.442   1.318  1.00  0.00     0.034 A 
ATOM     20  C   UNL     1      -6.404   2.231   1.558  1.00  0.00     0.013 A 
ATOM     21  C   UNL     1      -5.005   4.647   1.552  1.00  0.00     0.019 A 
ATOM     22  C   UNL     1      -7.082   3.433   1.782  1.00  0.00     0.007 A 
ATOM     23  C   UNL     1      -6.385   4.649   1.786  1.00  0.00    -0.022 A 
BRANCH   9  24
ATOM     24  C   UNL     1      -0.151  -1.669   0.114  1.00  0.00     0.078 C 
BRANCH  24  25
ATOM     25  C   UNL     1      -0.238  -2.203  -1.319  1.00  0.00    -0.004 A 
ATOM     26  C   UNL     1      -1.450  -2.567  -1.985  1.00  0.00     0.111 A 
ATOM     27  C   UNL     1      -1.409  -2.921  -3.349  1.00  0.00     0.044 A 
ATOM     28  C   UNL     1      -0.205  -2.974  -4.042  1.00  0.00     0.004 A 
ATOM     29  C   UNL     1       0.967  -2.308  -2.047  1.00  0.00     0.008 A 
ATOM     30  C   UNL     1       0.984  -2.684  -3.387  1.00  0.00     0.001 A 
BRANCH  26  31
ATOM     31  N   UNL     1      -2.706  -2.673  -1.329  1.00  0.00    -0.196 N 
ATOM     32  N   UNL     1      -2.104  -6.070   2.152  1.00  0.00    -0.354 N 
ATOM     33  C   UNL     1      -2.900  -5.128   1.455  1.00  0.00     0.301 C 
ATOM     34  N   UNL     1      -4.175  -5.038   1.734  1.00  0.00    -0.154 NA
ATOM     35  N   UNL     1      -2.295  -4.315   0.423  1.00  0.00    -0.060 NA
ATOM     36  C   UNL     1      -5.041  -4.144   1.029  1.00  0.00     0.324 C 
ATOM     37  C   UNL     1      -3.034  -3.486  -0.233  1.00  0.00     0.320 C 
ATOM     38  O   UNL     1      -6.235  -4.089   1.277  1.00  0.00    -0.263 OA
ATOM     39  C   UNL     1      -4.427  -3.356  -0.030  1.00  0.00     0.281 C 
ATOM     40  N   UNL     1      -4.932  -2.563  -0.902  1.00  0.00    -0.098 NA
ATOM     41  C   UNL     1      -3.830  -2.168  -1.722  1.00  0.00     0.376 C 
ATOM     42  H   UNL     1      -2.524  -6.682   2.867  1.00  0.00     0.161 HD
ATOM     43  H   UNL     1      -1.105  -6.175   1.924  1.00  0.00     0.161 HD
ENDBRANCH  26  31
ENDBRANCH  24  25
ENDBRANCH   9  24
BRANCH  12  44
ATOM     44  O   UNL     1      -0.165   3.406   0.329  1.00  0.00    -0.486 OA
BRANCH  44  45
ATOM     45  C   UNL     1       0.535   3.790  -0.803  1.00  0.00     0.262 C 
BRANCH  45  46
ATOM     46  C   UNL     1      -0.286   4.739  -1.694  1.00  0.00     0.159 C 
BRANCH  46  47
ATOM     47  O   UNL     1      -0.657   5.885  -0.960  1.00  0.00    -0.389 OA
ATOM     48  H   UNL     1      -1.643   5.988  -0.975  1.00  0.00     0.211 HD
ENDBRANCH  46  47
BRANCH  46  49
ATOM     49  C   UNL     1      -1.488   3.985  -2.335  1.00  0.00     0.107 C 
BRANCH  49  50
ATOM     50  C   UNL     1      -2.237   4.830  -3.322  1.00  0.00     0.227 C 
ATOM     51  O   UNL     1      -1.675   5.273  -4.311  1.00  0.00    -0.303 OA
ENDBRANCH  49  50
ENDBRANCH  46  49
ENDBRANCH  45  46
ENDBRANCH  44  45
ENDBRANCH  12  44
BRANCH  23  52
ATOM     52  C   UNL     1      -7.098   5.951   2.032  1.00  0.00     0.191 C 
BRANCH  52  53
ATOM     53  O   UNL     1      -6.576   6.586   3.168  1.00  0.00    -0.392 OA
ATOM     54  H   UNL     1      -6.964   6.122   3.955  1.00  0.00     0.211 HD
ENDBRANCH  52  53
ENDBRANCH  23  52
ENDBRANCH   7   8
ENDBRANCH   1   7
BRANCH   6  55
ATOM     55  O   UNL     1       3.057  -1.221   0.592  1.00  0.00    -0.368 OA
BRANCH  55  56
ATOM     56  C   UNL     1       3.587  -1.332   1.896  1.00  0.00     0.166 C 
BRANCH  56  57
ATOM     57  C   UNL     1       3.329  -2.728   2.473  1.00  0.00     0.064 C 
BRANCH  57  58
ATOM     58  C   UNL     1       3.964  -3.812   1.635  1.00  0.00    -0.041 A 
ATOM     59  C   UNL     1       3.421  -4.165   0.391  1.00  0.00     0.024 A 
ATOM     60  C   UNL     1       5.107  -4.484   2.093  1.00  0.00     0.050 A 
ATOM     61  C   UNL     1       4.025  -5.170  -0.368  1.00  0.00     0.114 A 
ATOM     62  C   UNL     1       5.692  -5.478   1.297  1.00  0.00     0.123 A 
ATOM     63  N   UNL     1       5.139  -5.795   0.095  1.00  0.00    -0.240 NA
BRANCH  62  64
ATOM     64  N   UNL     1       6.860  -6.147   1.730  1.00  0.00    -0.384 N 
ATOM     65  H   UNL     1       7.293  -6.870   1.138  1.00  0.00     0.158 HD
ATOM     66  H   UNL     1       7.300  -5.910   2.631  1.00  0.00     0.158 HD
ENDBRANCH  62  64
ENDBRANCH  57  58
ENDBRANCH  56  57
ENDBRANCH  55  56
ENDBRANCH   6  55
BRANCH   3  67
ATOM     67  C   UNL     1       4.795   2.927  -0.566  1.00  0.00     0.191 C 
BRANCH  67  68
ATOM     68  O   UNL     1       4.082   4.117  -0.358  1.00  0.00    -0.394 OA
ATOM     69  H   UNL     1       4.367   4.753  -1.065  1.00  0.00     0.210 HD
ENDBRANCH  67  68
ENDBRANCH   3  67
BRANCH   5  70
ATOM     70  O   UNL     1       5.718  -0.898  -0.497  1.00  0.00    -0.387 OA
ATOM     71  H   UNL     1       6.111  -0.169   0.050  1.00  0.00     0.211 HD
ENDBRANCH   5  70
BRANCH   4  72
ATOM     72  O   UNL     1       4.553   0.412  -3.378  1.00  0.00    -0.387 OA
ATOM     73  H   UNL     1       3.564   0.359  -3.454  1.00  0.00     0.211 HD
ENDBRANCH   4  72
TORSDOF 22
