REMARK SMILES COc1ccc2cc1Oc1ccc(cc1)C[C@H]1c3cc(c(OC)cc3CCN1C)Oc1c([O-])c(OC)cc3cc[n+](C)c(c13)C2
REMARK SMILES IDX 31 1 32 2 33 3 34 4 37 5 38 6 39 7 40 8 41 9 42 10 43 11
REMARK SMILES IDX 44 12 45 13 6 14 3 15 4 16 8 17 5 18 7 19 2 20 1 21 9 22
REMARK SMILES IDX 10 23 11 24 15 25 12 26 14 27 13 28 16 29 30 31 20 32 19 33
REMARK SMILES IDX 21 34 18 35 24 36 17 37 25 38 28 39 26 40 27 41 29 42 22 44
REMARK SMILES IDX 23 45 35 46 36 47
REMARK H PARENT
REMARK Flexibility Score:  124.900
ROOT
ATOM      1  C   UNL     1      -1.052   1.835   0.378  1.00  0.00     0.137 A 
ATOM      2  C   UNL     1      -1.182   2.544   1.595  1.00  0.00    -0.020 A 
ATOM      3  O   UNL     1      -0.489   2.148   2.680  1.00  0.00    -0.867 OA
ATOM      4  C   UNL     1      -2.048   3.640   1.707  1.00  0.00     0.115 A 
ATOM      5  C   UNL     1      -2.774   4.059   0.587  1.00  0.00     0.055 A 
ATOM      6  C   UNL     1      -2.694   3.366  -0.621  1.00  0.00     0.001 A 
ATOM      7  C   UNL     1      -3.464   3.814  -1.694  1.00  0.00     0.079 A 
ATOM      8  C   UNL     1      -3.452   3.127  -2.892  1.00  0.00     0.308 A 
ATOM      9  N   UNL     1      -2.729   1.981  -3.039  1.00  0.00    -0.204 N 
ATOM     10  C   UNL     1      -2.851   1.269  -4.323  1.00  0.00     0.440 C 
ATOM     11  C   UNL     1      -1.955   1.493  -2.000  1.00  0.00     0.197 A 
ATOM     12  C   UNL     1      -1.878   2.213  -0.749  1.00  0.00     0.092 A 
ENDROOT
BRANCH  11  13
ATOM     13  C   UNL     1      -1.355   0.102  -2.121  1.00  0.00     0.144 C 
BRANCH  13  14
ATOM     14  C   UNL     1      -2.196  -0.882  -1.301  1.00  0.00    -0.034 A 
ATOM     15  C   UNL     1      -3.696  -2.768   0.210  1.00  0.00     0.161 A 
ATOM     16  C   UNL     1      -4.252  -1.525  -0.142  1.00  0.00     0.051 A 
ATOM     17  C   UNL     1      -2.389  -3.064  -0.189  1.00  0.00     0.169 A 
ATOM     18  C   UNL     1      -3.515  -0.598  -0.876  1.00  0.00     0.008 A 
ATOM     19  C   UNL     1      -1.659  -2.121  -0.963  1.00  0.00     0.055 A 
BRANCH  15  20
ATOM     20  O   UNL     1      -4.373  -3.681   0.954  1.00  0.00    -0.493 OA
ATOM     21  C   UNL     1      -5.633  -3.503   1.485  1.00  0.00     0.278 C 
ENDBRANCH  15  20
BRANCH  17  22
ATOM     22  O   UNL     1      -1.815  -4.236   0.210  1.00  0.00    -0.453 OA
BRANCH  22  23
ATOM     23  C   UNL     1      -0.489  -4.221   0.432  1.00  0.00     0.127 A 
ATOM     24  C   UNL     1       0.389  -4.664  -0.559  1.00  0.00     0.047 A 
ATOM     25  C   UNL     1      -0.003  -3.598   1.590  1.00  0.00     0.047 A 
ATOM     26  C   UNL     1       1.746  -4.389  -0.434  1.00  0.00     0.007 A 
ATOM     27  C   UNL     1       1.356  -3.346   1.729  1.00  0.00     0.007 A 
ATOM     28  C   UNL     1       2.227  -3.696   0.691  1.00  0.00    -0.046 A 
BRANCH  28  29
ATOM     29  C   UNL     1       3.649  -3.239   0.712  1.00  0.00     0.059 CG0
ATOM     30  G   UNL     1       3.821  -2.063  -0.296  1.00  0.00     0.000 G0
ENDBRANCH  28  29
ENDBRANCH  22  23
ENDBRANCH  17  22
ENDBRANCH  13  14
ENDBRANCH  11  13
BRANCH   1  31
ATOM     31  O   UNL     1      -0.176   0.789   0.279  1.00  0.00    -0.453 OA
BRANCH  31  32
ATOM     32  C   UNL     1       1.189   0.697   0.475  1.00  0.00     0.169 A 
ATOM     33  C   UNL     1       1.787  -0.537   0.134  1.00  0.00     0.056 A 
ATOM     34  C   UNL     1       2.036   1.756   0.909  1.00  0.00     0.161 A 
ATOM     35  C   UNL     1       3.184  -0.749   0.207  1.00  0.00    -0.023 A 
ATOM     36  C   UNL     1       3.429   1.523   1.016  1.00  0.00     0.054 A 
ATOM     37  C   UNL     1       3.821  -2.063  -0.296  1.00  0.00     0.091 CG0
ATOM     38  C   UNL     1       3.999   0.299   0.672  1.00  0.00    -0.038 A 
ATOM     39  N   UNL     1       5.253  -1.881  -0.640  1.00  0.00    -0.299 NA
ATOM     40  C   UNL     1       5.504   0.167   0.754  1.00  0.00     0.051 C 
ATOM     41  C   UNL     1       5.997  -1.254   0.464  1.00  0.00     0.089 C 
ATOM     42  C   UNL     1       5.424  -1.160  -1.919  1.00  0.00     0.106 C 
ATOM     43  G   UNL     1       3.649  -3.239   0.712  1.00  0.00     0.000 G0
BRANCH  34  44
ATOM     44  O   UNL     1       1.524   2.983   1.202  1.00  0.00    -0.493 OA
ATOM     45  C   UNL     1       2.242   4.075   1.657  1.00  0.00     0.278 C 
ENDBRANCH  34  44
ENDBRANCH  31  32
ENDBRANCH   1  31
BRANCH   4  46
ATOM     46  O   UNL     1      -2.166   4.266   2.911  1.00  0.00    -0.497 OA
ATOM     47  C   UNL     1      -3.095   5.245   3.221  1.00  0.00     0.278 C 
ENDBRANCH   4  46
TORSDOF 3
