REMARK SMILES N#Cc1cccc(-c2ccc(=O)n3c2[C@@H]2C[C@@H](CN(S(=O)(=O)c4ccccc4)C2)C3)c1
REMARK SMILES IDX 8 1 14 2 15 3 16 4 17 5 18 6 19 7 29 8 30 9 13 10 11 11
REMARK SMILES IDX 12 12 10 13 9 14 7 15 1 16 2 17 3 18 4 19 31 20 5 21 6 22
REMARK SMILES IDX 20 23 21 24 22 25 23 26 24 27 28 28 25 29 27 30 26 31
REMARK H PARENT
ROOT
ATOM      1  C   UNL     1      -3.014   0.357  -0.196  1.00  0.00     0.002 A 
ATOM      2  C   UNL     1      -1.868  -0.503  -0.135  1.00  0.00     0.033 A 
ATOM      3  C   UNL     1      -0.739  -0.443  -1.137  1.00  0.00     0.052 C 
ATOM      4  C   UNL     1      -0.456  -1.901  -1.595  1.00  0.00     0.018 C 
ATOM      5  C   UNL     1       0.230  -2.579  -0.411  1.00  0.00     0.025 C 
ATOM      6  C   UNL     1       1.632  -1.913  -0.213  1.00  0.00     0.108 C 
ATOM      7  N   UNL     1       1.695  -0.553  -0.784  1.00  0.00    -0.197 NA
ATOM      8  C   UNL     1       0.502   0.195  -0.420  1.00  0.00     0.112 C 
ATOM      9  C   UNL     1      -0.730  -2.542   0.824  1.00  0.00     0.130 C 
ATOM     10  N   UNL     1      -1.797  -1.496   0.825  1.00  0.00    -0.311 N 
ATOM     11  C   UNL     1      -2.806  -1.631   1.766  1.00  0.00     0.250 A 
ATOM     12  O   UNL     1      -2.749  -2.502   2.619  1.00  0.00    -0.269 OA
ATOM     13  C   UNL     1      -3.920  -0.803   1.734  1.00  0.00     0.072 A 
ATOM     14  C   UNL     1      -4.031   0.166   0.752  1.00  0.00     0.016 A 
ENDROOT
BRANCH   1  15
ATOM     15  C   UNL     1      -3.214   1.460  -1.193  1.00  0.00    -0.015 A 
ATOM     16  N   UNL     1      -0.449   5.025  -3.005  1.00  0.00    -0.192 NA
ATOM     17  C   UNL     1      -1.312   4.295  -2.759  1.00  0.00     0.099 C 
ATOM     18  C   UNL     1      -2.387   3.389  -2.446  1.00  0.00     0.053 A 
ATOM     19  C   UNL     1      -3.642   3.556  -3.037  1.00  0.00     0.019 A 
ATOM     20  C   UNL     1      -2.178   2.348  -1.534  1.00  0.00     0.028 A 
ATOM     21  C   UNL     1      -4.686   2.692  -2.704  1.00  0.00     0.002 A 
ATOM     22  C   UNL     1      -4.480   1.660  -1.784  1.00  0.00     0.009 A 
ENDBRANCH   1  15
BRANCH   7  23
ATOM     23  S   UNL     1       3.223   0.264  -0.373  1.00  0.00     0.243 S 
ATOM     24  O   UNL     1       3.002   1.764  -0.632  1.00  0.00    -0.207 OA
ATOM     25  O   UNL     1       4.146  -0.078  -1.552  1.00  0.00    -0.207 OA
BRANCH  23  26
ATOM     26  C   UNL     1       4.073  -0.046   1.175  1.00  0.00     0.082 A 
ATOM     27  C   UNL     1       4.850  -1.202   1.325  1.00  0.00     0.022 A 
ATOM     28  C   UNL     1       3.990   0.877   2.226  1.00  0.00     0.022 A 
ATOM     29  C   UNL     1       5.541  -1.434   2.518  1.00  0.00     0.001 A 
ATOM     30  C   UNL     1       4.684   0.644   3.418  1.00  0.00     0.001 A 
ATOM     31  C   UNL     1       5.459  -0.511   3.564  1.00  0.00     0.000 A 
ENDBRANCH  23  26
ENDBRANCH   7  23
TORSDOF 3
