REMARK SMILES S=C(NC1CCCCC1)N[C@H]1CO[C@H]2[C@@H]1OC[C@@H]2n1nnnc1Oc1ccc(-n2ccnc2)cc1
REMARK SMILES IDX 19 1 20 2 21 3 22 4 23 5 18 6 11 7 12 8 15 9 13 10 14 11
REMARK SMILES IDX 16 12 17 13 10 14 1 15 2 16 3 17 4 20 5 21 9 22 6 23 8 24
REMARK SMILES IDX 7 25 24 26 25 27 26 28 35 29 27 30 34 31 28 32 29 33 30 34
REMARK SMILES IDX 33 35 31 36 32 37
REMARK H PARENT 3 18 10 19
ROOT
ATOM      1  N   UNL     1      -1.384   2.182   0.029  1.00  0.00    -0.187 N 
ATOM      2  N   UNL     1      -1.200   3.424   0.446  1.00  0.00    -0.042 NA
ATOM      3  N   UNL     1      -2.261   3.804   1.142  1.00  0.00    -0.020 NA
ATOM      4  N   UNL     1      -3.146   2.817   1.186  1.00  0.00    -0.070 NA
ATOM      5  C   UNL     1      -2.592   1.812   0.484  1.00  0.00     0.341 A 
ENDROOT
BRANCH   1   6
ATOM      6  C   UNL     1      -0.428   1.405  -0.771  1.00  0.00     0.172 C 
ATOM      7  C   UNL     1       2.330   0.536  -1.722  1.00  0.00     0.139 C 
ATOM      8  C   UNL     1       2.892   1.581  -0.765  1.00  0.00     0.188 C 
ATOM      9  C   UNL     1       1.262   1.379  -2.378  1.00  0.00     0.174 C 
ATOM     10  O   UNL     1       1.786   2.274  -0.222  1.00  0.00    -0.371 OA
ATOM     11  C   UNL     1       0.772   2.201  -1.208  1.00  0.00     0.176 C 
ATOM     12  O   UNL     1       0.179   0.624  -2.902  1.00  0.00    -0.371 OA
ATOM     13  C   UNL     1      -0.954   1.003  -2.138  1.00  0.00     0.191 C 
BRANCH   7  14
ATOM     14  N   UNL     1       3.317   0.042  -2.672  1.00  0.00    -0.355 N 
ATOM     15  S   UNL     1       5.493  -0.930  -3.321  1.00  0.00    -0.041 S 
ATOM     16  C   UNL     1       4.505  -0.667  -2.300  1.00  0.00     0.166 C 
ATOM     17  N   UNL     1       4.683  -1.156  -0.959  1.00  0.00    -0.360 N 
ATOM     18  H   UNL     1       3.864  -1.139  -0.339  1.00  0.00     0.163 HD
ATOM     19  H   UNL     1       3.179   0.276  -3.670  1.00  0.00     0.163 HD
BRANCH  17  20
ATOM     20  C   UNL     1       5.924  -1.746  -0.450  1.00  0.00     0.081 C 
ATOM     21  C   UNL     1       7.050  -0.687  -0.343  1.00  0.00     0.025 C 
ATOM     22  C   UNL     1       5.711  -2.389   0.942  1.00  0.00     0.025 C 
ATOM     23  C   UNL     1       6.717   0.374   0.721  1.00  0.00     0.002 C 
ATOM     24  C   UNL     1       5.391  -1.336   2.018  1.00  0.00     0.002 C 
ATOM     25  C   UNL     1       6.511  -0.291   2.089  1.00  0.00     0.000 C 
ENDBRANCH  17  20
ENDBRANCH   7  14
ENDBRANCH   1   6
BRANCH   5  26
ATOM     26  O   UNL     1      -3.145   0.590   0.275  1.00  0.00    -0.423 OA
BRANCH  26  27
ATOM     27  C   UNL     1      -4.421   0.177   0.512  1.00  0.00     0.131 A 
ATOM     28  C   UNL     1      -5.499   1.054   0.750  1.00  0.00     0.049 A 
ATOM     29  C   UNL     1      -4.671  -1.198   0.495  1.00  0.00     0.049 A 
ATOM     30  C   UNL     1      -6.786   0.555   0.972  1.00  0.00     0.030 A 
ATOM     31  C   UNL     1      -5.956  -1.700   0.720  1.00  0.00     0.030 A 
ATOM     32  C   UNL     1      -7.039  -0.831   0.963  1.00  0.00     0.047 A 
BRANCH  32  33
ATOM     33  N   UNL     1      -8.376  -1.346   1.190  1.00  0.00    -0.306 N 
ATOM     34  C   UNL     1      -9.505  -0.637   1.402  1.00  0.00     0.113 A 
ATOM     35  C   UNL     1      -8.764  -2.643   1.232  1.00  0.00     0.204 A 
ATOM     36  C   UNL     1     -10.548  -1.517   1.566  1.00  0.00     0.131 A 
ATOM     37  N   UNL     1     -10.086  -2.776   1.461  1.00  0.00    -0.245 NA
ENDBRANCH  32  33
ENDBRANCH  26  27
ENDBRANCH   5  26
TORSDOF 6
