REMARK SMILES O=C1NC(=O)C2(Cc3ccccc3N3CCN(c4ccccc4)C[C@H]32)C(=O)N1
REMARK SMILES IDX 1 1 2 2 3 3 4 4 5 5 6 6 7 7 8 8 9 9 10 10 11 11 12 12 13 13
REMARK SMILES IDX 14 14 15 15 16 16 17 17 24 18 25 19 26 20 27 21 28 22 18 25
REMARK SMILES IDX 19 26 23 27 20 28 22 29 21 30
REMARK H PARENT 3 23 28 24
ROOT
ATOM      1  O   UNL     1      -2.825   4.637   0.353  1.00  0.00    -0.248 OA
ATOM      2  C   UNL     1      -2.502   3.463   0.461  1.00  0.00     0.328 C 
ATOM      3  N   UNL     1      -2.776   2.601  -0.550  1.00  0.00    -0.277 N 
ATOM      4  C   UNL     1      -2.446   1.285  -0.498  1.00  0.00     0.246 C 
ATOM      5  O   UNL     1      -2.746   0.570  -1.443  1.00  0.00    -0.273 OA
ATOM      6  C   UNL     1      -1.726   0.685   0.717  1.00  0.00     0.154 C 
ATOM      7  C   UNL     1      -2.602  -0.434   1.351  1.00  0.00     0.067 C 
ATOM      8  C   UNL     1      -2.590  -1.739   0.582  1.00  0.00    -0.023 A 
ATOM      9  C   UNL     1      -3.559  -2.704   0.895  1.00  0.00     0.006 A 
ATOM     10  C   UNL     1      -3.606  -3.912   0.201  1.00  0.00     0.000 A 
ATOM     11  C   UNL     1      -2.679  -4.172  -0.805  1.00  0.00     0.002 A 
ATOM     12  C   UNL     1      -1.695  -3.232  -1.120  1.00  0.00     0.026 A 
ATOM     13  C   UNL     1      -1.624  -2.001  -0.426  1.00  0.00     0.040 A 
ATOM     14  N   UNL     1      -0.617  -1.008  -0.704  1.00  0.00    -0.363 N 
ATOM     15  C   UNL     1       0.175  -0.982  -1.933  1.00  0.00     0.138 C 
ATOM     16  C   UNL     1       1.655  -0.826  -1.565  1.00  0.00     0.138 C 
ATOM     17  N   UNL     1       1.868   0.318  -0.667  1.00  0.00    -0.368 N 
ATOM     18  C   UNL     1       0.677   1.059  -0.231  1.00  0.00     0.143 C 
ATOM     19  C   UNL     1      -0.377   0.046   0.291  1.00  0.00     0.127 C 
ATOM     20  C   UNL     1      -1.492   1.759   1.777  1.00  0.00     0.246 C 
ATOM     21  O   UNL     1      -0.933   1.455   2.822  1.00  0.00    -0.273 OA
ATOM     22  N   UNL     1      -1.878   3.046   1.591  1.00  0.00    -0.277 N 
ATOM     23  H   UNL     1      -3.259   2.960  -1.390  1.00  0.00     0.174 HD
ATOM     24  H   UNL     1      -1.692   3.734   2.338  1.00  0.00     0.174 HD
ENDROOT
BRANCH  17  25
ATOM     25  C   UNL     1       3.211   0.651  -0.230  1.00  0.00     0.037 A 
ATOM     26  C   UNL     1       3.506   1.853   0.467  1.00  0.00     0.026 A 
ATOM     27  C   UNL     1       4.298  -0.214  -0.515  1.00  0.00     0.026 A 
ATOM     28  C   UNL     1       4.814   2.157   0.858  1.00  0.00     0.002 A 
ATOM     29  C   UNL     1       5.600   0.099  -0.116  1.00  0.00     0.002 A 
ATOM     30  C   UNL     1       5.858   1.282   0.570  1.00  0.00     0.000 A 
ENDBRANCH  17  25
TORSDOF 1
