REMARK SMILES CC[C@H](C)CCCCCCCCCCCOC[C@H](O)CO[C@H]1O[C@H](CO)[C@@H](O)[C@H](O[C@@H]2O[C@H](COC(C)=O)[C@@H](O)[C@H](O)[C@H]2O)[C@@H]1O
REMARK SMILES IDX 14 1 13 2 12 3 11 4 10 5 9 6 8 7 7 8 6 9 5 10 3 11 4 12 2 13
REMARK SMILES IDX 1 14 15 15 16 16 17 17 18 18 19 19 20 21 21 22 22 23 23 24
REMARK SMILES IDX 45 25 24 26 29 27 27 28 46 29 25 31 26 32 30 34 31 35 32 36
REMARK SMILES IDX 43 37 33 38 41 39 39 40 44 41 34 43 35 44 36 45 38 46 37 47
REMARK SMILES IDX 42 48 40 50 28 52
REMARK H PARENT 19 20 46 30 26 33 44 42 42 49 40 51 28 53
ROOT
ATOM      1  C   UNL     1       2.920  -0.328  -0.168  1.00  0.00     0.028 C 
ENDROOT
BRANCH   1   2
ATOM      2  C   UNL     1       3.870   0.253   0.887  1.00  0.00     0.002 C 
BRANCH   2   3
ATOM      3  C   UNL     1       5.187  -0.520   1.018  1.00  0.00     0.000 C 
BRANCH   3   4
ATOM      4  C   UNL     1       6.038  -0.479  -0.261  1.00  0.00     0.000 C 
BRANCH   4   5
ATOM      5  C   UNL     1       7.382  -1.211  -0.113  1.00  0.00     0.000 C 
BRANCH   5   6
ATOM      6  C   UNL     1       8.306  -0.545   0.920  1.00  0.00     0.000 C 
BRANCH   6   7
ATOM      7  C   UNL     1       9.673  -1.235   1.051  1.00  0.00     0.000 C 
BRANCH   7   8
ATOM      8  C   UNL     1      10.523  -1.257  -0.235  1.00  0.00     0.000 C 
BRANCH   8   9
ATOM      9  C   UNL     1      10.788   0.125  -0.865  1.00  0.00     0.000 C 
BRANCH   9  10
ATOM     10  C   UNL     1      11.442   1.159   0.075  1.00  0.00     0.003 C 
BRANCH  10  11
ATOM     11  C   UNL     1      12.786   0.731   0.715  1.00  0.00    -0.015 C 
ATOM     12  C   UNL     1      13.845   0.416  -0.358  1.00  0.00     0.007 C 
BRANCH  11  13
ATOM     13  C   UNL     1      13.255   1.859   1.669  1.00  0.00    -0.000 C 
ATOM     14  C   UNL     1      14.496   1.500   2.486  1.00  0.00     0.004 C 
ENDBRANCH  11  13
ENDBRANCH  10  11
ENDBRANCH   9  10
ENDBRANCH   8   9
ENDBRANCH   7   8
ENDBRANCH   6   7
ENDBRANCH   5   6
ENDBRANCH   4   5
ENDBRANCH   3   4
ENDBRANCH   2   3
ENDBRANCH   1   2
BRANCH   1  15
ATOM     15  C   UNL     1       1.591   0.441  -0.143  1.00  0.00     0.160 C 
BRANCH  15  16
ATOM     16  O   UNL     1       0.656   0.026  -1.125  1.00  0.00    -0.379 OA
BRANCH  16  17
ATOM     17  C   UNL     1       0.296  -1.345  -1.051  1.00  0.00     0.194 C 
BRANCH  17  18
ATOM     18  C   UNL     1      -0.265  -1.808   0.319  1.00  0.00     0.166 C 
BRANCH  18  19
ATOM     19  O   UNL     1      -0.655  -3.159   0.250  1.00  0.00    -0.388 OA
ATOM     20  H   UNL     1      -1.365  -3.238  -0.435  1.00  0.00     0.211 HD
ENDBRANCH  18  19
BRANCH  18  21
ATOM     21  C   UNL     1      -1.428  -0.937   0.819  1.00  0.00     0.197 C 
BRANCH  21  22
ATOM     22  O   UNL     1      -2.488  -0.971  -0.111  1.00  0.00    -0.347 OA
BRANCH  22  23
ATOM     23  C   UNL     1      -3.520  -0.084   0.273  1.00  0.00     0.282 C 
ATOM     24  O   UNL     1      -3.425   1.114  -0.474  1.00  0.00    -0.341 OA
ATOM     25  C   UNL     1      -4.871  -0.797   0.023  1.00  0.00     0.202 C 
ATOM     26  C   UNL     1      -4.395   2.095  -0.071  1.00  0.00     0.178 C 
ATOM     27  C   UNL     1      -6.027   0.218  -0.136  1.00  0.00     0.186 C 
ATOM     28  C   UNL     1      -5.678   1.502   0.624  1.00  0.00     0.177 C 
BRANCH  25  29
ATOM     29  O   UNL     1      -5.105  -1.719   1.062  1.00  0.00    -0.385 OA
ATOM     30  H   UNL     1      -5.242  -1.204   1.900  1.00  0.00     0.211 HD
ENDBRANCH  25  29
BRANCH  26  31
ATOM     31  C   UNL     1      -3.725   3.192   0.768  1.00  0.00     0.191 C 
BRANCH  31  32
ATOM     32  O   UNL     1      -4.625   4.223   1.071  1.00  0.00    -0.394 OA
ATOM     33  H   UNL     1      -4.757   4.741   0.233  1.00  0.00     0.210 HD
ENDBRANCH  31  32
ENDBRANCH  26  31
BRANCH  27  34
ATOM     34  O   UNL     1      -7.250  -0.364   0.306  1.00  0.00    -0.341 OA
BRANCH  34  35
ATOM     35  C   UNL     1      -8.236  -0.396  -0.713  1.00  0.00     0.282 C 
ATOM     36  O   UNL     1      -9.150   0.673  -0.468  1.00  0.00    -0.340 OA
ATOM     37  C   UNL     1      -8.940  -1.766  -0.680  1.00  0.00     0.202 C 
ATOM     38  C   UNL     1     -10.437   0.553  -1.084  1.00  0.00     0.190 C 
ATOM     39  C   UNL     1      -9.960  -1.865  -1.840  1.00  0.00     0.179 C 
ATOM     40  C   UNL     1     -10.477  -0.464  -2.275  1.00  0.00     0.178 C 
BRANCH  37  41
ATOM     41  O   UNL     1      -8.033  -2.840  -0.722  1.00  0.00    -0.385 OA
ATOM     42  H   UNL     1      -7.443  -2.702  -1.508  1.00  0.00     0.211 HD
ENDBRANCH  37  41
BRANCH  38  43
ATOM     43  C   UNL     1     -11.524   0.327  -0.021  1.00  0.00     0.267 C 
BRANCH  43  44
ATOM     44  O   UNL     1     -12.761   0.446  -0.624  1.00  0.00    -0.463 OA
BRANCH  44  45
ATOM     45  C   UNL     1     -13.950   0.383   0.022  1.00  0.00     0.302 C 
ATOM     46  O   UNL     1     -14.008   0.116   1.213  1.00  0.00    -0.253 OA
ATOM     47  C   UNL     1     -15.205   0.672  -0.738  1.00  0.00     0.139 C 
ENDBRANCH  44  45
ENDBRANCH  43  44
ENDBRANCH  38  43
BRANCH  39  48
ATOM     48  O   UNL     1     -10.988  -2.775  -1.537  1.00  0.00    -0.387 OA
ATOM     49  H   UNL     1     -11.511  -2.414  -0.781  1.00  0.00     0.211 HD
ENDBRANCH  39  48
BRANCH  40  50
ATOM     50  O   UNL     1      -9.646  -0.017  -3.333  1.00  0.00    -0.387 OA
ATOM     51  H   UNL     1      -9.407   0.939  -3.220  1.00  0.00     0.211 HD
ENDBRANCH  40  50
ENDBRANCH  34  35
ENDBRANCH  27  34
BRANCH  28  52
ATOM     52  O   UNL     1      -6.737   2.427   0.613  1.00  0.00    -0.387 OA
ATOM     53  H   UNL     1      -6.986   2.594  -0.333  1.00  0.00     0.211 HD
ENDBRANCH  28  52
ENDBRANCH  22  23
ENDBRANCH  21  22
ENDBRANCH  18  21
ENDBRANCH  17  18
ENDBRANCH  16  17
ENDBRANCH  15  16
ENDBRANCH   1  15
TORSDOF 31
