REMARK SMILES CC1=C(O)C(=O)[C@@H]2[C@@]34COC(=O)[C@]35COC[C@@]15[C@]2(O)C(=O)C(O)=C4C
REMARK SMILES IDX 1 1 2 2 3 3 5 4 6 5 7 6 18 7 20 8 21 9 22 10 24 11 25 12
REMARK SMILES IDX 8 13 9 14 10 15 11 16 12 17 13 18 14 19 15 20 16 21 17 22
REMARK SMILES IDX 4 23 19 25 23 27
REMARK H PARENT 4 24 19 26 23 28
ROOT
ATOM      1  C   UNL     1      -3.845   3.702   0.000  1.00  0.00     0.044 C 
ATOM      2  C   UNL     1      -2.377   3.390   0.000  1.00  0.00    -0.015 C 
ATOM      3  C   UNL     1      -1.537   4.431  -0.799  1.00  0.00     0.158 C 
ATOM      4  C   UNL     1       0.137   4.167  -0.646  1.00  0.00     0.204 C 
ATOM      5  O   UNL     1       0.951   4.891  -1.197  1.00  0.00    -0.290 OA
ATOM      6  C   UNL     1       0.646   2.697   0.237  1.00  0.00     0.120 C 
ATOM      7  C   UNL     1      -0.641   2.787   0.564  1.00  0.00     0.155 C 
ATOM      8  C   UNL     1      -0.828   2.014  -1.192  1.00  0.00     0.230 C 
ATOM      9  O   UNL     1      -0.736   2.530  -2.310  1.00  0.00    -0.287 OA
ATOM     10  C   UNL     1      -1.225   0.762  -1.147  1.00  0.00     0.161 C 
ATOM     11  C   UNL     1      -0.819   0.332  -0.000  1.00  0.00    -0.016 C 
ATOM     12  C   UNL     1      -0.662  -1.160  -0.000  1.00  0.00     0.044 C 
ATOM     13  C   UNL     1       0.119   1.183   0.934  1.00  0.00     0.062 C 
ATOM     14  C   UNL     1       1.261   0.528   1.717  1.00  0.00     0.246 C 
ATOM     15  O   UNL     1       1.323   1.309   2.857  1.00  0.00    -0.464 OA
ATOM     16  C   UNL     1       0.121   1.891   3.077  1.00  0.00     0.316 C 
ATOM     17  O   UNL     1      -0.134   2.504   4.102  1.00  0.00    -0.251 OA
ATOM     18  C   UNL     1      -0.899   1.499   1.991  1.00  0.00     0.120 C 
ATOM     19  C   UNL     1      -1.871   0.572   2.681  1.00  0.00     0.181 C 
ATOM     20  O   UNL     1      -2.737   1.478   3.303  1.00  0.00    -0.379 OA
ATOM     21  C   UNL     1      -2.744   2.632   2.462  1.00  0.00     0.176 C 
ATOM     22  C   UNL     1      -1.907   2.354   1.145  1.00  0.00     0.075 C 
ENDROOT
BRANCH   3  23
ATOM     23  O   UNL     1      -2.071   5.404  -1.566  1.00  0.00    -0.504 OA
ATOM     24  H   UNL     1      -1.501   6.013  -2.054  1.00  0.00     0.293 HD
ENDBRANCH   3  23
BRANCH   7  25
ATOM     25  O   UNL     1      -0.434   3.936   1.564  1.00  0.00    -0.380 OA
ATOM     26  H   UNL     1      -1.076   4.699   1.543  1.00  0.00     0.212 HD
ENDBRANCH   7  25
BRANCH  10  27
ATOM     27  O   UNL     1      -1.767   0.082  -2.195  1.00  0.00    -0.504 OA
ATOM     28  H   UNL     1      -2.017  -0.851  -2.180  1.00  0.00     0.293 HD
ENDBRANCH  10  27
TORSDOF 3
