REMARK SMILES O=C1C(=Cc2cccnc2)Oc2cc(OCc3ccc([N+](=O)[O-])cc3)ccc21
REMARK SMILES IDX 16 1 15 2 14 3 1 4 2 5 3 6 28 7 4 8 11 9 27 10 12 11 26 12
REMARK SMILES IDX 13 13 5 14 6 15 10 16 7 17 9 18 8 19 17 20 18 21 25 22 19 23
REMARK SMILES IDX 24 24 20 25 21 26 22 27 23 28
REMARK H PARENT
ROOT
ATOM      1  C   UNL     1       3.235   2.045  -1.212  1.00  0.00     0.265 C 
ENDROOT
BRANCH   1   2
ATOM      2  O   UNL     1       1.921   1.998  -0.781  1.00  0.00    -0.489 OA
BRANCH   2   3
ATOM      3  C   UNL     1       1.028   0.983  -0.927  1.00  0.00     0.123 A 
ATOM      4  O   UNL     1      -2.235  -2.949  -1.611  1.00  0.00    -0.285 OA
ATOM      5  C   UNL     1      -2.094  -1.812  -1.189  1.00  0.00     0.231 C 
ATOM      6  C   UNL     1      -3.106  -0.951  -0.566  1.00  0.00     0.176 C 
ATOM      7  C   UNL     1      -0.890  -1.014  -1.202  1.00  0.00     0.069 A 
ATOM      8  C   UNL     1      -4.389  -1.291  -0.337  1.00  0.00     0.061 C 
ATOM      9  O   UNL     1      -2.527   0.235  -0.246  1.00  0.00    -0.452 OA
ATOM     10  C   UNL     1       0.394  -1.273  -1.672  1.00  0.00     0.020 A 
ATOM     11  C   UNL     1      -1.228   0.184  -0.620  1.00  0.00     0.142 A 
ATOM     12  C   UNL     1       1.361  -0.260  -1.536  1.00  0.00     0.047 A 
ATOM     13  C   UNL     1      -0.286   1.198  -0.466  1.00  0.00     0.094 A 
BRANCH   8  14
ATOM     14  C   UNL     1      -5.444  -0.433   0.284  1.00  0.00    -0.003 A 
ATOM     15  C   UNL     1      -6.686  -1.023   0.577  1.00  0.00     0.011 A 
ATOM     16  C   UNL     1      -5.279   0.936   0.588  1.00  0.00     0.119 A 
ATOM     17  C   UNL     1      -7.710  -0.273   1.157  1.00  0.00     0.021 A 
ATOM     18  N   UNL     1      -6.296   1.643   1.149  1.00  0.00    -0.264 NA
ATOM     19  C   UNL     1      -7.494   1.074   1.439  1.00  0.00     0.111 A 
ENDBRANCH   8  14
ENDBRANCH   2   3
ENDBRANCH   1   2
BRANCH   1  20
ATOM     20  C   UNL     1       4.132   1.109  -0.441  1.00  0.00    -0.010 A 
ATOM     21  C   UNL     1       4.891   0.138  -1.112  1.00  0.00     0.014 A 
ATOM     22  C   UNL     1       4.241   1.220   0.953  1.00  0.00     0.014 A 
ATOM     23  C   UNL     1       5.744  -0.710  -0.402  1.00  0.00     0.086 A 
ATOM     24  C   UNL     1       5.096   0.373   1.666  1.00  0.00     0.086 A 
ATOM     25  C   UNL     1       5.860  -0.602   0.997  1.00  0.00     0.269 A 
BRANCH  25  26
ATOM     26  N   UNL     1       6.740  -1.460   1.724  1.00  0.00     0.062 N 
ATOM     27  O   UNL     1       7.392  -2.283   1.155  1.00  0.00    -0.258 OA
ATOM     28  O   UNL     1       6.854  -1.347   3.030  1.00  0.00    -0.258 OA
ENDBRANCH  25  26
ENDBRANCH   1  20
TORSDOF 5
