REMARK SMILES CCOc1cccc(=Nc2ccc3c(c2)OCO3)c2c(C)oc(C)c12
REMARK SMILES IDX 3 1 2 2 1 3 4 4 5 5 25 6 6 7 23 8 19 9 7 10 22 11 8 12 20 13
REMARK SMILES IDX 9 14 24 15 21 16 10 17 11 18 15 19 12 20 14 21 13 22 16 23
REMARK SMILES IDX 18 24 17 25
REMARK H PARENT
ROOT
ATOM      1  O   UNL     1       3.900   0.633  -0.610  1.00  0.00    -0.493 OA
ENDROOT
BRANCH   1   2
ATOM      2  C   UNL     1       4.668   1.114  -1.653  1.00  0.00     0.226 C 
ATOM      3  C   UNL     1       6.080   1.387  -1.158  1.00  0.00     0.049 C 
ENDBRANCH   1   2
BRANCH   1   4
ATOM      4  C   UNL     1       2.571   0.327  -0.612  1.00  0.00     0.130 A 
ATOM      5  C   UNL     1       1.859   0.447  -1.811  1.00  0.00     0.047 A 
ATOM      6  C   UNL     1       2.015  -0.084   0.620  1.00  0.00     0.067 A 
ATOM      7  C   UNL     1       0.521   0.223  -2.066  1.00  0.00     0.006 A 
ATOM      8  C   UNL     1       2.759  -0.220   1.801  1.00  0.00     0.112 A 
ATOM      9  C   UNL     1       0.692  -0.421   0.972  1.00  0.00     0.053 A 
ATOM     10  C   UNL     1      -0.498  -0.152  -1.210  1.00  0.00     0.029 A 
ATOM     11  O   UNL     1       1.990  -0.605   2.779  1.00  0.00    -0.465 OA
ATOM     12  C   UNL     1      -0.481  -0.434   0.170  1.00  0.00     0.075 A 
ATOM     13  C   UNL     1       0.762  -0.739   2.354  1.00  0.00     0.111 A 
ATOM     14  N   UNL     1      -1.592  -0.740   0.767  1.00  0.00    -0.248 NA
ATOM     15  C   UNL     1       4.225   0.009   2.023  1.00  0.00     0.088 C 
ATOM     16  C   UNL     1      -0.288  -1.183   3.341  1.00  0.00     0.088 C 
BRANCH  14  17
ATOM     17  C   UNL     1      -2.939  -0.671   0.296  1.00  0.00     0.068 A 
ATOM     18  C   UNL     1      -3.841  -1.705   0.650  1.00  0.00     0.032 A 
ATOM     19  C   UNL     1      -3.416   0.441  -0.445  1.00  0.00     0.079 A 
ATOM     20  C   UNL     1      -5.187  -1.654   0.238  1.00  0.00     0.053 A 
ATOM     21  C   UNL     1      -4.751   0.448  -0.829  1.00  0.00     0.167 A 
ATOM     22  C   UNL     1      -5.596  -0.552  -0.508  1.00  0.00     0.165 A 
ATOM     23  O   UNL     1      -5.408   1.373  -1.532  1.00  0.00    -0.454 OA
ATOM     24  O   UNL     1      -6.807  -0.283  -1.002  1.00  0.00    -0.454 OA
ATOM     25  C   UNL     1      -6.726   0.941  -1.665  1.00  0.00     0.468 C 
ENDBRANCH  14  17
ENDBRANCH   1   4
TORSDOF 3
