REMARK SMILES C[C@H]1[C@@H]2[C@@H](O)[C@@H]([C@H](C)C(=O)NC(C)(C)C)CC[C@@]2(C)CC[C@@H]1NC(=O)c1ccncc1
REMARK SMILES IDX 7 1 8 2 6 3 2 4 3 5 22 6 4 7 18 8 21 9 17 10 20 11 16 12
REMARK SMILES IDX 1 13 19 14 23 15 24 16 25 17 26 19 27 20 31 21 28 22 30 23
REMARK SMILES IDX 29 24 5 25 9 27 10 28 11 29 12 31 13 32 14 33 15 34
REMARK H PARENT 23 18 5 26 11 30
ROOT
ATOM      1  C   UNL     1      -3.130  -1.615   1.103  1.00  0.00     0.081 C 
ATOM      2  C   UNL     1      -4.345  -2.546   0.865  1.00  0.00     0.018 C 
ENDROOT
BRANCH   1   3
ATOM      3  C   UNL     1      -1.781  -2.429   0.897  1.00  0.00     0.030 C 
ATOM      4  C   UNL     1       1.641  -0.229   0.863  1.00  0.00     0.014 C 
ATOM      5  C   UNL     1       0.326  -0.938   0.421  1.00  0.00     0.029 C 
ATOM      6  C   UNL     1       2.066   0.805  -0.244  1.00  0.00     0.085 C 
ATOM      7  C   UNL     1      -0.458  -1.794   1.470  1.00  0.00     0.122 C 
ATOM      8  C   UNL     1       0.654  -1.820  -0.870  1.00  0.00    -0.027 C 
ATOM      9  C   UNL     1       1.503   0.472  -1.660  1.00  0.00     0.026 C 
ATOM     10  C   UNL     1      -0.717  -2.216  -1.487  1.00  0.00     0.007 C 
ATOM     11  C   UNL     1       1.537  -1.027  -1.908  1.00  0.00     0.009 C 
ATOM     12  C   UNL     1      -1.561  -3.066  -0.509  1.00  0.00     0.007 C 
ATOM     13  C   UNL     1       1.615   0.489   2.220  1.00  0.00     0.010 C 
ATOM     14  C   UNL     1       1.475  -3.121  -0.570  1.00  0.00     0.012 C 
BRANCH   6  15
ATOM     15  N   UNL     1       3.525   0.880  -0.265  1.00  0.00    -0.349 N 
ATOM     16  C   UNL     1       4.225   2.016   0.034  1.00  0.00     0.251 C 
ATOM     17  O   UNL     1       3.617   3.042   0.307  1.00  0.00    -0.269 OA
ATOM     18  H   UNL     1       4.022   0.013  -0.496  1.00  0.00     0.164 HD
BRANCH  16  19
ATOM     19  C   UNL     1       5.728   2.052   0.058  1.00  0.00     0.042 A 
ATOM     20  C   UNL     1       6.530   0.923  -0.219  1.00  0.00     0.034 A 
ATOM     21  C   UNL     1       6.382   3.258   0.383  1.00  0.00     0.034 A 
ATOM     22  C   UNL     1       7.923   1.026  -0.167  1.00  0.00     0.112 A 
ATOM     23  C   UNL     1       7.777   3.314   0.423  1.00  0.00     0.112 A 
ATOM     24  N   UNL     1       8.512   2.207   0.150  1.00  0.00    -0.265 NA
ENDBRANCH  16  19
ENDBRANCH   6  15
BRANCH   7  25
ATOM     25  O   UNL     1      -0.742  -1.091   2.653  1.00  0.00    -0.392 OA
ATOM     26  H   UNL     1      -1.144  -0.220   2.396  1.00  0.00     0.210 HD
ENDBRANCH   7  25
ENDBRANCH   1   3
BRANCH   1  27
ATOM     27  C   UNL     1      -3.367  -0.309   0.352  1.00  0.00     0.223 C 
ATOM     28  O   UNL     1      -2.595   0.062  -0.510  1.00  0.00    -0.275 OA
ATOM     29  N   UNL     1      -4.475   0.439   0.653  1.00  0.00    -0.351 N 
ATOM     30  H   UNL     1      -5.086   0.096   1.410  1.00  0.00     0.163 HD
BRANCH  29  31
ATOM     31  C   UNL     1      -4.875   1.683  -0.014  1.00  0.00     0.032 C 
ATOM     32  C   UNL     1      -5.123   1.432  -1.516  1.00  0.00     0.034 C 
ATOM     33  C   UNL     1      -3.804   2.775   0.180  1.00  0.00     0.034 C 
ATOM     34  C   UNL     1      -6.197   2.183   0.612  1.00  0.00     0.034 C 
ENDBRANCH  29  31
ENDBRANCH   1  27
TORSDOF 6
