REMARK SMILES CCCCCCCCCCCCC/C=C\CCCOC[C@@H](O)CO[P@](=O)([O-])OCC[N+](C)(C)C
REMARK SMILES IDX 14 1 15 2 13 3 12 4 11 5 10 6 9 7 8 8 7 9 6 10 5 11 4 12
REMARK SMILES IDX 3 13 2 14 1 15 16 16 17 17 18 18 19 19 20 20 21 21 22 22
REMARK SMILES IDX 23 24 24 25 25 26 26 27 27 28 28 29 29 30 30 31 31 32 32 33
REMARK SMILES IDX 33 34 34 35
REMARK H PARENT 22 23
ROOT
ATOM      1  C   UNL     1       1.292   0.180  -1.686  1.00  0.00    -0.031 C 
ATOM      2  C   UNL     1      -0.022   0.440  -1.824  1.00  0.00    -0.031 C 
ENDROOT
BRANCH   1   3
ATOM      3  C   UNL     1       2.242  -0.295  -2.756  1.00  0.00     0.027 C 
BRANCH   3   4
ATOM      4  C   UNL     1       3.359   0.740  -2.935  1.00  0.00     0.004 C 
BRANCH   4   5
ATOM      5  C   UNL     1       4.369   0.360  -4.033  1.00  0.00     0.000 C 
BRANCH   5   6
ATOM      6  C   UNL     1       5.126  -0.963  -3.795  1.00  0.00     0.000 C 
BRANCH   6   7
ATOM      7  C   UNL     1       5.892  -1.042  -2.462  1.00  0.00     0.000 C 
BRANCH   7   8
ATOM      8  C   UNL     1       6.967   0.050  -2.322  1.00  0.00     0.000 C 
BRANCH   8   9
ATOM      9  C   UNL     1       7.781  -0.069  -1.023  1.00  0.00     0.000 C 
BRANCH   9  10
ATOM     10  C   UNL     1       6.927   0.152   0.241  1.00  0.00    -0.000 C 
BRANCH  10  11
ATOM     11  C   UNL     1       7.762   0.191   1.532  1.00  0.00    -0.000 C 
BRANCH  11  12
ATOM     12  C   UNL     1       8.459  -1.146   1.833  1.00  0.00    -0.000 C 
BRANCH  12  13
ATOM     13  C   UNL     1       9.130  -1.253   3.218  1.00  0.00    -0.000 C 
BRANCH  13  14
ATOM     14  C   UNL     1      10.434  -0.463   3.454  1.00  0.00    -0.003 C 
ATOM     15  C   UNL     1      10.278   1.043   3.662  1.00  0.00     0.004 C 
ENDBRANCH  13  14
ENDBRANCH  12  13
ENDBRANCH  11  12
ENDBRANCH  10  11
ENDBRANCH   9  10
ENDBRANCH   8   9
ENDBRANCH   7   8
ENDBRANCH   6   7
ENDBRANCH   5   6
ENDBRANCH   4   5
ENDBRANCH   3   4
ENDBRANCH   1   3
BRANCH   2  16
ATOM     16  C   UNL     1      -0.854   0.315  -3.086  1.00  0.00     0.029 C 
BRANCH  16  17
ATOM     17  C   UNL     1      -1.967  -0.733  -2.925  1.00  0.00     0.033 C 
BRANCH  17  18
ATOM     18  C   UNL     1      -2.935  -0.514  -1.745  1.00  0.00     0.160 C 
BRANCH  18  19
ATOM     19  O   UNL     1      -3.812   0.586  -1.925  1.00  0.00    -0.379 OA
BRANCH  19  20
ATOM     20  C   UNL     1      -3.382   1.794  -1.314  1.00  0.00     0.194 C 
BRANCH  20  21
ATOM     21  C   UNL     1      -3.298   1.773   0.232  1.00  0.00     0.166 C 
BRANCH  21  22
ATOM     22  O   UNL     1      -2.970   3.055   0.707  1.00  0.00    -0.388 OA
ATOM     23  H   UNL     1      -3.720   3.664   0.474  1.00  0.00     0.211 HD
ENDBRANCH  21  22
BRANCH  21  24
ATOM     24  C   UNL     1      -4.581   1.266   0.901  1.00  0.00     0.204 C 
BRANCH  24  25
ATOM     25  O   UNL     1      -4.367   1.241   2.292  1.00  0.00    -0.316 OA
BRANCH  25  26
ATOM     26  P   UNL     1      -5.876   0.849   3.073  1.00  0.00     0.268 P 
ATOM     27  O   UNL     1      -6.703   2.166   3.139  1.00  0.00    -0.276 OA
ATOM     28  O   UNL     1      -5.588   0.350   4.710  1.00  0.00    -0.756 OA
BRANCH  26  29
ATOM     29  O   UNL     1      -6.765  -0.385   2.196  1.00  0.00    -0.312 OA
BRANCH  29  30
ATOM     30  C   UNL     1      -8.123  -0.025   2.154  1.00  0.00     0.231 C 
BRANCH  30  31
ATOM     31  C   UNL     1      -8.925  -1.199   1.561  1.00  0.00     0.292 C 
BRANCH  31  32
ATOM     32  N   UNL     1     -10.397  -0.970   1.426  1.00  0.00    -0.329 N 
ATOM     33  C   UNL     1     -11.003  -2.210   0.881  1.00  0.00     0.334 C 
ATOM     34  C   UNL     1     -10.687   0.140   0.484  1.00  0.00     0.334 C 
ATOM     35  C   UNL     1     -11.028  -0.682   2.737  1.00  0.00     0.334 C 
ENDBRANCH  31  32
ENDBRANCH  30  31
ENDBRANCH  29  30
ENDBRANCH  26  29
ENDBRANCH  25  26
ENDBRANCH  24  25
ENDBRANCH  21  24
ENDBRANCH  20  21
ENDBRANCH  19  20
ENDBRANCH  18  19
ENDBRANCH  17  18
ENDBRANCH  16  17
ENDBRANCH   2  16
TORSDOF 26
