REMARK SMILES CCCCCCCCCCCCCC[C@@H](O)[C@@H](O)C[C@@H](O)[C@@H](O)[C@@H]1CC[C@H](CCCCC[C@H](O)CC2=C[C@H](C)OC2=O)O1
REMARK SMILES IDX 15 1 14 2 13 3 12 4 11 5 10 6 9 7 8 8 7 9 6 10 5 11 4 12
REMARK SMILES IDX 3 13 2 14 1 15 16 16 17 18 18 19 19 21 20 22 21 23 22 25
REMARK SMILES IDX 23 26 24 28 25 29 43 30 26 31 27 32 28 33 29 34 30 35 31 36
REMARK SMILES IDX 32 37 33 38 34 39 35 41 36 42 37 43 41 44 38 45 40 46 42 47
REMARK SMILES IDX 39 48
REMARK H PARENT 16 17 18 20 21 24 23 27 34 40
ROOT
ATOM      1  C   UNL     1      -1.825   1.386   1.253  1.00  0.00     0.143 C 
ENDROOT
BRANCH   1   2
ATOM      2  C   UNL     1      -3.161   0.663   0.965  1.00  0.00     0.034 C 
BRANCH   2   3
ATOM      3  C   UNL     1      -4.063   0.637   2.208  1.00  0.00     0.003 C 
BRANCH   3   4
ATOM      4  C   UNL     1      -5.383  -0.116   1.974  1.00  0.00     0.000 C 
BRANCH   4   5
ATOM      5  C   UNL     1      -6.254   0.428   0.825  1.00  0.00     0.000 C 
BRANCH   5   6
ATOM      6  C   UNL     1      -6.623   1.921   0.934  1.00  0.00     0.000 C 
BRANCH   6   7
ATOM      7  C   UNL     1      -7.358   2.316   2.226  1.00  0.00     0.000 C 
BRANCH   7   8
ATOM      8  C   UNL     1      -8.627   1.526   2.616  1.00  0.00     0.000 C 
BRANCH   8   9
ATOM      9  C   UNL     1      -9.878   1.681   1.728  1.00  0.00    -0.000 C 
BRANCH   9  10
ATOM     10  C   UNL     1      -9.828   0.916   0.398  1.00  0.00    -0.000 C 
BRANCH  10  11
ATOM     11  C   UNL     1     -11.175   1.000  -0.336  1.00  0.00    -0.000 C 
BRANCH  11  12
ATOM     12  C   UNL     1     -11.152   0.329  -1.721  1.00  0.00    -0.000 C 
BRANCH  12  13
ATOM     13  C   UNL     1     -10.872  -1.185  -1.663  1.00  0.00    -0.000 C 
BRANCH  13  14
ATOM     14  C   UNL     1     -10.854  -1.849  -3.050  1.00  0.00    -0.003 C 
ATOM     15  C   UNL     1     -12.205  -1.809  -3.762  1.00  0.00     0.004 C 
ENDBRANCH  13  14
ENDBRANCH  12  13
ENDBRANCH  11  12
ENDBRANCH  10  11
ENDBRANCH   9  10
ENDBRANCH   8   9
ENDBRANCH   7   8
ENDBRANCH   6   7
ENDBRANCH   5   6
ENDBRANCH   4   5
ENDBRANCH   3   4
ENDBRANCH   2   3
ENDBRANCH   1   2
BRANCH   1  16
ATOM     16  O   UNL     1      -1.060   0.744   2.249  1.00  0.00    -0.390 OA
ATOM     17  H   UNL     1      -1.300  -0.216   2.290  1.00  0.00     0.211 HD
ENDBRANCH   1  16
BRANCH   1  18
ATOM     18  C   UNL     1      -0.995   1.628  -0.043  1.00  0.00     0.145 C 
BRANCH  18  19
ATOM     19  O   UNL     1       0.170   2.390   0.190  1.00  0.00    -0.390 OA
ATOM     20  H   UNL     1       0.354   2.454   1.162  1.00  0.00     0.211 HD
ENDBRANCH  18  19
BRANCH  18  21
ATOM     21  C   UNL     1      -0.671   0.379  -0.911  1.00  0.00     0.069 C 
BRANCH  21  22
ATOM     22  C   UNL     1       0.159  -0.784  -0.283  1.00  0.00     0.148 C 
BRANCH  22  23
ATOM     23  O   UNL     1       0.330  -1.830  -1.213  1.00  0.00    -0.390 OA
ATOM     24  H   UNL     1       0.453  -1.442  -2.117  1.00  0.00     0.211 HD
ENDBRANCH  22  23
BRANCH  22  25
ATOM     25  C   UNL     1       1.525  -0.366   0.341  1.00  0.00     0.172 C 
BRANCH  25  26
ATOM     26  O   UNL     1       2.151  -1.442   0.994  1.00  0.00    -0.388 OA
ATOM     27  H   UNL     1       2.200  -2.202   0.360  1.00  0.00     0.211 HD
ENDBRANCH  25  26
BRANCH  25  28
ATOM     28  C   UNL     1       2.498   0.365  -0.615  1.00  0.00     0.150 C 
ATOM     29  C   UNL     1       3.224  -0.498  -1.633  1.00  0.00     0.037 C 
ATOM     30  O   UNL     1       3.528   0.993   0.110  1.00  0.00    -0.372 OA
ATOM     31  C   UNL     1       4.222   0.512  -2.130  1.00  0.00     0.035 C 
ATOM     32  C   UNL     1       4.493   1.343  -0.867  1.00  0.00     0.118 C 
BRANCH  32  33
ATOM     33  C   UNL     1       5.918   1.306  -0.290  1.00  0.00     0.032 C 
BRANCH  33  34
ATOM     34  C   UNL     1       6.476  -0.002   0.291  1.00  0.00     0.003 C 
BRANCH  34  35
ATOM     35  C   UNL     1       6.857  -1.061  -0.761  1.00  0.00     0.000 C 
BRANCH  35  36
ATOM     36  C   UNL     1       7.703  -2.220  -0.192  1.00  0.00     0.003 C 
BRANCH  36  37
ATOM     37  C   UNL     1       9.063  -1.727   0.338  1.00  0.00     0.032 C 
BRANCH  37  38
ATOM     38  C   UNL     1      10.027  -2.861   0.742  1.00  0.00     0.119 C 
BRANCH  38  39
ATOM     39  O   UNL     1       9.435  -3.710   1.694  1.00  0.00    -0.393 OA
ATOM     40  H   UNL     1       9.178  -3.154   2.476  1.00  0.00     0.210 HD
ENDBRANCH  38  39
BRANCH  38  41
ATOM     41  C   UNL     1      11.348  -2.283   1.304  1.00  0.00     0.074 C 
BRANCH  41  42
ATOM     42  C   UNL     1      12.025  -1.359   0.321  1.00  0.00     0.039 C 
ATOM     43  C   UNL     1      12.220  -0.061   0.482  1.00  0.00     0.028 C 
ATOM     44  C   UNL     1      12.561  -1.691  -0.984  1.00  0.00     0.334 C 
ATOM     45  C   UNL     1      12.891   0.500  -0.745  1.00  0.00     0.197 C 
ATOM     46  O   UNL     1      13.062  -0.594  -1.577  1.00  0.00    -0.455 OA
ATOM     47  O   UNL     1      12.571  -2.799  -1.491  1.00  0.00    -0.247 OA
ATOM     48  C   UNL     1      12.011   1.548  -1.424  1.00  0.00     0.058 C 
ENDBRANCH  41  42
ENDBRANCH  38  41
ENDBRANCH  37  38
ENDBRANCH  36  37
ENDBRANCH  35  36
ENDBRANCH  34  35
ENDBRANCH  33  34
ENDBRANCH  32  33
ENDBRANCH  25  28
ENDBRANCH  22  25
ENDBRANCH  21  22
ENDBRANCH  18  21
ENDBRANCH   1  18
TORSDOF 31
