REMARK SMILES Cc1cnn([C@H]2[C@@H]3OC[C@@H](O3)[C@@H](NC(C)C)[C@@H]2O)c1
REMARK SMILES IDX 6 1 7 2 8 3 9 4 10 5 11 6 12 7 17 8 5 9 2 10 19 11 3 12 4 13
REMARK SMILES IDX 1 14 18 15 13 17 14 19 15 20 16 21
REMARK H PARENT 18 16 13 18
ROOT
ATOM      1  C   UNL     1      -1.243  -1.370  -1.041  1.00  0.00     0.194 C 
ATOM      2  C   UNL     1      -0.440  -1.159  -2.361  1.00  0.00     0.277 C 
ATOM      3  O   UNL     1       0.179  -2.375  -2.754  1.00  0.00    -0.348 OA
ATOM      4  C   UNL     1       1.528  -2.202  -2.394  1.00  0.00     0.197 C 
ATOM      5  C   UNL     1       1.537  -0.986  -1.497  1.00  0.00     0.167 C 
ATOM      6  O   UNL     1       0.574  -0.202  -2.120  1.00  0.00    -0.343 OA
ATOM      7  C   UNL     1       1.080  -1.220  -0.009  1.00  0.00     0.117 C 
ATOM      8  C   UNL     1      -0.275  -1.996   0.002  1.00  0.00     0.164 C 
ENDROOT
BRANCH   1   9
ATOM      9  N   UNL     1      -1.802  -0.101  -0.543  1.00  0.00    -0.262 N 
ATOM     10  C   UNL     1      -2.864   1.372   0.707  1.00  0.00    -0.013 A 
ATOM     11  C   UNL     1      -2.539   0.041   0.579  1.00  0.00     0.112 A 
ATOM     12  C   UNL     1      -2.302   2.000  -0.384  1.00  0.00     0.138 A 
ATOM     13  N   UNL     1      -1.661   1.081  -1.132  1.00  0.00    -0.181 NA
ATOM     14  C   UNL     1      -3.659   2.009   1.797  1.00  0.00     0.048 C 
ENDBRANCH   1   9
BRANCH   8  15
ATOM     15  O   UNL     1      -0.059  -3.345  -0.334  1.00  0.00    -0.389 OA
ATOM     16  H   UNL     1       0.381  -3.773   0.446  1.00  0.00     0.211 HD
ENDBRANCH   8  15
BRANCH   7  17
ATOM     17  N   UNL     1       0.903   0.070   0.700  1.00  0.00    -0.307 NA
ATOM     18  H   UNL     1       0.473  -0.151   1.628  1.00  0.00     0.123 HD
BRANCH  17  19
ATOM     19  C   UNL     1       2.157   0.833   0.907  1.00  0.00     0.047 C 
ATOM     20  C   UNL     1       2.228   2.002  -0.086  1.00  0.00     0.024 C 
ATOM     21  C   UNL     1       2.218   1.402   2.337  1.00  0.00     0.024 C 
ENDBRANCH  17  19
ENDBRANCH   7  17
TORSDOF 4
