REMARK SMILES C=C(C)c1cc(O)c2c(c1C)[C@H](C)CCC2
REMARK SMILES IDX 4 1 5 2 6 3 8 4 16 5 15 6 14 7 12 8 13 9 9 10 10 11 11 12
REMARK SMILES IDX 2 13 1 14 3 15 7 16
REMARK H PARENT 7 17
ROOT
ATOM      1  C   UNL     1       1.790  -0.310  -0.149  1.00  0.00    -0.016 A 
ATOM      2  C   UNL     1       1.508  -1.625  -0.588  1.00  0.00     0.055 A 
ATOM      3  C   UNL     1       0.230  -2.062  -0.907  1.00  0.00     0.119 A 
ATOM      4  C   UNL     1      -0.862  -1.206  -0.786  1.00  0.00    -0.002 A 
ATOM      5  C   UNL     1      -2.231  -1.774  -1.130  1.00  0.00     0.040 C 
ATOM      6  C   UNL     1      -3.400  -0.903  -0.683  1.00  0.00     0.006 C 
ATOM      7  C   UNL     1      -3.117   0.538  -1.054  1.00  0.00     0.008 C 
ATOM      8  C   UNL     1      -1.889   1.071  -0.280  1.00  0.00     0.017 C 
ATOM      9  C   UNL     1      -2.243   1.340   1.201  1.00  0.00     0.013 C 
ATOM     10  C   UNL     1      -0.666   0.140  -0.371  1.00  0.00    -0.035 A 
ATOM     11  C   UNL     1       0.665   0.598  -0.054  1.00  0.00    -0.040 A 
ATOM     12  C   UNL     1       0.877   2.052   0.327  1.00  0.00     0.045 C 
ENDROOT
BRANCH   1  13
ATOM     13  C   UNL     1       3.258   0.032   0.195  1.00  0.00    -0.051 C 
ATOM     14  C   UNL     1       4.285  -0.806  -0.102  1.00  0.00     0.013 C 
ATOM     15  C   UNL     1       3.690   1.299   0.914  1.00  0.00     0.044 C 
ENDBRANCH   1  13
BRANCH   3  16
ATOM     16  O   UNL     1       0.041  -3.336  -1.321  1.00  0.00    -0.508 OA
ATOM     17  H   UNL     1       0.767  -3.968  -1.418  1.00  0.00     0.293 HD
ENDBRANCH   3  16
TORSDOF 2
