REMARK SMILES C/C=C/C=C/C=C/C(=O)O[C@@H]1C=C2[C@H](O)OC(=O)[C@]2(O)[C@@]2(C)CCCC(C)(C)[C@H]12
REMARK SMILES IDX 8 1 9 2 7 3 6 4 5 5 4 6 3 7 2 8 1 9 10 10 11 11 12 12 29 13
REMARK SMILES IDX 13 14 26 15 21 16 14 17 19 18 25 19 23 20 16 21 17 22 24 23
REMARK SMILES IDX 18 24 27 25 28 26 22 27 15 28 20 30
REMARK H PARENT 15 29 20 31
ROOT
ATOM      1  C   UNL     1       1.239  -1.007   0.290  1.00  0.00     0.331 C 
ATOM      2  O   UNL     1       1.307  -2.051   0.929  1.00  0.00    -0.247 OA
ENDROOT
BRANCH   1   3
ATOM      3  C   UNL     1       2.477  -0.221   0.062  1.00  0.00     0.093 C 
ATOM      4  C   UNL     1       3.651  -0.648   0.561  1.00  0.00     0.007 C 
BRANCH   4   5
ATOM      5  C   UNL     1       4.926   0.081   0.394  1.00  0.00     0.000 C 
ATOM      6  C   UNL     1       6.043  -0.428   0.938  1.00  0.00    -0.000 C 
BRANCH   6   7
ATOM      7  C   UNL     1       7.357   0.237   0.831  1.00  0.00    -0.005 C 
ATOM      8  C   UNL     1       8.438  -0.318   1.400  1.00  0.00    -0.030 C 
ATOM      9  C   UNL     1       9.786   0.327   1.318  1.00  0.00     0.035 C 
ENDBRANCH   6   7
ENDBRANCH   4   5
ENDBRANCH   1   3
BRANCH   1  10
ATOM     10  O   UNL     1       0.037  -0.587  -0.209  1.00  0.00    -0.455 OA
BRANCH  10  11
ATOM     11  C   UNL     1      -1.167  -1.222   0.071  1.00  0.00     0.204 C 
ATOM     12  C   UNL     1      -1.547  -1.992  -1.185  1.00  0.00     0.027 C 
ATOM     13  C   UNL     1      -2.273  -0.201   0.577  1.00  0.00     0.050 C 
ATOM     14  C   UNL     1      -2.732  -1.837  -1.787  1.00  0.00     0.041 C 
ATOM     15  C   UNL     1      -1.811   0.922   1.607  1.00  0.00    -0.028 C 
ATOM     16  C   UNL     1      -3.282   0.267  -0.566  1.00  0.00     0.019 C 
ATOM     17  C   UNL     1      -3.090  -2.339  -3.155  1.00  0.00     0.339 C 
ATOM     18  C   UNL     1      -3.848  -1.067  -1.186  1.00  0.00     0.195 C 
ATOM     19  C   UNL     1      -3.083   1.657   2.120  1.00  0.00     0.007 C 
ATOM     20  C   UNL     1      -4.447   1.071   0.087  1.00  0.00     0.011 C 
ATOM     21  O   UNL     1      -4.322  -1.772  -3.413  1.00  0.00    -0.429 OA
ATOM     22  C   UNL     1      -4.755  -1.019  -2.381  1.00  0.00     0.345 C 
ATOM     23  C   UNL     1      -3.954   2.217   0.982  1.00  0.00     0.001 C 
ATOM     24  O   UNL     1      -5.841  -0.462  -2.394  1.00  0.00    -0.248 OA
ATOM     25  C   UNL     1      -0.808   1.981   1.067  1.00  0.00     0.011 C 
ATOM     26  C   UNL     1      -1.129   0.254   2.826  1.00  0.00     0.011 C 
ATOM     27  C   UNL     1      -2.631   1.121  -1.693  1.00  0.00     0.016 C 
BRANCH  17  28
ATOM     28  O   UNL     1      -2.155  -1.910  -4.112  1.00  0.00    -0.355 OA
ATOM     29  H   UNL     1      -2.226  -0.921  -4.179  1.00  0.00     0.215 HD
ENDBRANCH  17  28
BRANCH  18  30
ATOM     30  O   UNL     1      -4.438  -1.882  -0.193  1.00  0.00    -0.374 OA
ATOM     31  H   UNL     1      -5.388  -1.619  -0.077  1.00  0.00     0.212 HD
ENDBRANCH  18  30
ENDBRANCH  10  11
ENDBRANCH   1  10
TORSDOF 7
