REMARK SMILES CC[C@H](C)[C@@H]1/N=C(\O)[C@H](CC(C)C)/N=C(/O)[C@H](Cc2ccccc2)/N=C(/O)[C@H](Cc2ccccc2)/N=C(\O)[C@@H]2CCCN2C(=O)[C@@H]2CCCN2C(=O)[C@H](C(C)C)N=C(O)[C@H](CC(C)C)/N=C(/O)[C@H]([C@@H](C)CC)/N=C/1O
REMARK SMILES IDX 39 1 40 2 41 3 42 4 43 5 37 6 36 7 28 8 26 9 25 10 17 11
REMARK SMILES IDX 15 12 14 13 9 14 7 15 6 16 5 17 3 19 4 20 2 21 1 22 8 23
REMARK SMILES IDX 10 25 11 26 12 27 13 28 16 29 18 31 19 32 20 33 24 34 21 35
REMARK SMILES IDX 23 36 22 37 27 38 29 40 30 41 31 42 35 43 32 44 34 45 33 46
REMARK SMILES IDX 38 47 44 49 45 50 46 51 47 52 50 53 48 54 49 55 51 56 52 57
REMARK SMILES IDX 53 58 54 59 55 60 56 61 57 62 58 63 59 64 60 66 61 67 62 68
REMARK SMILES IDX 63 69 64 70 65 71 66 72 67 73 68 75 69 76 70 77 71 78 72 79
REMARK SMILES IDX 73 80 74 81 75 83
REMARK H PARENT 8 24 16 30 27 39 38 48 59 65 67 74 75 84
REMARK Flexibility Score:  261.900
ROOT
ATOM      1  C   UNL     1      -2.427   5.028   0.420  1.00  0.00     0.171 C 
ATOM      2  C   UNL     1      -3.286   5.781  -0.618  1.00  0.00     0.037 C 
ATOM      3  C   UNL     1      -2.416   6.964  -0.953  1.00  0.00     0.024 C 
ATOM      4  C   UNL     1      -1.058   6.292  -1.066  1.00  0.00     0.120 C 
ATOM      5  N   UNL     1      -1.047   5.391   0.069  1.00  0.00    -0.329 N 
ENDROOT
BRANCH   1   6
ATOM      6  C   UNL     1      -2.717   3.530   0.417  1.00  0.00     0.205 C 
ATOM      7  N   UNL     1      -3.661   3.090  -0.357  1.00  0.00    -0.240 NA
BRANCH   7   8
ATOM      8  C   UNL     1      -4.115   1.732  -0.582  1.00  0.00     0.199 C 
BRANCH   8   9
ATOM      9  C   UNL     1      -3.965   1.455  -2.076  1.00  0.00     0.207 C 
ATOM     10  N   UNL     1      -4.061   0.284  -2.616  1.00  0.00    -0.240 NA
BRANCH  10  11
ATOM     11  C   UNL     1      -4.301  -0.992  -1.969  1.00  0.00     0.199 C 
BRANCH  11  12
ATOM     12  C   UNL     1      -3.079  -1.855  -2.199  1.00  0.00     0.207 C 
ATOM     13  N   UNL     1      -2.639  -2.742  -1.365  1.00  0.00    -0.241 NA
BRANCH  13  14
ATOM     14  C   UNL     1      -3.150  -3.128  -0.058  1.00  0.00     0.195 C 
BRANCH  14  15
ATOM     15  C   UNL     1      -1.998  -2.985   0.913  1.00  0.00     0.207 C 
ATOM     16  N   UNL     1      -0.891  -3.574   0.605  1.00  0.00    -0.240 NA
BRANCH  16  17
ATOM     17  C   UNL     1       0.409  -3.594   1.265  1.00  0.00     0.197 CG0
ATOM     18  G   UNL     1       1.423  -2.861   0.382  1.00  0.00     0.000 G0
BRANCH  17  19
ATOM     19  C   UNL     1       0.773  -5.078   1.597  1.00  0.00     0.020 C 
ATOM     20  C   UNL     1       0.107  -5.481   2.923  1.00  0.00     0.010 C 
BRANCH  19  21
ATOM     21  C   UNL     1       0.347  -6.110   0.513  1.00  0.00     0.002 C 
ATOM     22  C   UNL     1       0.966  -5.883  -0.856  1.00  0.00     0.004 C 
ENDBRANCH  19  21
ENDBRANCH  17  19
ENDBRANCH  16  17
BRANCH  15  23
ATOM     23  O   UNL     1      -2.134  -2.199   2.008  1.00  0.00    -0.495 OA
ATOM     24  H   UNL     1      -1.435  -2.052   2.658  1.00  0.00     0.295 HD
ENDBRANCH  15  23
ENDBRANCH  14  15
BRANCH  14  25
ATOM     25  C   UNL     1      -3.687  -4.574  -0.206  1.00  0.00     0.040 C 
BRANCH  25  26
ATOM     26  C   UNL     1      -4.546  -5.128   0.958  1.00  0.00    -0.015 C 
ATOM     27  C   UNL     1      -3.749  -5.370   2.242  1.00  0.00     0.007 C 
ATOM     28  C   UNL     1      -5.190  -6.455   0.521  1.00  0.00     0.007 C 
ENDBRANCH  25  26
ENDBRANCH  14  25
ENDBRANCH  13  14
BRANCH  12  29
ATOM     29  O   UNL     1      -2.437  -1.726  -3.382  1.00  0.00    -0.495 OA
ATOM     30  H   UNL     1      -1.657  -2.257  -3.601  1.00  0.00     0.295 HD
ENDBRANCH  12  29
ENDBRANCH  11  12
BRANCH  11  31
ATOM     31  C   UNL     1      -5.524  -1.698  -2.592  1.00  0.00     0.073 C 
BRANCH  31  32
ATOM     32  C   UNL     1      -6.808  -0.905  -2.494  1.00  0.00    -0.045 A 
ATOM     33  C   UNL     1      -7.854  -1.349  -1.667  1.00  0.00     0.004 A 
ATOM     34  C   UNL     1      -6.985   0.273  -3.245  1.00  0.00     0.004 A 
ATOM     35  C   UNL     1      -9.046  -0.622  -1.582  1.00  0.00     0.000 A 
ATOM     36  C   UNL     1      -8.178   0.994  -3.159  1.00  0.00     0.000 A 
ATOM     37  C   UNL     1      -9.207   0.549  -2.327  1.00  0.00     0.000 A 
ENDBRANCH  31  32
ENDBRANCH  11  31
ENDBRANCH  10  11
BRANCH   9  38
ATOM     38  O   UNL     1      -3.670   2.500  -2.886  1.00  0.00    -0.495 OA
ATOM     39  H   UNL     1      -3.550   2.385  -3.841  1.00  0.00     0.295 HD
ENDBRANCH   9  38
ENDBRANCH   8   9
BRANCH   8  40
ATOM     40  C   UNL     1      -5.595   1.608  -0.133  1.00  0.00     0.073 C 
BRANCH  40  41
ATOM     41  C   UNL     1      -5.800   1.831   1.354  1.00  0.00    -0.045 A 
ATOM     42  C   UNL     1      -6.216   0.765   2.175  1.00  0.00     0.004 A 
ATOM     43  C   UNL     1      -5.607   3.098   1.938  1.00  0.00     0.004 A 
ATOM     44  C   UNL     1      -6.417   0.961   3.546  1.00  0.00     0.000 A 
ATOM     45  C   UNL     1      -5.808   3.288   3.308  1.00  0.00     0.000 A 
ATOM     46  C   UNL     1      -6.210   2.220   4.112  1.00  0.00     0.000 A 
ENDBRANCH  40  41
ENDBRANCH   8  40
ENDBRANCH   7   8
BRANCH   6  47
ATOM     47  O   UNL     1      -2.012   2.714   1.238  1.00  0.00    -0.495 OA
ATOM     48  H   UNL     1      -2.136   1.763   1.335  1.00  0.00     0.295 HD
ENDBRANCH   6  47
ENDBRANCH   1   6
BRANCH   5  49
ATOM     49  C   UNL     1       0.025   5.084   0.887  1.00  0.00     0.246 C 
ATOM     50  O   UNL     1      -0.184   4.394   1.874  1.00  0.00    -0.272 OA
BRANCH  49  51
ATOM     51  C   UNL     1       1.488   5.545   0.764  1.00  0.00     0.174 C 
ATOM     52  C   UNL     1       2.015   6.441  -0.359  1.00  0.00     0.037 C 
ATOM     53  N   UNL     1       2.351   4.396   0.554  1.00  0.00    -0.329 N 
ATOM     54  C   UNL     1       2.245   5.494  -1.542  1.00  0.00     0.024 C 
ATOM     55  C   UNL     1       2.326   4.118  -0.873  1.00  0.00     0.120 C 
BRANCH  53  56
ATOM     56  C   UNL     1       3.171   3.909   1.556  1.00  0.00     0.248 C 
ATOM     57  O   UNL     1       2.894   4.223   2.704  1.00  0.00    -0.272 OA
BRANCH  56  58
ATOM     58  C   UNL     1       4.423   3.021   1.379  1.00  0.00     0.200 C 
BRANCH  58  59
ATOM     59  C   UNL     1       5.671   3.644   2.107  1.00  0.00     0.017 C 
ATOM     60  C   UNL     1       6.055   5.022   1.530  1.00  0.00     0.010 C 
ATOM     61  C   UNL     1       5.547   3.752   3.640  1.00  0.00     0.010 C 
ENDBRANCH  58  59
BRANCH  58  62
ATOM     62  N   UNL     1       4.778   2.907  -0.021  1.00  0.00    -0.240 NA
ATOM     63  C   UNL     1       5.090   1.894  -0.770  1.00  0.00     0.207 C 
BRANCH  63  64
ATOM     64  O   UNL     1       5.347   2.140  -2.076  1.00  0.00    -0.495 OA
ATOM     65  H   UNL     1       5.301   3.034  -2.446  1.00  0.00     0.295 HD
ENDBRANCH  63  64
BRANCH  63  66
ATOM     66  C   UNL     1       5.222   0.456  -0.319  1.00  0.00     0.195 C 
BRANCH  66  67
ATOM     67  C   UNL     1       6.672  -0.041  -0.629  1.00  0.00     0.040 C 
BRANCH  67  68
ATOM     68  C   UNL     1       7.907   0.684   0.002  1.00  0.00    -0.015 C 
ATOM     69  C   UNL     1       8.110   2.143  -0.460  1.00  0.00     0.007 C 
ATOM     70  C   UNL     1       9.181  -0.082  -0.400  1.00  0.00     0.007 C 
ENDBRANCH  67  68
ENDBRANCH  66  67
BRANCH  66  71
ATOM     71  N   UNL     1       4.307  -0.292  -1.175  1.00  0.00    -0.241 NA
ATOM     72  C   UNL     1       3.813  -1.493  -1.108  1.00  0.00     0.207 C 
BRANCH  72  73
ATOM     73  O   UNL     1       3.139  -1.938  -2.193  1.00  0.00    -0.495 OA
ATOM     74  H   UNL     1       3.024  -1.390  -2.983  1.00  0.00     0.295 HD
ENDBRANCH  72  73
BRANCH  72  75
ATOM     75  C   UNL     1       3.963  -2.448   0.079  1.00  0.00     0.197 C 
BRANCH  75  76
ATOM     76  C   UNL     1       4.920  -3.652  -0.269  1.00  0.00     0.020 C 
ATOM     77  C   UNL     1       4.959  -4.660   0.900  1.00  0.00     0.010 C 
BRANCH  76  78
ATOM     78  C   UNL     1       4.580  -4.348  -1.618  1.00  0.00     0.002 C 
ATOM     79  C   UNL     1       5.445  -5.566  -1.950  1.00  0.00     0.004 C 
ENDBRANCH  76  78
ENDBRANCH  75  76
BRANCH  75  80
ATOM     80  N   UNL     1       2.699  -2.975   0.645  1.00  0.00    -0.240 NA
ATOM     81  C   UNL     1       1.423  -2.861   0.382  1.00  0.00     0.207 CG0
ATOM     82  G   UNL     1       0.409  -3.594   1.265  1.00  0.00     0.000 G0
BRANCH  81  83
ATOM     83  O   UNL     1       0.913  -2.035  -0.563  1.00  0.00    -0.495 OA
ATOM     84  H   UNL     1       1.359  -1.290  -0.969  1.00  0.00     0.295 HD
ENDBRANCH  81  83
ENDBRANCH  75  80
ENDBRANCH  72  75
ENDBRANCH  66  71
ENDBRANCH  63  66
ENDBRANCH  58  62
ENDBRANCH  56  58
ENDBRANCH  53  56
ENDBRANCH  49  51
ENDBRANCH   5  49
TORSDOF 20
