REMARK SMILES CCCCCC[C@H](C)CCCCCCCCCOC[C@H](O)CO[C@@H]1[C@@H](O)[C@H](O)[C@@H](O)[C@@H]1OC(=O)CCCCCCCC[C@H](C)CCCC
REMARK SMILES IDX 20 1 19 2 18 3 17 4 16 5 15 6 14 7 13 8 12 9 11 10 10 11
REMARK SMILES IDX 9 12 7 13 8 14 6 15 5 16 4 17 3 18 2 19 1 20 21 21 22 23
REMARK SMILES IDX 23 24 24 25 25 26 31 27 27 28 29 29 26 30 32 32 33 33 34 34
REMARK SMILES IDX 35 35 36 36 37 37 38 38 39 39 40 40 41 41 42 42 43 43 44 44
REMARK SMILES IDX 45 45 46 46 47 47 48 48 28 49 30 51
REMARK H PARENT 21 22 26 31 28 50 30 52
ROOT
ATOM      1  C   UNL     1       1.964   0.368  -0.209  1.00  0.00     0.166 C 
ENDROOT
BRANCH   1   2
ATOM      2  C   UNL     1       1.381   0.248   1.224  1.00  0.00     0.194 C 
BRANCH   2   3
ATOM      3  O   UNL     1       1.676  -0.955   1.910  1.00  0.00    -0.379 OA
BRANCH   3   4
ATOM      4  C   UNL     1       3.042  -1.245   2.158  1.00  0.00     0.160 C 
BRANCH   4   5
ATOM      5  C   UNL     1       3.655  -0.497   3.368  1.00  0.00     0.028 C 
BRANCH   5   6
ATOM      6  C   UNL     1       4.237   0.897   3.071  1.00  0.00     0.002 C 
BRANCH   6   7
ATOM      7  C   UNL     1       5.469   0.826   2.148  1.00  0.00     0.000 C 
BRANCH   7   8
ATOM      8  C   UNL     1       5.931   2.232   1.752  1.00  0.00     0.000 C 
BRANCH   8   9
ATOM      9  C   UNL     1       7.120   2.298   0.772  1.00  0.00     0.000 C 
BRANCH   9  10
ATOM     10  C   UNL     1       6.853   1.928  -0.714  1.00  0.00     0.000 C 
BRANCH  10  11
ATOM     11  C   UNL     1       6.715   0.434  -1.098  1.00  0.00     0.000 C 
BRANCH  11  12
ATOM     12  C   UNL     1       7.819  -0.524  -0.594  1.00  0.00     0.003 C 
BRANCH  12  13
ATOM     13  C   UNL     1       9.188  -0.523  -1.336  1.00  0.00    -0.014 C 
ATOM     14  C   UNL     1       9.905   0.829  -1.378  1.00  0.00     0.007 C 
BRANCH  13  15
ATOM     15  C   UNL     1      10.103  -1.672  -0.810  1.00  0.00     0.003 C 
BRANCH  15  16
ATOM     16  C   UNL     1      10.521  -1.686   0.684  1.00  0.00     0.000 C 
BRANCH  16  17
ATOM     17  C   UNL     1      11.508  -0.625   1.230  1.00  0.00    -0.000 C 
BRANCH  17  18
ATOM     18  C   UNL     1      13.004  -0.797   0.887  1.00  0.00    -0.000 C 
BRANCH  18  19
ATOM     19  C   UNL     1      13.412  -0.529  -0.567  1.00  0.00    -0.003 C 
ATOM     20  C   UNL     1      14.929  -0.616  -0.726  1.00  0.00     0.004 C 
ENDBRANCH  18  19
ENDBRANCH  17  18
ENDBRANCH  16  17
ENDBRANCH  15  16
ENDBRANCH  13  15
ENDBRANCH  12  13
ENDBRANCH  11  12
ENDBRANCH  10  11
ENDBRANCH   9  10
ENDBRANCH   8   9
ENDBRANCH   7   8
ENDBRANCH   6   7
ENDBRANCH   5   6
ENDBRANCH   4   5
ENDBRANCH   3   4
ENDBRANCH   2   3
ENDBRANCH   1   2
BRANCH   1  21
ATOM     21  O   UNL     1       3.334   0.637  -0.183  1.00  0.00    -0.388 OA
ATOM     22  H   UNL     1       3.449   1.555   0.176  1.00  0.00     0.211 HD
ENDBRANCH   1  21
BRANCH   1  23
ATOM     23  C   UNL     1       1.258   1.468  -1.040  1.00  0.00     0.195 C 
BRANCH  23  24
ATOM     24  O   UNL     1      -0.135   1.270  -1.115  1.00  0.00    -0.369 OA
BRANCH  24  25
ATOM     25  C   UNL     1      -0.481   0.251  -2.039  1.00  0.00     0.193 C 
ATOM     26  C   UNL     1      -1.104   0.812  -3.313  1.00  0.00     0.178 C 
ATOM     27  C   UNL     1      -1.628  -0.591  -1.483  1.00  0.00     0.239 C 
ATOM     28  C   UNL     1      -1.760  -0.433  -3.934  1.00  0.00     0.178 C 
ATOM     29  C   UNL     1      -2.162  -1.330  -2.729  1.00  0.00     0.189 C 
BRANCH  26  30
ATOM     30  O   UNL     1      -0.183   1.440  -4.171  1.00  0.00    -0.387 OA
ATOM     31  H   UNL     1       0.554   0.794  -4.345  1.00  0.00     0.211 HD
ENDBRANCH  26  30
BRANCH  27  32
ATOM     32  O   UNL     1      -2.618   0.263  -1.012  1.00  0.00    -0.457 OA
BRANCH  32  33
ATOM     33  C   UNL     1      -3.048   0.340   0.276  1.00  0.00     0.306 C 
ATOM     34  O   UNL     1      -2.496  -0.293   1.165  1.00  0.00    -0.252 OA
BRANCH  33  35
ATOM     35  C   UNL     1      -4.223   1.212   0.607  1.00  0.00     0.123 C 
BRANCH  35  36
ATOM     36  C   UNL     1      -5.485   0.767  -0.146  1.00  0.00     0.012 C 
BRANCH  36  37
ATOM     37  C   UNL     1      -5.909  -0.666   0.236  1.00  0.00     0.001 C 
BRANCH  37  38
ATOM     38  C   UNL     1      -7.080  -1.251  -0.577  1.00  0.00     0.000 C 
BRANCH  38  39
ATOM     39  C   UNL     1      -8.506  -0.792  -0.217  1.00  0.00     0.000 C 
BRANCH  39  40
ATOM     40  C   UNL     1      -8.850   0.668  -0.555  1.00  0.00     0.000 C 
BRANCH  40  41
ATOM     41  C   UNL     1     -10.345   0.978  -0.395  1.00  0.00     0.000 C 
BRANCH  41  42
ATOM     42  C   UNL     1     -10.838   0.789   1.052  1.00  0.00     0.003 C 
BRANCH  42  43
ATOM     43  C   UNL     1     -12.317   1.181   1.254  1.00  0.00    -0.014 C 
ATOM     44  C   UNL     1     -12.687   1.089   2.744  1.00  0.00     0.007 C 
BRANCH  43  45
ATOM     45  C   UNL     1     -13.301   0.416   0.320  1.00  0.00     0.003 C 
BRANCH  45  46
ATOM     46  C   UNL     1     -13.190  -1.123   0.196  1.00  0.00    -0.000 C 
BRANCH  46  47
ATOM     47  C   UNL     1     -13.562  -1.924   1.447  1.00  0.00    -0.003 C 
ATOM     48  C   UNL     1     -13.564  -3.421   1.149  1.00  0.00     0.004 C 
ENDBRANCH  46  47
ENDBRANCH  45  46
ENDBRANCH  43  45
ENDBRANCH  42  43
ENDBRANCH  41  42
ENDBRANCH  40  41
ENDBRANCH  39  40
ENDBRANCH  38  39
ENDBRANCH  37  38
ENDBRANCH  36  37
ENDBRANCH  35  36
ENDBRANCH  33  35
ENDBRANCH  32  33
ENDBRANCH  27  32
BRANCH  28  49
ATOM     49  O   UNL     1      -2.829  -0.120  -4.789  1.00  0.00    -0.387 OA
ATOM     50  H   UNL     1      -3.518   0.337  -4.238  1.00  0.00     0.211 HD
ENDBRANCH  28  49
BRANCH  29  51
ATOM     51  O   UNL     1      -1.581  -2.608  -2.861  1.00  0.00    -0.386 OA
ATOM     52  H   UNL     1      -0.596  -2.517  -2.782  1.00  0.00     0.211 HD
ENDBRANCH  29  51
ENDBRANCH  24  25
ENDBRANCH  23  24
ENDBRANCH   1  23
TORSDOF 38
