REMARK SMILES C=C1CC[C@@H]2[C@](C)(CCC[C@]2(C)C(=O)OC)[C@H]1CCc1ccoc1CN(CCCC)CCCC
REMARK SMILES IDX 20 1 24 2 23 3 22 4 21 5 19 6 18 7 17 8 1 9 2 10 3 11 4 12
REMARK SMILES IDX 6 13 5 14 8 15 11 16 9 17 10 18 7 19 12 20 13 21 14 22 15 23
REMARK SMILES IDX 16 24 25 25 26 26 27 27 28 28 29 29 30 30 31 31 32 32 33 33
REMARK SMILES IDX 34 34
REMARK H PARENT
ROOT
ATOM      1  C   UNL     1       1.188   0.939  -1.334  1.00  0.00    -0.005 A 
ATOM      2  C   UNL     1       2.168  -0.025  -1.133  1.00  0.00     0.120 A 
ATOM      3  O   UNL     1       2.535  -0.513  -2.299  1.00  0.00    -0.468 OA
ATOM      4  C   UNL     1       1.857   0.085  -3.251  1.00  0.00     0.195 A 
ATOM      5  C   UNL     1       1.006   1.016  -2.699  1.00  0.00     0.046 A 
ENDROOT
BRANCH   1   6
ATOM      6  C   UNL     1       0.481   1.798  -0.324  1.00  0.00     0.040 C 
BRANCH   6   7
ATOM      7  C   UNL     1      -0.607   1.104   0.530  1.00  0.00     0.013 C 
BRANCH   7   8
ATOM      8  C   UNL     1      -1.855   0.679  -0.315  1.00  0.00     0.021 C 
ATOM      9  C   UNL     1      -0.669  -1.463  -1.044  1.00  0.00     0.008 C 
ATOM     10  C   UNL     1      -1.653  -0.557  -1.194  1.00  0.00    -0.074 C 
ATOM     11  C   UNL     1      -2.705  -0.773  -2.239  1.00  0.00     0.031 C 
ATOM     12  C   UNL     1      -4.051  -0.948  -1.536  1.00  0.00     0.010 C 
ATOM     13  C   UNL     1      -3.209   0.483   0.481  1.00  0.00    -0.022 C 
ATOM     14  C   UNL     1      -4.369   0.253  -0.592  1.00  0.00     0.013 C 
ATOM     15  C   UNL     1      -3.562   1.779   1.278  1.00  0.00     0.008 C 
ATOM     16  C   UNL     1      -5.833   0.227   0.017  1.00  0.00     0.069 C 
ATOM     17  C   UNL     1      -4.957   1.740   1.913  1.00  0.00     0.002 C 
ATOM     18  C   UNL     1      -6.029   1.538   0.838  1.00  0.00     0.019 C 
ATOM     19  C   UNL     1      -3.032  -0.702   1.478  1.00  0.00     0.012 C 
ATOM     20  C   UNL     1      -6.895   0.247  -1.110  1.00  0.00     0.024 C 
BRANCH  16  21
ATOM     21  C   UNL     1      -6.114  -1.022   0.855  1.00  0.00     0.311 C 
ATOM     22  O   UNL     1      -6.461  -0.926   2.025  1.00  0.00    -0.252 OA
BRANCH  21  23
ATOM     23  O   UNL     1      -6.019  -2.246   0.277  1.00  0.00    -0.469 OA
ATOM     24  C   UNL     1      -6.170  -3.436   0.954  1.00  0.00     0.282 C 
ENDBRANCH  21  23
ENDBRANCH  16  21
ENDBRANCH   7   8
ENDBRANCH   6   7
ENDBRANCH   1   6
BRANCH   2  25
ATOM     25  C   UNL     1       2.779  -0.475   0.178  1.00  0.00     0.160 C 
BRANCH  25  26
ATOM     26  N   UNL     1       4.165   0.037   0.395  1.00  0.00    -0.296 NA
BRANCH  26  27
ATOM     27  C   UNL     1       4.118   1.497   0.684  1.00  0.00     0.085 C 
BRANCH  27  28
ATOM     28  C   UNL     1       5.214   2.013   1.646  1.00  0.00     0.015 C 
BRANCH  28  29
ATOM     29  C   UNL     1       6.655   2.123   1.123  1.00  0.00    -0.002 C 
ATOM     30  C   UNL     1       6.754   2.992  -0.133  1.00  0.00     0.004 C 
ENDBRANCH  28  29
ENDBRANCH  27  28
ENDBRANCH  26  27
BRANCH  26  31
ATOM     31  C   UNL     1       5.088  -0.287  -0.726  1.00  0.00     0.085 C 
BRANCH  31  32
ATOM     32  C   UNL     1       5.313  -1.798  -0.912  1.00  0.00     0.015 C 
BRANCH  32  33
ATOM     33  C   UNL     1       5.940  -2.435   0.335  1.00  0.00    -0.002 C 
ATOM     34  C   UNL     1       6.227  -3.917   0.107  1.00  0.00     0.004 C 
ENDBRANCH  32  33
ENDBRANCH  31  32
ENDBRANCH  26  31
ENDBRANCH  25  26
ENDBRANCH   2  25
TORSDOF 13
