REMARK SMILES CNC[C@@H]1C#C[C@@H]2Nc3[nH]ccc3Cc3cc(ccc3C3(CCCC3)[C@H]1O)Cc1cc(cc(OC3CCCC3)c1O)CCC(=O)[C@H](CCO)C(=O)[C@H]1C2=Cc2[nH]ccc2[C@@H]1C[C@@]1(O)C=Cc2c(O)cccc2CC1
REMARK SMILES IDX 8 1 7 3 6 4 5 5 4 6 3 7 2 8 1 9 26 11 27 13 53 15 52 16
REMARK SMILES IDX 54 17 60 18 55 19 59 20 56 21 58 22 57 23 50 25 51 26 46 27
REMARK SMILES IDX 47 29 48 30 49 31 61 33 62 34 63 35 64 37 65 38 66 39 67 40
REMARK SMILES IDX 72 41 69 42 71 43 70 44 68 45 73 47 74 49 9 51 13 52 10 53
REMARK SMILES IDX 12 54 11 55 14 57 15 58 16 59 20 60 17 61 19 62 18 63 21 64
REMARK SMILES IDX 22 65 25 66 23 67 24 68 28 70 29 71 40 72 30 73 33 74 31 75
REMARK SMILES IDX 32 76 41 77 34 79 35 80 36 81 39 82 37 83 38 84 42 85 43 86
REMARK SMILES IDX 44 87 45 88
REMARK H PARENT 8 2 2 10 27 14 56 24 49 32 63 36 68 46 10 56 41 78
REMARK Flexibility Score:  369.700
ROOT
ATOM      1  N   UNL     1      -0.975  -2.066   2.197  1.00  0.00    -0.354 N 
ATOM      2  H   UNL     1      -1.949  -1.851   2.451  1.00  0.00     0.163 HD
ENDROOT
BRANCH   1   3
ATOM      3  C   UNL     1      -0.627  -2.012   0.790  1.00  0.00     0.184 C 
ATOM      4  C   UNL     1      -0.230  -3.353   0.373  1.00  0.00    -0.073 C 
BRANCH   4   5
ATOM      5  C   UNL     1       0.131  -4.452   0.059  1.00  0.00    -0.093 C 
ATOM      6  C   UNL     1       0.606  -5.802  -0.206  1.00  0.00     0.108 C 
BRANCH   6   7
ATOM      7  C   UNL     1       0.026  -6.288  -1.575  1.00  0.00     0.100 C 
BRANCH   7   8
ATOM      8  N   UNL     1       0.180  -7.739  -1.774  1.00  0.00    -0.318 NA
ATOM      9  C   UNL     1      -0.384  -8.139  -3.067  1.00  0.00     0.101 C 
ATOM     10  H   UNL     1       1.185  -8.012  -1.792  1.00  0.00     0.122 HD
ENDBRANCH   7   8
ENDBRANCH   6   7
BRANCH   6  11
ATOM     11  C   UNL     1       2.163  -5.931   0.040  1.00  0.00     0.141 CG0
ATOM     12  G   UNL     1       3.215  -4.862  -0.548  1.00  0.00     0.000 G0
BRANCH  11  13
ATOM     13  O   UNL     1       2.455  -6.148   1.399  1.00  0.00    -0.391 OA
ATOM     14  H   UNL     1       2.121  -7.051   1.647  1.00  0.00     0.211 HD
ENDBRANCH  11  13
ENDBRANCH   6  11
ENDBRANCH   4   5
BRANCH   3  15
ATOM     15  C   UNL     1      -1.793  -1.435  -0.053  1.00  0.00    -0.023 C 
ATOM     16  C   UNL     1      -2.343   0.014   0.134  1.00  0.00     0.094 C 
ATOM     17  C   UNL     1      -2.335  -2.161  -1.069  1.00  0.00     0.029 C 
ATOM     18  C   UNL     1      -3.917   0.096  -0.028  1.00  0.00     0.039 C 
ATOM     19  C   UNL     1      -3.505  -1.659  -1.792  1.00  0.00     0.042 A 
ATOM     20  C   UNL     1      -4.257  -0.599  -1.345  1.00  0.00    -0.019 A 
ATOM     21  N   UNL     1      -4.029  -2.201  -2.903  1.00  0.00    -0.361 N 
ATOM     22  C   UNL     1      -5.332  -0.518  -2.223  1.00  0.00     0.024 A 
ATOM     23  C   UNL     1      -5.142  -1.499  -3.178  1.00  0.00     0.083 A 
ATOM     24  H   UNL     1      -3.663  -3.021  -3.436  1.00  0.00     0.166 HD
BRANCH  16  25
ATOM     25  C   UNL     1      -1.841   0.790   1.353  1.00  0.00     0.151 C 
ATOM     26  O   UNL     1      -2.151   0.426   2.474  1.00  0.00    -0.298 OA
BRANCH  25  27
ATOM     27  C   UNL     1      -1.141   2.135   1.158  1.00  0.00     0.126 CG1
ATOM     28  G   UNL     1       0.212   2.032   0.471  1.00  0.00     0.000 G1
BRANCH  27  29
ATOM     29  C   UNL     1      -0.999   2.965   2.460  1.00  0.00     0.047 C 
BRANCH  29  30
ATOM     30  C   UNL     1      -2.349   3.380   3.067  1.00  0.00     0.157 C 
BRANCH  30  31
ATOM     31  O   UNL     1      -2.143   4.202   4.183  1.00  0.00    -0.396 OA
ATOM     32  H   UNL     1      -1.866   3.606   4.927  1.00  0.00     0.210 HD
ENDBRANCH  30  31
ENDBRANCH  29  30
ENDBRANCH  27  29
ENDBRANCH  25  27
ENDBRANCH  16  25
BRANCH  18  33
ATOM     33  C   UNL     1      -4.396   1.583   0.172  1.00  0.00     0.049 C 
BRANCH  33  34
ATOM     34  C   UNL     1      -5.828   2.075  -0.193  1.00  0.00     0.084 C 
BRANCH  34  35
ATOM     35  O   UNL     1      -5.834   2.298  -1.587  1.00  0.00    -0.386 OA
ATOM     36  H   UNL     1      -6.768   2.332  -1.916  1.00  0.00     0.211 HD
ENDBRANCH  34  35
BRANCH  34  37
ATOM     37  C   UNL     1      -6.876   1.083   0.259  1.00  0.00     0.008 C 
ATOM     38  C   UNL     1      -8.207   1.222   0.163  1.00  0.00     0.011 C 
BRANCH  38  39
ATOM     39  C   UNL     1      -9.005   2.376  -0.369  1.00  0.00     0.019 A 
ATOM     40  C   UNL     1     -10.350   2.112  -0.797  1.00  0.00     0.123 A 
ATOM     41  C   UNL     1      -8.521   3.726  -0.480  1.00  0.00    -0.037 A 
ATOM     42  C   UNL     1     -11.147   3.136  -1.311  1.00  0.00     0.047 A 
ATOM     43  C   UNL     1      -9.373   4.716  -1.011  1.00  0.00     0.004 A 
ATOM     44  C   UNL     1     -10.663   4.426  -1.420  1.00  0.00     0.004 A 
BRANCH  40  45
ATOM     45  O   UNL     1     -10.920   0.883  -0.771  1.00  0.00    -0.507 OA
ATOM     46  H   UNL     1     -10.495   0.056  -0.523  1.00  0.00     0.293 HD
ENDBRANCH  40  45
BRANCH  41  47
ATOM     47  C   UNL     1      -7.159   4.278  -0.096  1.00  0.00     0.039 CG2
ATOM     48  G   UNL     1      -6.090   3.398   0.549  1.00  0.00     0.000 G2
ENDBRANCH  41  47
ENDBRANCH  38  39
ENDBRANCH  34  37
BRANCH  34  49
ATOM     49  C   UNL     1      -6.090   3.398   0.549  1.00  0.00     0.044 CG2
ATOM     50  G   UNL     1      -7.159   4.278  -0.096  1.00  0.00     0.000 G2
ENDBRANCH  34  49
ENDBRANCH  33  34
ENDBRANCH  18  33
ENDBRANCH   3  15
ENDBRANCH   1   3
BRANCH   1  51
ATOM     51  C   UNL     1      -0.029  -2.053   3.269  1.00  0.00     0.108 A 
ATOM     52  C   UNL     1       1.255  -2.623   3.357  1.00  0.00    -0.002 A 
ATOM     53  N   UNL     1      -0.325  -1.443   4.435  1.00  0.00    -0.348 N 
ATOM     54  C   UNL     1       1.710  -2.315   4.632  1.00  0.00     0.025 A 
ATOM     55  C   UNL     1       0.728  -1.584   5.255  1.00  0.00     0.084 A 
ATOM     56  H   UNL     1      -1.209  -0.938   4.664  1.00  0.00     0.167 HD
BRANCH  52  57
ATOM     57  C   UNL     1       2.041  -3.520   2.412  1.00  0.00     0.075 C 
BRANCH  57  58
ATOM     58  C   UNL     1       3.004  -2.874   1.416  1.00  0.00    -0.039 A 
ATOM     59  C   UNL     1       3.568  -1.646   1.869  1.00  0.00     0.008 A 
ATOM     60  C   UNL     1       3.510  -3.462   0.173  1.00  0.00    -0.036 A 
ATOM     61  C   UNL     1       4.556  -0.959   1.165  1.00  0.00    -0.043 A 
ATOM     62  C   UNL     1       4.519  -2.694  -0.491  1.00  0.00     0.005 A 
ATOM     63  C   UNL     1       5.012  -1.487  -0.025  1.00  0.00     0.004 A 
BRANCH  60  64
ATOM     64  C   UNL     1       3.215  -4.862  -0.548  1.00  0.00     0.023 CG0
ATOM     65  C   UNL     1       2.872  -4.614  -2.053  1.00  0.00     0.014 C 
ATOM     66  C   UNL     1       4.582  -5.653  -0.650  1.00  0.00     0.014 C 
ATOM     67  C   UNL     1       3.465  -5.820  -2.776  1.00  0.00     0.001 C 
ATOM     68  C   UNL     1       4.848  -5.862  -2.146  1.00  0.00     0.001 C 
ATOM     69  G   UNL     1       2.163  -5.931   0.040  1.00  0.00     0.000 G0
ENDBRANCH  60  64
BRANCH  61  70
ATOM     70  C   UNL     1       5.206   0.285   1.728  1.00  0.00     0.075 C 
BRANCH  70  71
ATOM     71  C   UNL     1       4.932   1.544   0.928  1.00  0.00     0.002 A 
ATOM     72  C   UNL     1       5.935   2.258   0.207  1.00  0.00     0.161 A 
ATOM     73  C   UNL     1       3.626   2.070   0.986  1.00  0.00     0.012 A 
ATOM     74  C   UNL     1       5.613   3.471  -0.427  1.00  0.00     0.161 A 
ATOM     75  C   UNL     1       3.307   3.279   0.356  1.00  0.00    -0.043 A 
ATOM     76  C   UNL     1       4.302   3.962  -0.350  1.00  0.00     0.054 A 
BRANCH  72  77
ATOM     77  O   UNL     1       7.214   1.827   0.107  1.00  0.00    -0.504 OA
ATOM     78  H   UNL     1       7.556   0.999   0.461  1.00  0.00     0.293 HD
ENDBRANCH  72  77
BRANCH  74  79
ATOM     79  O   UNL     1       6.594   4.157  -1.083  1.00  0.00    -0.487 OA
BRANCH  79  80
ATOM     80  C   UNL     1       6.475   5.421  -1.654  1.00  0.00     0.173 C 
ATOM     81  C   UNL     1       7.801   5.854  -2.277  1.00  0.00     0.045 C 
ATOM     82  C   UNL     1       6.317   6.511  -0.586  1.00  0.00     0.045 C 
ATOM     83  C   UNL     1       8.669   6.080  -1.047  1.00  0.00     0.004 C 
ATOM     84  C   UNL     1       7.727   6.718  -0.015  1.00  0.00     0.004 C 
ENDBRANCH  79  80
ENDBRANCH  74  79
BRANCH  75  85
ATOM     85  C   UNL     1       1.950   3.934   0.487  1.00  0.00     0.043 C 
BRANCH  85  86
ATOM     86  C   UNL     1       0.767   3.257  -0.213  1.00  0.00     0.081 C 
BRANCH  86  87
ATOM     87  C   UNL     1       0.212   2.032   0.471  1.00  0.00     0.143 CG1
ATOM     88  O   UNL     1       0.808   0.971   0.399  1.00  0.00    -0.299 OA
ATOM     89  G   UNL     1      -1.141   2.135   1.158  1.00  0.00     0.000 G1
ENDBRANCH  86  87
ENDBRANCH  85  86
ENDBRANCH  75  85
ENDBRANCH  70  71
ENDBRANCH  61  70
ENDBRANCH  57  58
ENDBRANCH  52  57
ENDBRANCH   1  51
TORSDOF 13
