REMARK SMILES C=C1[C@@H](OC(=O)/C=C\c2ccccc2)C[C@H](OC(C)=O)[C@@]2(COC(=O)c3ccccc3)[C@@H](OC(C)=O)[C@H](OC(C)=O)[C@]3(O)[C@@]4(C)CO[C@]3(C)C(=O)C[C@H]4[C@@H](OC(C)=O)[C@H]12
REMARK SMILES IDX 1 1 2 2 3 3 15 4 16 5 21 6 59 7 4 8 5 9 6 10 7 11 8 12 9 13
REMARK SMILES IDX 10 14 14 15 11 16 13 17 12 18 54 19 53 20 52 21 44 22 50 23
REMARK SMILES IDX 42 24 46 25 48 26 51 27 47 28 45 29 49 30 43 32 55 34 56 35
REMARK SMILES IDX 58 36 57 37 22 38 23 39 24 40 25 41 26 42 27 43 31 44 28 45
REMARK SMILES IDX 30 46 29 47 32 48 33 49 34 50 36 51 35 52 37 53 38 55 39 56
REMARK SMILES IDX 41 57 40 58 17 59 18 60 20 61 19 62
REMARK H PARENT 43 33
REMARK Flexibility Score:   92.900
ROOT
ATOM      1  C   UNL     1       2.964  -0.705   1.200  1.00  0.00     0.012 C 
ATOM      2  C   UNL     1       2.027  -0.294   0.320  1.00  0.00    -0.029 C 
ATOM      3  C   UNL     1       2.266   0.972  -0.470  1.00  0.00     0.206 C 
ATOM      4  C   UNL     1       1.115   1.978  -0.247  1.00  0.00     0.096 C 
ATOM      5  C   UNL     1      -0.303   1.325  -0.263  1.00  0.00     0.194 C 
ATOM      6  C   UNL     1      -0.376   0.117   0.777  1.00  0.00     0.093 C 
ATOM      7  C   UNL     1       0.644  -0.964   0.161  1.00  0.00     0.077 C 
ENDROOT
BRANCH   3   8
ATOM      8  O   UNL     1       2.433   0.645  -1.810  1.00  0.00    -0.455 OA
BRANCH   8   9
ATOM      9  C   UNL     1       3.591   0.907  -2.487  1.00  0.00     0.331 C 
ATOM     10  O   UNL     1       4.384   1.726  -2.046  1.00  0.00    -0.247 OA
BRANCH   9  11
ATOM     11  C   UNL     1       3.844   0.271  -3.801  1.00  0.00     0.094 C 
ATOM     12  C   UNL     1       5.019   0.229  -4.479  1.00  0.00     0.015 C 
BRANCH  12  13
ATOM     13  C   UNL     1       6.386   0.661  -4.039  1.00  0.00    -0.025 A 
ATOM     14  C   UNL     1       6.817   0.639  -2.693  1.00  0.00     0.008 A 
ATOM     15  C   UNL     1       7.312   1.048  -5.025  1.00  0.00     0.008 A 
ATOM     16  C   UNL     1       8.114   1.036  -2.350  1.00  0.00     0.001 A 
ATOM     17  C   UNL     1       8.607   1.448  -4.677  1.00  0.00     0.001 A 
ATOM     18  C   UNL     1       9.006   1.447  -3.340  1.00  0.00     0.000 A 
ENDBRANCH  12  13
ENDBRANCH   9  11
ENDBRANCH   8   9
ENDBRANCH   3   8
BRANCH   7  19
ATOM     19  C   UNL     1       0.640  -2.505   0.537  1.00  0.00     0.189 C 
BRANCH  19  20
ATOM     20  C   UNL     1      -0.448  -3.520  -0.054  1.00  0.00     0.050 C 
ATOM     21  C   UNL     1      -0.411  -3.672  -1.608  1.00  0.00     0.087 C 
ATOM     22  C   UNL     1      -1.931  -3.597   0.497  1.00  0.00     0.034 C 
ATOM     23  C   UNL     1      -1.592  -3.018  -2.262  1.00  0.00     0.167 C 
ATOM     24  C   UNL     1      -2.881  -2.539  -0.162  1.00  0.00     0.149 CG0
ATOM     25  C   UNL     1      -2.653  -4.861  -0.056  1.00  0.00     0.172 C 
ATOM     26  C   UNL     1      -2.945  -3.210  -1.578  1.00  0.00     0.156 C 
ATOM     27  O   UNL     1      -1.460  -2.356  -3.282  1.00  0.00    -0.296 OA
ATOM     28  O   UNL     1      -3.099  -4.599  -1.372  1.00  0.00    -0.364 OA
ATOM     29  C   UNL     1      -1.905  -3.776   2.050  1.00  0.00     0.017 C 
ATOM     30  C   UNL     1      -4.110  -2.710  -2.453  1.00  0.00     0.054 C 
ATOM     31  G   UNL     1      -2.477  -1.016  -0.294  1.00  0.00     0.000 G0
BRANCH  24  32
ATOM     32  O   UNL     1      -4.152  -2.624   0.454  1.00  0.00    -0.382 OA
ATOM     33  H   UNL     1      -4.083  -2.197   1.346  1.00  0.00     0.211 HD
ENDBRANCH  24  32
ENDBRANCH  19  20
BRANCH  19  34
ATOM     34  O   UNL     1       1.836  -3.022   0.040  1.00  0.00    -0.462 OA
BRANCH  34  35
ATOM     35  C   UNL     1       2.674  -3.888   0.670  1.00  0.00     0.302 C 
ATOM     36  O   UNL     1       2.423  -4.307   1.791  1.00  0.00    -0.253 OA
ATOM     37  C   UNL     1       3.913  -4.341  -0.030  1.00  0.00     0.139 C 
ENDBRANCH  34  35
ENDBRANCH  19  34
ENDBRANCH   7  19
BRANCH   6  38
ATOM     38  C   UNL     1       0.075   0.582   2.227  1.00  0.00     0.249 C 
BRANCH  38  39
ATOM     39  O   UNL     1      -0.648   1.690   2.622  1.00  0.00    -0.461 OA
BRANCH  39  40
ATOM     40  C   UNL     1      -0.444   2.404   3.759  1.00  0.00     0.338 C 
ATOM     41  O   UNL     1       0.405   2.053   4.568  1.00  0.00    -0.246 OA
BRANCH  40  42
ATOM     42  C   UNL     1      -1.230   3.642   3.982  1.00  0.00     0.060 A 
ATOM     43  C   UNL     1      -2.211   4.016   3.050  1.00  0.00     0.015 A 
ATOM     44  C   UNL     1      -1.011   4.463   5.104  1.00  0.00     0.015 A 
ATOM     45  C   UNL     1      -2.959   5.182   3.229  1.00  0.00     0.001 A 
ATOM     46  C   UNL     1      -1.761   5.630   5.280  1.00  0.00     0.001 A 
ATOM     47  C   UNL     1      -2.734   5.991   4.342  1.00  0.00     0.000 A 
ENDBRANCH  40  42
ENDBRANCH  39  40
ENDBRANCH  38  39
ENDBRANCH   6  38
BRANCH   6  48
ATOM     48  C   UNL     1      -1.819  -0.466   0.973  1.00  0.00     0.234 C 
BRANCH  48  49
ATOM     49  O   UNL     1      -2.681   0.411   1.632  1.00  0.00    -0.458 OA
BRANCH  49  50
ATOM     50  C   UNL     1      -3.218   0.205   2.871  1.00  0.00     0.303 C 
ATOM     51  O   UNL     1      -2.935  -0.787   3.528  1.00  0.00    -0.253 OA
ATOM     52  C   UNL     1      -4.158   1.208   3.454  1.00  0.00     0.139 C 
ENDBRANCH  49  50
ENDBRANCH  48  49
BRANCH  48  53
ATOM     53  C   UNL     1      -2.477  -1.016  -0.294  1.00  0.00     0.254 CG0
ATOM     54  G   UNL     1      -2.881  -2.539  -0.162  1.00  0.00     0.000 G0
BRANCH  53  55
ATOM     55  O   UNL     1      -3.620  -0.268  -0.556  1.00  0.00    -0.455 OA
BRANCH  55  56
ATOM     56  C   UNL     1      -3.844   0.613  -1.558  1.00  0.00     0.303 C 
ATOM     57  O   UNL     1      -2.997   0.836  -2.411  1.00  0.00    -0.253 OA
ATOM     58  C   UNL     1      -5.162   1.320  -1.608  1.00  0.00     0.139 C 
ENDBRANCH  55  56
ENDBRANCH  53  55
ENDBRANCH  48  53
ENDBRANCH   6  48
BRANCH   5  59
ATOM     59  O   UNL     1      -1.291   2.277  -0.045  1.00  0.00    -0.461 OA
BRANCH  59  60
ATOM     60  C   UNL     1      -1.571   3.287  -0.923  1.00  0.00     0.302 C 
ATOM     61  O   UNL     1      -0.922   3.423  -1.952  1.00  0.00    -0.253 OA
ATOM     62  C   UNL     1      -2.707   4.226  -0.677  1.00  0.00     0.139 C 
ENDBRANCH  59  60
ENDBRANCH   5  59
TORSDOF 17
