REMARK SMILES C=C1CCC[C@]2(C)CC[C@@H](CC(C)=O)[C@@H]12
REMARK SMILES IDX 11 1 10 2 1 3 2 4 3 5 15 6 4 7 6 8 5 9 9 10 8 11 7 12 12 13
REMARK SMILES IDX 14 14 13 15
REMARK H PARENT
ROOT
ATOM      1  C   UNL     1       2.027   0.547  -0.471  1.00  0.00     0.079 C 
ENDROOT
BRANCH   1   2
ATOM      2  C   UNL     1       1.153   0.025   0.690  1.00  0.00     0.004 C 
ATOM      3  C   UNL     1      -0.719   2.305  -0.939  1.00  0.00     0.008 C 
ATOM      4  C   UNL     1      -1.154   1.508   0.049  1.00  0.00    -0.073 C 
ATOM      5  C   UNL     1      -2.571   1.662   0.582  1.00  0.00     0.031 C 
ATOM      6  C   UNL     1      -0.382   0.372   0.715  1.00  0.00     0.024 C 
ATOM      7  C   UNL     1      -3.345   0.335   0.440  1.00  0.00     0.005 C 
ATOM      8  C   UNL     1      -1.125  -0.955   0.485  1.00  0.00    -0.026 C 
ATOM      9  C   UNL     1      -2.564  -0.846   1.073  1.00  0.00     0.008 C 
ATOM     10  C   UNL     1       1.179  -1.527   0.806  1.00  0.00     0.005 C 
ATOM     11  C   UNL     1      -0.224  -1.921   1.270  1.00  0.00     0.008 C 
ATOM     12  C   UNL     1      -1.200  -1.352  -1.024  1.00  0.00     0.012 C 
ENDBRANCH   1   2
BRANCH   1  13
ATOM     13  C   UNL     1       3.491   0.173  -0.375  1.00  0.00     0.130 C 
ATOM     14  O   UNL     1       3.916  -0.499   0.552  1.00  0.00    -0.300 OA
ATOM     15  C   UNL     1       4.453   0.655  -1.418  1.00  0.00     0.087 C 
ENDBRANCH   1  13
TORSDOF 2
