REMARK SMILES O=C(O)CSc1cncc(Cl)n1
REMARK SMILES IDX 4 1 2 2 1 3 3 4 5 6 6 7 7 8 12 9 8 10 10 11 9 12 11 13
REMARK H PARENT 3 5
ROOT
ATOM      1  C   UNL     1       1.819   1.409   0.380  1.00  0.00     0.199 C 
ENDROOT
BRANCH   1   2
ATOM      2  C   UNL     1       2.414   0.239  -0.349  1.00  0.00     0.313 C 
ATOM      3  O   UNL     1       2.155   0.064  -1.529  1.00  0.00    -0.251 OA
BRANCH   2   4
ATOM      4  O   UNL     1       3.241  -0.620   0.282  1.00  0.00    -0.481 OA
ATOM      5  H   UNL     1       3.476  -0.505   1.214  1.00  0.00     0.296 HD
ENDBRANCH   2   4
ENDBRANCH   1   2
BRANCH   1   6
ATOM      6  S   UNL     1       0.809   0.848   1.794  1.00  0.00    -0.093 SA
BRANCH   6   7
ATOM      7  C   UNL     1      -0.627   0.451   0.797  1.00  0.00     0.117 A 
ATOM      8  C   UNL     1      -0.817  -0.843   0.303  1.00  0.00     0.146 A 
ATOM      9  N   UNL     1      -1.547   1.412   0.519  1.00  0.00    -0.226 NA
ATOM     10  N   UNL     1      -1.916  -1.116  -0.449  1.00  0.00    -0.259 NA
ATOM     11  C   UNL     1      -2.646   1.139  -0.233  1.00  0.00     0.148 A 
ATOM     12  C   UNL     1      -2.835  -0.154  -0.728  1.00  0.00     0.152 A 
ATOM     13  Cl  UNL     1      -3.810   2.403  -0.573  1.00  0.00    -0.061 Cl
ENDBRANCH   6   7
ENDBRANCH   1   6
TORSDOF 4
