REMARK SMILES CC1(C)CC(=O)C2=C(C1)Nc1nc(O)nc(O)c1[C@H]2c1ccc(O)cc1
REMARK SMILES IDX 1 1 2 2 3 3 4 4 5 5 6 6 7 7 8 8 9 9 10 10 11 11 12 12 13 13
REMARK SMILES IDX 15 14 16 15 18 16 19 17 20 19 21 20 26 21 22 22 25 23 23 24
REMARK SMILES IDX 24 25 17 27 14 29
REMARK H PARENT 10 18 24 26 17 28 14 30
ROOT
ATOM      1  C   UNL     1       3.874  -0.096  -0.805  1.00  0.00     0.012 C 
ATOM      2  C   UNL     1       3.397   0.640   0.471  1.00  0.00    -0.023 C 
ATOM      3  C   UNL     1       4.639   1.124   1.244  1.00  0.00     0.012 C 
ATOM      4  C   UNL     1       2.502   1.844   0.118  1.00  0.00     0.087 C 
ATOM      5  C   UNL     1       1.260   1.367  -0.583  1.00  0.00     0.162 C 
ATOM      6  O   UNL     1       0.833   1.992  -1.543  1.00  0.00    -0.294 OA
ATOM      7  C   UNL     1       0.609   0.090  -0.159  1.00  0.00     0.027 C 
ATOM      8  C   UNL     1       1.228  -0.701   0.761  1.00  0.00     0.025 C 
ATOM      9  C   UNL     1       2.566  -0.311   1.372  1.00  0.00     0.061 C 
ATOM     10  N   UNL     1       0.646  -1.934   1.168  1.00  0.00    -0.343 N 
ATOM     11  C   UNL     1      -0.540  -2.430   0.582  1.00  0.00     0.145 A 
ATOM     12  N   UNL     1      -1.004  -3.656   0.942  1.00  0.00    -0.177 NA
ATOM     13  C   UNL     1      -2.128  -4.175   0.385  1.00  0.00     0.319 A 
ATOM     14  N   UNL     1      -2.809  -3.465  -0.550  1.00  0.00    -0.159 NA
ATOM     15  C   UNL     1      -2.388  -2.234  -0.944  1.00  0.00     0.223 A 
ATOM     16  C   UNL     1      -1.225  -1.675  -0.379  1.00  0.00     0.069 A 
ATOM     17  C   UNL     1      -0.719  -0.307  -0.801  1.00  0.00     0.094 C 
ATOM     18  H   UNL     1       1.130  -2.513   1.871  1.00  0.00     0.168 HD
ENDROOT
BRANCH  17  19
ATOM     19  C   UNL     1      -1.763   0.748  -0.482  1.00  0.00    -0.035 A 
ATOM     20  C   UNL     1      -2.143   1.002   0.849  1.00  0.00     0.008 A 
ATOM     21  C   UNL     1      -2.364   1.489  -1.516  1.00  0.00     0.008 A 
ATOM     22  C   UNL     1      -3.102   1.977   1.138  1.00  0.00     0.046 A 
ATOM     23  C   UNL     1      -3.324   2.462  -1.224  1.00  0.00     0.046 A 
ATOM     24  C   UNL     1      -3.696   2.711   0.101  1.00  0.00     0.115 A 
BRANCH  24  25
ATOM     25  O   UNL     1      -4.622   3.655   0.365  1.00  0.00    -0.508 OA
ATOM     26  H   UNL     1      -4.905   3.859   1.268  1.00  0.00     0.293 HD
ENDBRANCH  24  25
ENDBRANCH  17  19
BRANCH  15  27
ATOM     27  O   UNL     1      -3.085  -1.562  -1.881  1.00  0.00    -0.493 OA
ATOM     28  H   UNL     1      -3.882  -1.936  -2.281  1.00  0.00     0.295 HD
ENDBRANCH  15  27
BRANCH  13  29
ATOM     29  O   UNL     1      -2.565  -5.394   0.747  1.00  0.00    -0.479 OA
ATOM     30  H   UNL     1      -2.089  -5.924   1.402  1.00  0.00     0.297 HD
ENDBRANCH  13  29
TORSDOF 4
