REMARK SMILES CC#CC#C/C=C1\C=C[C@@]2(CCCCO2)O1
REMARK SMILES IDX 3 1 4 2 2 3 1 4 5 5 6 6 7 7 8 8 16 9 9 10 10 11 11 12 15 13
REMARK SMILES IDX 12 14 14 15 13 16
REMARK H PARENT
ROOT
ATOM      1  C   UNL     1       4.776   0.976  -1.575  1.00  0.00    -0.015 C 
ATOM      2  C   UNL     1       3.496   0.944  -0.978  1.00  0.00    -0.010 C 
ENDROOT
BRANCH   1   3
ATOM      3  C   UNL     1       5.849   1.052  -2.118  1.00  0.00    -0.093 C 
ATOM      4  C   UNL     1       7.136   1.184  -2.801  1.00  0.00     0.108 C 
ENDBRANCH   1   3
BRANCH   2   5
ATOM      5  C   UNL     1       2.383   0.989  -0.519  1.00  0.00    -0.057 C 
ATOM      6  C   UNL     1       1.028   1.147  -0.052  1.00  0.00     0.108 C 
ATOM      7  C   UNL     1       0.209   0.121   0.205  1.00  0.00     0.131 C 
ATOM      8  C   UNL     1       0.503  -1.296   0.119  1.00  0.00     0.049 C 
ATOM      9  O   UNL     1      -1.072   0.300   0.576  1.00  0.00    -0.458 OA
ATOM     10  C   UNL     1      -0.670  -1.936   0.437  1.00  0.00     0.055 C 
ATOM     11  C   UNL     1      -1.734  -0.913   0.723  1.00  0.00     0.230 C 
ATOM     12  C   UNL     1      -2.292  -1.075   2.153  1.00  0.00     0.085 C 
ATOM     13  O   UNL     1      -2.771  -1.041  -0.243  1.00  0.00    -0.337 OA
ATOM     14  C   UNL     1      -3.381  -0.023   2.389  1.00  0.00     0.010 C 
ATOM     15  C   UNL     1      -3.749  -0.024  -0.079  1.00  0.00     0.165 C 
ATOM     16  C   UNL     1      -4.435  -0.140   1.288  1.00  0.00     0.029 C 
ENDBRANCH   2   5
TORSDOF 2
