REMARK SMILES CCCCCCCCC[N@+]12[C@@H]3C[C@]45c6ccccc6N(C)[C@@H]4[C@H]1C[C@H]([C@@H](CC)[C@@H]2O)[C@H]3[C@H]5O
REMARK SMILES IDX 6 1 5 2 4 3 3 4 2 5 1 6 7 7 8 8 9 9 10 10 29 11 23 12 11 13
REMARK SMILES IDX 26 14 24 15 22 16 12 17 31 18 25 19 20 20 13 21 32 22 19 23
REMARK SMILES IDX 14 24 18 25 15 26 17 27 16 28 21 29 30 30 27 32 28 33 33 34
REMARK H PARENT 30 31 33 35
ROOT
ATOM      1  C   UNL     1       5.298   5.538   0.000  1.00  0.00     0.000 C 
ENDROOT
BRANCH   1   2
ATOM      2  C   UNL     1       6.560   6.307  -0.858  1.00  0.00     0.000 C 
BRANCH   2   3
ATOM      3  C   UNL     1       8.125   6.538  -0.174  1.00  0.00    -0.000 C 
BRANCH   3   4
ATOM      4  C   UNL     1       9.518   7.300  -0.841  1.00  0.00    -0.000 C 
BRANCH   4   5
ATOM      5  C   UNL     1      11.004   7.393   0.000  1.00  0.00    -0.003 C 
ATOM      6  C   UNL     1      12.431   7.856   0.000  1.00  0.00     0.004 C 
ENDBRANCH   4   5
ENDBRANCH   3   4
ENDBRANCH   2   3
ENDBRANCH   1   2
BRANCH   1   7
ATOM      7  C   UNL     1       3.871   5.075   0.000  1.00  0.00     0.006 C 
BRANCH   7   8
ATOM      8  C   UNL     1       2.445   4.612   0.000  1.00  0.00     0.062 C 
BRANCH   8   9
ATOM      9  C   UNL     1       1.018   4.148   0.000  1.00  0.00     0.266 C 
BRANCH   9  10
ATOM     10  N   UNL     1      -0.116   3.931   0.615  1.00  0.00    -0.292 N 
ATOM     11  C   UNL     1      -0.456   5.453   1.040  1.00  0.00     0.325 C 
ATOM     12  C   UNL     1      -0.402   2.954  -0.629  1.00  0.00     0.212 C 
ATOM     13  C   UNL     1      -0.814   3.273   1.717  1.00  0.00     0.195 C 
ATOM     14  C   UNL     1      -1.211   6.155   0.000  1.00  0.00     0.081 C 
ATOM     15  C   UNL     1      -1.670   3.670  -1.237  1.00  0.00     0.072 C 
ATOM     16  C   UNL     1       0.055   1.207  -0.293  1.00  0.00     0.153 C 
ATOM     17  C   UNL     1      -0.404   1.815   2.018  1.00  0.00     0.082 C 
ATOM     18  C   UNL     1      -2.287   3.407   1.136  1.00  0.00     0.081 C 
ATOM     19  C   UNL     1      -2.268   4.641  -0.149  1.00  0.00     0.018 C 
ATOM     20  N   UNL     1       1.276   0.000   0.000  1.00  0.00    -0.364 N 
ATOM     21  C   UNL     1      -0.966   1.032   0.863  1.00  0.00     0.056 C 
ATOM     22  C   UNL     1      -2.438   1.778   0.861  1.00  0.00     0.137 C 
ATOM     23  C   UNL     1       0.465  -0.962   0.680  1.00  0.00     0.041 A 
ATOM     24  C   UNL     1      -0.790  -0.457   1.117  1.00  0.00    -0.013 A 
ATOM     25  C   UNL     1       0.807  -2.300   0.916  1.00  0.00     0.026 A 
ATOM     26  C   UNL     1      -1.697  -1.293   1.776  1.00  0.00     0.006 A 
ATOM     27  C   UNL     1      -0.112  -3.132   1.571  1.00  0.00     0.002 A 
ATOM     28  C   UNL     1      -1.354  -2.634   1.994  1.00  0.00     0.000 A 
ATOM     29  C   UNL     1       2.776   0.000   0.000  1.00  0.00     0.144 C 
BRANCH  11  30
ATOM     30  O   UNL     1       0.589   6.166   1.671  1.00  0.00    -0.345 OA
ATOM     31  H   UNL     1       0.770   7.004   1.173  1.00  0.00     0.217 HD
ENDBRANCH  11  30
BRANCH  14  32
ATOM     32  C   UNL     1      -1.916   7.480   0.000  1.00  0.00     0.009 C 
ATOM     33  C   UNL     1      -2.620   8.804   0.000  1.00  0.00     0.004 C 
ENDBRANCH  14  32
BRANCH  22  34
ATOM     34  O   UNL     1      -3.259   1.415  -0.213  1.00  0.00    -0.392 OA
ATOM     35  H   UNL     1      -4.156   1.789  -0.016  1.00  0.00     0.211 HD
ENDBRANCH  22  34
ENDBRANCH   9  10
ENDBRANCH   8   9
ENDBRANCH   7   8
ENDBRANCH   1   7
TORSDOF 11
