REMARK SMILES C/C=C/C=C/C(=O)O[C@H]1CC[C@@H](OC)[C@@H]2C(=O)[C@H](O)[C@@H](CCC)O[C@]12O
REMARK SMILES IDX 8 1 6 2 7 3 5 4 4 5 3 6 2 7 1 8 9 9 10 10 25 11 11 12 24 13
REMARK SMILES IDX 15 14 12 15 20 16 16 17 18 18 17 19 26 20 13 22 14 23 21 24
REMARK SMILES IDX 22 25 23 26 19 27
REMARK H PARENT 26 21 19 28
ROOT
ATOM      1  O   UNL     1       1.462  -0.836  -0.362  1.00  0.00    -0.453 OA
ENDROOT
BRANCH   1   2
ATOM      2  C   UNL     1       2.014   0.400  -0.531  1.00  0.00     0.331 C 
ATOM      3  O   UNL     1       1.494   1.216  -1.281  1.00  0.00    -0.247 OA
BRANCH   2   4
ATOM      4  C   UNL     1       3.264   0.755   0.177  1.00  0.00     0.093 C 
ATOM      5  C   UNL     1       3.846   1.953  -0.004  1.00  0.00     0.007 C 
BRANCH   5   6
ATOM      6  C   UNL     1       5.096   2.330   0.685  1.00  0.00    -0.004 C 
ATOM      7  C   UNL     1       5.656   3.527   0.458  1.00  0.00    -0.030 C 
ATOM      8  C   UNL     1       6.924   3.936   1.140  1.00  0.00     0.035 C 
ENDBRANCH   5   6
ENDBRANCH   2   4
ENDBRANCH   1   2
BRANCH   1   9
ATOM      9  C   UNL     1       0.259  -1.232  -0.935  1.00  0.00     0.237 C 
ATOM     10  C   UNL     1       0.514  -2.297  -2.015  1.00  0.00     0.054 C 
ATOM     11  C   UNL     1      -0.738  -1.779   0.150  1.00  0.00     0.216 C 
ATOM     12  C   UNL     1      -0.812  -2.660  -2.705  1.00  0.00     0.037 C 
ATOM     13  O   UNL     1      -1.015  -0.864   1.210  1.00  0.00    -0.340 OA
ATOM     14  C   UNL     1      -2.073  -2.172  -0.536  1.00  0.00     0.151 C 
ATOM     15  C   UNL     1      -1.841  -3.195  -1.692  1.00  0.00     0.134 C 
ATOM     16  C   UNL     1      -1.494   0.404   0.786  1.00  0.00     0.158 C 
ATOM     17  C   UNL     1      -2.762  -0.909  -1.001  1.00  0.00     0.175 C 
ATOM     18  C   UNL     1      -2.800   0.266  -0.050  1.00  0.00     0.210 C 
ATOM     19  O   UNL     1      -3.654  -0.998  -1.833  1.00  0.00    -0.296 OA
BRANCH  11  20
ATOM     20  O   UNL     1      -0.186  -2.936   0.731  1.00  0.00    -0.362 OA
ATOM     21  H   UNL     1       0.577  -2.650   1.298  1.00  0.00     0.214 HD
ENDBRANCH  11  20
BRANCH  15  22
ATOM     22  O   UNL     1      -1.355  -4.423  -1.167  1.00  0.00    -0.380 OA
ATOM     23  C   UNL     1      -2.392  -5.377  -1.083  1.00  0.00     0.195 C 
ENDBRANCH  15  22
BRANCH  16  24
ATOM     24  C   UNL     1      -1.632   1.248   2.080  1.00  0.00     0.035 C 
BRANCH  24  25
ATOM     25  C   UNL     1      -1.939   2.754   1.965  1.00  0.00    -0.001 C 
ATOM     26  C   UNL     1      -3.418   3.112   1.805  1.00  0.00     0.004 C 
ENDBRANCH  24  25
ENDBRANCH  16  24
BRANCH  18  27
ATOM     27  O   UNL     1      -3.045   1.439  -0.783  1.00  0.00    -0.383 OA
ATOM     28  H   UNL     1      -2.287   1.564  -1.415  1.00  0.00     0.211 HD
ENDBRANCH  18  27
ENDBRANCH   1   9
TORSDOF 9
