REMARK SMILES O=C(/C=C/c1ccc(O)c(O)c1)O[C@@H]1O[C@H](CO[C@@H]2O[C@H](CO)[C@@H](O)[C@H](O)[C@H]2O)[C@@H](O)[C@H](O)[C@H]1O
REMARK SMILES IDX 14 1 15 2 16 3 30 4 32 5 34 6 13 7 2 8 1 9 3 10 4 11 5 12
REMARK SMILES IDX 6 13 12 14 7 15 10 16 8 17 11 18 9 20 35 22 17 24 18 25
REMARK SMILES IDX 19 26 20 27 28 28 21 29 26 30 24 31 29 32 22 34 23 35 27 37
REMARK SMILES IDX 25 39 33 41 31 43
REMARK H PARENT 11 19 9 21 35 23 29 33 23 36 27 38 25 40 33 42 31 44
ROOT
ATOM      1  C   UNL     1       1.156  -0.282  -2.409  1.00  0.00     0.343 C 
ATOM      2  O   UNL     1      -0.019  -0.030  -1.628  1.00  0.00    -0.332 OA
ATOM      3  C   UNL     1      -1.135  -0.709  -2.164  1.00  0.00     0.180 C 
ATOM      4  C   UNL     1      -1.018  -2.225  -1.845  1.00  0.00     0.177 C 
ATOM      5  C   UNL     1       0.447  -2.719  -2.088  1.00  0.00     0.180 C 
ATOM      6  C   UNL     1       1.232  -1.731  -3.007  1.00  0.00     0.214 C 
ENDROOT
BRANCH   1   7
ATOM      7  O   UNL     1       2.272  -0.036  -1.615  1.00  0.00    -0.430 OA
BRANCH   7   8
ATOM      8  C   UNL     1       3.159   0.978  -1.850  1.00  0.00     0.333 C 
ATOM      9  O   UNL     1       2.979   1.762  -2.771  1.00  0.00    -0.247 OA
BRANCH   8  10
ATOM     10  C   UNL     1       4.356   1.183  -1.009  1.00  0.00     0.094 C 
ATOM     11  C   UNL     1       4.690   0.391   0.025  1.00  0.00     0.016 C 
BRANCH  11  12
ATOM     12  C   UNL     1       5.905   0.600   0.872  1.00  0.00    -0.021 A 
ATOM     13  C   UNL     1       6.160  -0.314   1.908  1.00  0.00     0.012 A 
ATOM     14  C   UNL     1       6.806   1.671   0.680  1.00  0.00     0.058 A 
ATOM     15  C   UNL     1       7.283  -0.167   2.731  1.00  0.00     0.051 A 
ATOM     16  C   UNL     1       7.931   1.822   1.504  1.00  0.00     0.157 A 
ATOM     17  C   UNL     1       8.171   0.898   2.532  1.00  0.00     0.157 A 
BRANCH  16  18
ATOM     18  O   UNL     1       8.765   2.861   1.284  1.00  0.00    -0.504 OA
ATOM     19  H   UNL     1       9.557   3.019   1.819  1.00  0.00     0.293 HD
ENDBRANCH  16  18
BRANCH  17  20
ATOM     20  O   UNL     1       9.253   1.040   3.327  1.00  0.00    -0.504 OA
ATOM     21  H   UNL     1       9.448   0.424   4.047  1.00  0.00     0.293 HD
ENDBRANCH  17  20
ENDBRANCH  11  12
ENDBRANCH   8  10
ENDBRANCH   7   8
ENDBRANCH   1   7
BRANCH   6  22
ATOM     22  O   UNL     1       0.728  -1.693  -4.327  1.00  0.00    -0.384 OA
ATOM     23  H   UNL     1       0.045  -2.393  -4.463  1.00  0.00     0.211 HD
ENDBRANCH   6  22
BRANCH   3  24
ATOM     24  C   UNL     1      -2.443  -0.080  -1.679  1.00  0.00     0.198 C 
BRANCH  24  25
ATOM     25  O   UNL     1      -2.580  -0.176  -0.273  1.00  0.00    -0.347 OA
BRANCH  25  26
ATOM     26  C   UNL     1      -3.828   0.374   0.135  1.00  0.00     0.282 C 
ATOM     27  O   UNL     1      -3.566   1.468   1.021  1.00  0.00    -0.341 OA
ATOM     28  C   UNL     1      -4.652  -0.730   0.828  1.00  0.00     0.202 C 
ATOM     29  C   UNL     1      -4.649   1.861   1.879  1.00  0.00     0.178 C 
ATOM     30  C   UNL     1      -6.048  -0.197   1.229  1.00  0.00     0.179 C 
ATOM     31  C   UNL     1      -6.040   1.344   1.419  1.00  0.00     0.177 C 
BRANCH  28  32
ATOM     32  O   UNL     1      -4.768  -1.893   0.047  1.00  0.00    -0.385 OA
ATOM     33  H   UNL     1      -5.168  -1.627  -0.822  1.00  0.00     0.211 HD
ENDBRANCH  28  32
BRANCH  29  34
ATOM     34  C   UNL     1      -4.306   1.533   3.344  1.00  0.00     0.191 C 
BRANCH  34  35
ATOM     35  O   UNL     1      -5.319   1.974   4.208  1.00  0.00    -0.394 OA
ATOM     36  H   UNL     1      -5.249   2.964   4.250  1.00  0.00     0.210 HD
ENDBRANCH  34  35
ENDBRANCH  29  34
BRANCH  30  37
ATOM     37  O   UNL     1      -6.556  -0.889   2.343  1.00  0.00    -0.387 OA
ATOM     38  H   UNL     1      -5.948  -0.740   3.108  1.00  0.00     0.211 HD
ENDBRANCH  30  37
BRANCH  31  39
ATOM     39  O   UNL     1      -6.305   1.963   0.181  1.00  0.00    -0.387 OA
ATOM     40  H   UNL     1      -7.280   1.876   0.009  1.00  0.00     0.211 HD
ENDBRANCH  31  39
ENDBRANCH  25  26
ENDBRANCH  24  25
ENDBRANCH   3  24
BRANCH   5  41
ATOM     41  O   UNL     1       1.135  -2.875  -0.869  1.00  0.00    -0.387 OA
ATOM     42  H   UNL     1       1.045  -2.039  -0.343  1.00  0.00     0.211 HD
ENDBRANCH   5  41
BRANCH   4  43
ATOM     43  O   UNL     1      -1.961  -2.980  -2.569  1.00  0.00    -0.387 OA
ATOM     44  H   UNL     1      -1.925  -2.707  -3.522  1.00  0.00     0.211 HD
ENDBRANCH   4  43
TORSDOF 17
