REMARK SMILES CC[C@H](C)[C@H]1C(=O)NCC(=O)N(C)[C@@H](C(C)C)C(=O)N[C@@H](Cc2ccc(OC)cc2)C(=O)O[C@H](C(C)C)C(=O)N2CCCC[C@H]2C(=O)N(C)[C@@H](C(C)C)C(=O)N[C@@H](C(C)C)C(=O)N(C)[C@@H](CC(=O)O)C(=O)N(C)[C@@H](C(C)C)C(=O)N1C
REMARK SMILES IDX 38 1 39 2 34 3 33 4 31 5 32 6 21 7 20 8 18 9 19 10 14 12
REMARK SMILES IDX 12 13 13 14 10 15 11 16 9 17 8 18 6 19 7 20 5 22 3 23 4 24
REMARK SMILES IDX 2 25 1 26 80 27 81 28 78 29 79 30 15 32 16 33 17 34 22 35
REMARK SMILES IDX 23 36 24 37 30 38 25 39 29 40 26 41 27 42 28 43 35 44 36 45
REMARK SMILES IDX 37 46 40 47 41 48 45 49 42 50 44 51 43 52 46 53 47 54 48 55
REMARK SMILES IDX 49 56 50 57 51 58 52 59 53 60 54 61 55 62 56 63 57 65 58 66
REMARK SMILES IDX 59 67 60 68 61 69 62 70 63 71 64 72 65 73 66 74 67 75 68 76
REMARK SMILES IDX 69 77 70 79 71 80 72 81 73 82 74 83 75 85 76 86 77 87
REMARK H PARENT 20 11 8 21 56 64 69 78
REMARK Flexibility Score:  660.900
ROOT
ATOM      1  C   UNL     1       4.473   3.122  -0.565  1.00  0.00     0.264 C 
ATOM      2  O   UNL     1       4.344   2.673   0.570  1.00  0.00    -0.271 OA
ENDROOT
BRANCH   1   3
ATOM      3  C   UNL     1       5.016   2.126  -1.622  1.00  0.00     0.268 C 
BRANCH   3   4
ATOM      4  O   UNL     1       5.121   0.878  -1.013  1.00  0.00    -0.450 OA
BRANCH   4   5
ATOM      5  C   UNL     1       4.134  -0.025  -0.771  1.00  0.00     0.329 C 
ATOM      6  O   UNL     1       3.003   0.152  -1.200  1.00  0.00    -0.250 OA
BRANCH   5   7
ATOM      7  C   UNL     1       4.469  -1.244   0.067  1.00  0.00     0.196 C 
BRANCH   7   8
ATOM      8  N   UNL     1       3.297  -2.109   0.291  1.00  0.00    -0.341 N 
ATOM      9  C   UNL     1       2.861  -2.382   1.563  1.00  0.00     0.243 C 
ATOM     10  O   UNL     1       3.414  -1.829   2.498  1.00  0.00    -0.273 OA
ATOM     11  H   UNL     1       2.846  -2.528  -0.530  1.00  0.00     0.164 HD
BRANCH   9  12
ATOM     12  C   UNL     1       1.702  -3.323   1.953  1.00  0.00     0.176 C 
BRANCH  12  13
ATOM     13  N   UNL     1       0.871  -3.916   0.875  1.00  0.00    -0.332 N 
ATOM     14  C   UNL     1       1.472  -4.690  -0.206  1.00  0.00     0.147 C 
BRANCH  13  15
ATOM     15  C   UNL     1      -0.511  -3.876   0.995  1.00  0.00     0.242 C 
ATOM     16  O   UNL     1      -1.027  -3.239   1.905  1.00  0.00    -0.273 OA
BRANCH  15  17
ATOM     17  C   UNL     1      -1.433  -4.696   0.094  1.00  0.00     0.216 C 
BRANCH  17  18
ATOM     18  N   UNL     1      -2.842  -4.619   0.487  1.00  0.00    -0.345 N 
ATOM     19  C   UNL     1      -3.784  -5.441  -0.058  1.00  0.00     0.243 C 
ATOM     20  O   UNL     1      -3.450  -6.268  -0.896  1.00  0.00    -0.273 OA
ATOM     21  H   UNL     1      -3.149  -3.966   1.224  1.00  0.00     0.164 HD
BRANCH  19  22
ATOM     22  C   UNL     1      -5.245  -5.366   0.402  1.00  0.00     0.176 C 
BRANCH  22  23
ATOM     23  C   UNL     1      -6.164  -6.525  -0.155  1.00  0.00     0.018 C 
ATOM     24  C   UNL     1      -7.498  -6.572   0.621  1.00  0.00     0.010 C 
BRANCH  23  25
ATOM     25  C   UNL     1      -6.432  -6.463  -1.685  1.00  0.00     0.002 C 
ATOM     26  C   UNL     1      -7.207  -7.668  -2.226  1.00  0.00     0.004 C 
ENDBRANCH  23  25
ENDBRANCH  22  23
BRANCH  22  27
ATOM     27  N   UNL     1      -5.843  -4.030   0.186  1.00  0.00    -0.332 N 
ATOM     28  C   UNL     1      -6.533  -3.441   1.334  1.00  0.00     0.147 C 
BRANCH  27  29
ATOM     29  C   UNL     1      -5.725  -3.384  -1.036  1.00  0.00     0.246 CG0
ATOM     30  O   UNL     1      -5.048  -3.908  -1.910  1.00  0.00    -0.272 OA
ATOM     31  G   UNL     1      -6.418  -2.050  -1.410  1.00  0.00     0.000 G0
ENDBRANCH  27  29
ENDBRANCH  22  27
ENDBRANCH  19  22
ENDBRANCH  17  18
ENDBRANCH  15  17
ENDBRANCH  13  15
ENDBRANCH  12  13
BRANCH  12  32
ATOM     32  C   UNL     1       2.111  -4.452   2.974  1.00  0.00     0.015 C 
ATOM     33  C   UNL     1       2.589  -3.893   4.328  1.00  0.00     0.010 C 
ATOM     34  C   UNL     1       3.158  -5.450   2.452  1.00  0.00     0.010 C 
ENDBRANCH  12  32
ENDBRANCH   9  12
ENDBRANCH   7   8
BRANCH   7  35
ATOM     35  C   UNL     1       5.636  -2.065  -0.542  1.00  0.00     0.072 C 
BRANCH  35  36
ATOM     36  C   UNL     1       6.974  -1.359  -0.391  1.00  0.00    -0.045 A 
ATOM     37  C   UNL     1       7.731  -0.965  -1.507  1.00  0.00     0.007 A 
ATOM     38  C   UNL     1       7.480  -1.101   0.896  1.00  0.00     0.007 A 
ATOM     39  C   UNL     1       8.957  -0.301  -1.335  1.00  0.00     0.046 A 
ATOM     40  C   UNL     1       8.700  -0.445   1.066  1.00  0.00     0.046 A 
ATOM     41  C   UNL     1       9.446  -0.031  -0.040  1.00  0.00     0.118 A 
BRANCH  41  42
ATOM     42  O   UNL     1      10.612   0.627   0.191  1.00  0.00    -0.497 OA
ATOM     43  C   UNL     1      11.429   1.193  -0.765  1.00  0.00     0.278 C 
ENDBRANCH  41  42
ENDBRANCH  35  36
ENDBRANCH   7  35
ENDBRANCH   5   7
ENDBRANCH   4   5
ENDBRANCH   3   4
BRANCH   3  44
ATOM     44  C   UNL     1       6.447   2.369  -2.220  1.00  0.00     0.034 C 
ATOM     45  C   UNL     1       7.471   2.710  -1.132  1.00  0.00     0.012 C 
ATOM     46  C   UNL     1       6.580   3.341  -3.395  1.00  0.00     0.012 C 
ENDBRANCH   3  44
ENDBRANCH   1   3
BRANCH   1  47
ATOM     47  N   UNL     1       4.093   4.434  -0.778  1.00  0.00    -0.327 N 
ATOM     48  C   UNL     1       4.136   5.104  -2.066  1.00  0.00     0.120 C 
ATOM     49  C   UNL     1       3.518   5.217   0.339  1.00  0.00     0.174 C 
ATOM     50  C   UNL     1       4.972   6.409  -1.971  1.00  0.00     0.022 C 
ATOM     51  C   UNL     1       3.456   6.741   0.015  1.00  0.00     0.035 C 
ATOM     52  C   UNL     1       4.794   7.127  -0.614  1.00  0.00     0.004 C 
BRANCH  49  53
ATOM     53  C   UNL     1       2.101   4.714   0.603  1.00  0.00     0.245 C 
ATOM     54  O   UNL     1       1.382   4.663  -0.385  1.00  0.00    -0.272 OA
BRANCH  53  55
ATOM     55  N   UNL     1       1.601   4.287   1.817  1.00  0.00    -0.332 N 
ATOM     56  C   UNL     1       2.396   4.252   3.045  1.00  0.00     0.147 C 
BRANCH  55  57
ATOM     57  C   UNL     1       0.225   3.752   1.912  1.00  0.00     0.176 C 
BRANCH  57  58
ATOM     58  C   UNL     1      -0.873   4.887   1.902  1.00  0.00     0.015 C 
ATOM     59  C   UNL     1      -0.717   5.788   3.142  1.00  0.00     0.010 C 
ATOM     60  C   UNL     1      -0.906   5.818   0.670  1.00  0.00     0.010 C 
ENDBRANCH  57  58
BRANCH  57  61
ATOM     61  C   UNL     1       0.143   2.454   1.073  1.00  0.00     0.243 C 
ATOM     62  O   UNL     1       1.074   1.685   1.279  1.00  0.00    -0.273 OA
ATOM     63  N   UNL     1      -0.829   1.996   0.209  1.00  0.00    -0.342 N 
ATOM     64  H   UNL     1      -0.656   1.051  -0.163  1.00  0.00     0.164 HD
BRANCH  63  65
ATOM     65  C   UNL     1      -2.070   2.597  -0.263  1.00  0.00     0.174 C 
BRANCH  65  66
ATOM     66  C   UNL     1      -1.895   2.826  -1.818  1.00  0.00     0.015 C 
ATOM     67  C   UNL     1      -3.017   3.654  -2.479  1.00  0.00     0.010 C 
ATOM     68  C   UNL     1      -1.688   1.524  -2.617  1.00  0.00     0.010 C 
ENDBRANCH  65  66
BRANCH  65  69
ATOM     69  C   UNL     1      -3.352   1.789   0.121  1.00  0.00     0.245 C 
ATOM     70  O   UNL     1      -4.337   2.016  -0.563  1.00  0.00    -0.272 OA
BRANCH  69  71
ATOM     71  N   UNL     1      -3.516   0.911   1.189  1.00  0.00    -0.331 N 
ATOM     72  C   UNL     1      -2.506   0.583   2.191  1.00  0.00     0.147 C 
BRANCH  71  73
ATOM     73  C   UNL     1      -4.825   0.267   1.432  1.00  0.00     0.185 C 
BRANCH  73  74
ATOM     74  C   UNL     1      -5.816   1.380   1.923  1.00  0.00     0.157 C 
BRANCH  74  75
ATOM     75  C   UNL     1      -7.036   0.936   2.695  1.00  0.00     0.305 C 
ATOM     76  O   UNL     1      -8.137   1.361   2.379  1.00  0.00    -0.252 OA
BRANCH  75  77
ATOM     77  O   UNL     1      -6.929   0.150   3.787  1.00  0.00    -0.481 OA
ATOM     78  H   UNL     1      -6.077  -0.167   4.115  1.00  0.00     0.296 HD
ENDBRANCH  75  77
ENDBRANCH  74  75
ENDBRANCH  73  74
BRANCH  73  79
ATOM     79  C   UNL     1      -5.101  -0.764   0.305  1.00  0.00     0.246 C 
ATOM     80  O   UNL     1      -4.164  -1.526   0.106  1.00  0.00    -0.272 OA
BRANCH  79  81
ATOM     81  N   UNL     1      -6.255  -0.930  -0.448  1.00  0.00    -0.332 N 
ATOM     82  C   UNL     1      -7.427  -0.095  -0.253  1.00  0.00     0.147 C 
BRANCH  81  83
ATOM     83  C   UNL     1      -6.418  -2.050  -1.410  1.00  0.00     0.176 CG0
ATOM     84  G   UNL     1      -5.725  -3.384  -1.036  1.00  0.00     0.000 G0
BRANCH  83  85
ATOM     85  C   UNL     1      -6.090  -1.603  -2.879  1.00  0.00     0.015 C 
ATOM     86  C   UNL     1      -4.650  -1.089  -3.016  1.00  0.00     0.010 C 
ATOM     87  C   UNL     1      -7.059  -0.540  -3.414  1.00  0.00     0.010 C 
ENDBRANCH  83  85
ENDBRANCH  81  83
ENDBRANCH  79  81
ENDBRANCH  73  79
ENDBRANCH  71  73
ENDBRANCH  69  71
ENDBRANCH  65  69
ENDBRANCH  63  65
ENDBRANCH  57  61
ENDBRANCH  55  57
ENDBRANCH  53  55
ENDBRANCH  49  53
ENDBRANCH   1  47
TORSDOF 13
