REMARK SMILES CC[C@]12C=CCN3CC[C@]4(c5ccccc5N(C)[C@@H]4[C@](O)(C(=O)OC)C1)[C@H]32
REMARK SMILES IDX 3 1 4 2 5 3 6 4 7 5 8 6 9 7 10 8 11 9 12 10 13 11 14 12
REMARK SMILES IDX 15 13 16 14 17 15 18 16 19 17 20 18 26 19 27 20 2 21 1 22
REMARK SMILES IDX 21 23 22 25 23 26 24 27 25 28
REMARK H PARENT 21 24
ROOT
ATOM      1  C   UNL     1      -2.037  -0.141   0.155  1.00  0.00     0.008 C 
ATOM      2  C   UNL     1      -3.148  -0.670   1.050  1.00  0.00    -0.021 C 
ATOM      3  C   UNL     1      -3.467  -1.976   0.996  1.00  0.00    -0.015 C 
ATOM      4  C   UNL     1      -2.744  -2.873   0.018  1.00  0.00     0.112 C 
ATOM      5  N   UNL     1      -1.287  -2.604   0.046  1.00  0.00    -0.295 NA
ATOM      6  C   UNL     1      -0.548  -3.043  -1.153  1.00  0.00     0.086 C 
ATOM      7  C   UNL     1       0.105  -1.794  -1.726  1.00  0.00     0.031 C 
ATOM      8  C   UNL     1       0.373  -0.913  -0.491  1.00  0.00     0.039 C 
ATOM      9  C   UNL     1       1.665  -1.330   0.185  1.00  0.00    -0.015 A 
ATOM     10  C   UNL     1       1.978  -2.507   0.881  1.00  0.00     0.006 A 
ATOM     11  C   UNL     1       3.276  -2.673   1.384  1.00  0.00     0.000 A 
ATOM     12  C   UNL     1       4.245  -1.676   1.185  1.00  0.00     0.002 A 
ATOM     13  C   UNL     1       3.922  -0.505   0.486  1.00  0.00     0.026 A 
ATOM     14  C   UNL     1       2.617  -0.352  -0.004  1.00  0.00     0.041 A 
ATOM     15  N   UNL     1       2.089   0.749  -0.711  1.00  0.00    -0.367 N 
ATOM     16  C   UNL     1       2.850   1.870  -1.239  1.00  0.00     0.144 C 
ATOM     17  C   UNL     1       0.648   0.595  -0.852  1.00  0.00     0.137 C 
ATOM     18  C   UNL     1      -0.175   1.704  -0.035  1.00  0.00     0.184 C 
ATOM     19  C   UNL     1      -1.432   1.159   0.736  1.00  0.00     0.062 C 
ATOM     20  C   UNL     1      -0.883  -1.199   0.328  1.00  0.00     0.080 C 
ENDROOT
BRANCH   1  21
ATOM     21  C   UNL     1      -2.595   0.111  -1.292  1.00  0.00     0.009 C 
ATOM     22  C   UNL     1      -3.790   1.073  -1.333  1.00  0.00     0.005 C 
ENDBRANCH   1  21
BRANCH  18  23
ATOM     23  O   UNL     1      -0.648   2.652  -0.967  1.00  0.00    -0.376 OA
ATOM     24  H   UNL     1       0.134   3.040  -1.442  1.00  0.00     0.212 HD
ENDBRANCH  18  23
BRANCH  18  25
ATOM     25  C   UNL     1       0.671   2.426   1.012  1.00  0.00     0.340 C 
ATOM     26  O   UNL     1       1.190   1.788   1.920  1.00  0.00    -0.249 OA
BRANCH  25  27
ATOM     27  O   UNL     1       0.851   3.770   0.929  1.00  0.00    -0.467 OA
ATOM     28  C   UNL     1       1.637   4.495   1.799  1.00  0.00     0.282 C 
ENDBRANCH  25  27
ENDBRANCH  18  25
TORSDOF 4
