REMARK SMILES CCC1(CCC(C)C)C(=O)NC(=O)NC1=O
REMARK SMILES IDX 4 1 3 2 9 3 15 4 10 5 11 6 14 7 16 8 12 9 13 10 2 13 1 14
REMARK SMILES IDX 5 15 6 16 7 17 8 18
REMARK H PARENT 11 11 14 12
ROOT
ATOM      1  C   UNL     1       0.382  -0.074  -0.626  1.00  0.00     0.027 C 
ENDROOT
BRANCH   1   2
ATOM      2  C   UNL     1      -1.102  -0.328  -0.196  1.00  0.00     0.128 C 
ATOM      3  C   UNL     1      -1.943  -0.215  -1.467  1.00  0.00     0.243 C 
ATOM      4  C   UNL     1      -1.547   0.717   0.830  1.00  0.00     0.243 C 
ATOM      5  O   UNL     1      -1.734  -0.986  -2.394  1.00  0.00    -0.273 OA
ATOM      6  N   UNL     1      -2.915   0.723  -1.602  1.00  0.00    -0.277 N 
ATOM      7  N   UNL     1      -2.543   1.600   0.562  1.00  0.00    -0.277 N 
ATOM      8  O   UNL     1      -1.012   0.754   1.928  1.00  0.00    -0.273 OA
ATOM      9  C   UNL     1      -3.209   1.612  -0.620  1.00  0.00     0.328 C 
ATOM     10  O   UNL     1      -4.095   2.435  -0.801  1.00  0.00    -0.248 OA
ATOM     11  H   UNL     1      -3.450   0.762  -2.484  1.00  0.00     0.174 HD
ATOM     12  H   UNL     1      -2.805   2.288   1.286  1.00  0.00     0.174 HD
BRANCH   2  13
ATOM     13  C   UNL     1      -1.280  -1.756   0.404  1.00  0.00     0.023 C 
ATOM     14  C   UNL     1      -2.731  -2.093   0.776  1.00  0.00     0.005 C 
ENDBRANCH   2  13
ENDBRANCH   1   2
BRANCH   1  15
ATOM     15  C   UNL     1       1.458  -0.152   0.482  1.00  0.00     0.004 C 
BRANCH  15  16
ATOM     16  C   UNL     1       2.897   0.065  -0.050  1.00  0.00    -0.017 C 
ATOM     17  C   UNL     1       3.902  -0.138   1.093  1.00  0.00     0.007 C 
ATOM     18  C   UNL     1       3.096   1.465  -0.656  1.00  0.00     0.007 C 
ENDBRANCH  15  16
ENDBRANCH   1  15
TORSDOF 4
