REMARK SMILES C[C@@H]1O[C@H](O[C@H]2[C@H](O)[C@@H](O)[C@H](OC[C@H]3O[C@H](OC(=O)[C@]45CC[C@@]6(C)C(=CC[C@H]7C6(C)CC[C@@H]6C(C)(C)[C@@H](O[C@@H]8OC[C@@H](O)[C@H](O)[C@H]8O[C@H]8O[C@H](C)[C@@H](O)[C@H](O[C@@H]9OC[C@H](O[C@@H]%10O[C@H](CO[C@H]%11O[C@@H](CO[C@H]%12O[C@@H](C)[C@@H](O)[C@H](O)[C@H]%12O)[C@H](O)[C@H](O)[C@H]%11O)[C@H](O)[C@@H](O)[C@@H]%10O)[C@@H](O)[C@@H]9O)[C@@H]8O)CC[C@@]67C)[C@@H]4CC(C)(C)[C@@H](O)C5)[C@@H](O)[C@H](O)[C@H]3O)O[C@H]2CO)[C@@H](O)[C@@H](O)[C@@H]1O
REMARK SMILES IDX 47 1 48 2 50 3 49 4 52 5 54 6 97 7 51 8 53 9 55 11 56 12
REMARK SMILES IDX 57 13 95 14 58 15 93 16 59 17 96 18 94 20 60 22 61 23 62 24
REMARK SMILES IDX 91 25 63 26 89 27 87 28 92 29 64 31 65 32 66 33 67 34 85 35
REMARK SMILES IDX 68 36 83 37 81 38 86 39 69 41 70 42 71 43 72 44 79 45 73 46
REMARK SMILES IDX 77 47 75 48 74 49 80 50 78 52 76 54 84 56 82 58 90 60 88 62
REMARK SMILES IDX 98 64 46 66 39 67 44 68 40 69 42 70 41 71 38 72 37 73 99 74
REMARK SMILES IDX 34 75 100 76 33 77 101 78 32 79 28 80 31 81 27 82 29 83
REMARK SMILES IDX 26 84 23 85 25 86 22 87 103 88 21 89 104 90 20 91 105 92
REMARK SMILES IDX 110 93 108 94 35 95 36 96 102 97 30 98 24 99 106 100 107 101
REMARK SMILES IDX 18 102 19 103 17 104 16 105 15 106 111 107 14 108 113 109
REMARK SMILES IDX 115 110 112 111 13 113 12 114 11 115 117 116 9 117 118 118
REMARK SMILES IDX 7 119 6 120 10 121 119 123 120 124 8 126 5 128 4 129 3 130
REMARK SMILES IDX 121 131 2 132 123 133 125 134 1 135 122 136 124 138 126 140
REMARK SMILES IDX 114 142 116 144 109 146 45 148 43 150
REMARK H PARENT 53 10 96 19 94 21 92 30 86 40 80 51 78 53 76 55 84 57 82 59
REMARK H PARENT 90 61 88 63 98 65 112 112 10 122 120 125 8 127 122 137 124 139
REMARK H PARENT 126 141 114 143 116 145 109 147 45 149 43 151
ROOT
ATOM      1  O   UNL     1       1.151  -5.181   0.001  1.00  0.00    -0.338 OA
ENDROOT
BRANCH   1   2
ATOM      2  C   UNL     1       0.494  -5.763  -1.182  1.00  0.00     0.282 C 
ATOM      3  C   UNL     1       0.489  -7.659   0.000  1.00  0.00     0.150 C 
ATOM      4  O   UNL     1       0.906  -7.092  -1.224  1.00  0.00    -0.344 OA
ATOM      5  C   UNL     1      -1.096  -7.761   0.172  1.00  0.00     0.175 C 
ATOM      6  C   UNL     1      -1.904  -6.513  -0.164  1.00  0.00     0.186 C 
ATOM      7  C   UNL     1      -1.151  -5.797  -1.343  1.00  0.00     0.202 C 
ATOM      8  C   UNL     1       0.750  -9.136   0.000  1.00  0.00     0.041 C 
BRANCH   5   9
ATOM      9  O   UNL     1      -1.391  -8.146   1.494  1.00  0.00    -0.388 OA
ATOM     10  H   UNL     1      -1.262  -9.129   1.560  1.00  0.00     0.211 HD
ENDBRANCH   5   9
BRANCH   6  11
ATOM     11  O   UNL     1      -3.400  -6.705  -0.263  1.00  0.00    -0.341 OA
BRANCH  11  12
ATOM     12  C   UNL     1      -4.013  -7.903  -0.888  1.00  0.00     0.282 C 
ATOM     13  O   UNL     1      -5.040  -7.587  -1.853  1.00  0.00    -0.347 OA
ATOM     14  C   UNL     1      -4.490  -9.087   0.056  1.00  0.00     0.202 C 
ATOM     15  C   UNL     1      -6.439  -7.775  -1.500  1.00  0.00     0.198 C 
ATOM     16  C   UNL     1      -6.017  -9.182   0.428  1.00  0.00     0.179 C 
ATOM     17  C   UNL     1      -6.878  -9.160  -0.873  1.00  0.00     0.179 C 
BRANCH  14  18
ATOM     18  O   UNL     1      -3.705  -9.199   1.203  1.00  0.00    -0.385 OA
ATOM     19  H   UNL     1      -3.951  -8.437   1.789  1.00  0.00     0.211 HD
ENDBRANCH  14  18
BRANCH  16  20
ATOM     20  O   UNL     1      -6.235 -10.347   1.181  1.00  0.00    -0.387 OA
ATOM     21  H   UNL     1      -6.002 -11.124   0.607  1.00  0.00     0.211 HD
ENDBRANCH  16  20
BRANCH  17  22
ATOM     22  O   UNL     1      -8.362  -9.242  -0.802  1.00  0.00    -0.341 OA
BRANCH  22  23
ATOM     23  C   UNL     1      -9.076 -10.172   0.092  1.00  0.00     0.282 C 
ATOM     24  O   UNL     1     -10.190 -10.912  -0.588  1.00  0.00    -0.341 OA
ATOM     25  C   UNL     1      -9.604  -9.310   1.288  1.00  0.00     0.202 C 
ATOM     26  C   UNL     1     -11.453 -10.982   0.171  1.00  0.00     0.178 C 
ATOM     27  C   UNL     1     -10.810  -8.530   0.754  1.00  0.00     0.179 C 
ATOM     28  C   UNL     1     -11.947  -9.513   0.392  1.00  0.00     0.177 C 
BRANCH  25  29
ATOM     29  O   UNL     1      -8.605  -8.435   1.737  1.00  0.00    -0.385 OA
ATOM     30  H   UNL     1      -8.904  -8.073   2.611  1.00  0.00     0.211 HD
ENDBRANCH  25  29
BRANCH  26  31
ATOM     31  C   UNL     1     -12.755 -11.827  -0.391  1.00  0.00     0.198 C 
BRANCH  31  32
ATOM     32  O   UNL     1     -12.879 -13.283  -0.258  1.00  0.00    -0.347 OA
BRANCH  32  33
ATOM     33  C   UNL     1     -13.955 -13.787   0.632  1.00  0.00     0.282 C 
ATOM     34  O   UNL     1     -15.136 -14.333  -0.091  1.00  0.00    -0.341 OA
ATOM     35  C   UNL     1     -13.315 -14.871   1.559  1.00  0.00     0.202 C 
ATOM     36  C   UNL     1     -15.820 -15.436   0.608  1.00  0.00     0.178 C 
ATOM     37  C   UNL     1     -13.374 -16.208   0.805  1.00  0.00     0.179 C 
ATOM     38  C   UNL     1     -14.861 -16.655   0.647  1.00  0.00     0.177 C 
BRANCH  35  39
ATOM     39  O   UNL     1     -11.996 -14.504   1.877  1.00  0.00    -0.385 OA
ATOM     40  H   UNL     1     -11.732 -15.033   2.675  1.00  0.00     0.211 HD
ENDBRANCH  35  39
BRANCH  36  41
ATOM     41  C   UNL     1     -17.289 -15.867   0.044  1.00  0.00     0.198 C 
BRANCH  41  42
ATOM     42  O   UNL     1     -18.034 -16.925   0.772  1.00  0.00    -0.347 OA
BRANCH  42  43
ATOM     43  C   UNL     1     -19.482 -16.951   0.476  1.00  0.00     0.281 C 
ATOM     44  O   UNL     1     -20.242 -18.204   0.765  1.00  0.00    -0.344 OA
ATOM     45  C   UNL     1     -20.195 -15.794   1.223  1.00  0.00     0.202 C 
ATOM     46  C   UNL     1     -21.522 -18.211   0.000  1.00  0.00     0.150 C 
ATOM     47  C   UNL     1     -21.725 -15.999   1.246  1.00  0.00     0.179 C 
ATOM     48  C   UNL     1     -22.154 -16.737  -0.022  1.00  0.00     0.174 C 
ATOM     49  C   UNL     1     -22.671 -19.175   0.000  1.00  0.00     0.041 C 
BRANCH  45  50
ATOM     50  O   UNL     1     -19.724 -15.692   2.542  1.00  0.00    -0.385 OA
ATOM     51  H   UNL     1     -19.819 -14.740   2.808  1.00  0.00     0.211 HD
ENDBRANCH  45  50
BRANCH  47  52
ATOM     52  O   UNL     1     -22.373 -14.758   1.349  1.00  0.00    -0.387 OA
ATOM     53  H   UNL     1     -22.335 -14.492   2.304  1.00  0.00     0.211 HD
ENDBRANCH  47  52
BRANCH  48  54
ATOM     54  O   UNL     1     -23.564 -16.736  -0.114  1.00  0.00    -0.388 OA
ATOM     55  H   UNL     1     -23.828 -15.942  -0.648  1.00  0.00     0.211 HD
ENDBRANCH  48  54
ENDBRANCH  42  43
ENDBRANCH  41  42
ENDBRANCH  36  41
BRANCH  37  56
ATOM     56  O   UNL     1     -12.624 -17.200   1.456  1.00  0.00    -0.387 OA
ATOM     57  H   UNL     1     -12.461 -17.915   0.786  1.00  0.00     0.211 HD
ENDBRANCH  37  56
BRANCH  38  58
ATOM     58  O   UNL     1     -15.238 -17.477   1.726  1.00  0.00    -0.387 OA
ATOM     59  H   UNL     1     -15.773 -18.225   1.353  1.00  0.00     0.211 HD
ENDBRANCH  38  58
ENDBRANCH  32  33
ENDBRANCH  31  32
ENDBRANCH  26  31
BRANCH  27  60
ATOM     60  O   UNL     1     -11.267  -7.584   1.686  1.00  0.00    -0.387 OA
ATOM     61  H   UNL     1     -11.787  -6.910   1.175  1.00  0.00     0.211 HD
ENDBRANCH  27  60
BRANCH  28  62
ATOM     62  O   UNL     1     -12.611  -9.029  -0.750  1.00  0.00    -0.387 OA
ATOM     63  H   UNL     1     -13.270  -8.355  -0.439  1.00  0.00     0.211 HD
ENDBRANCH  28  62
ENDBRANCH  22  23
ENDBRANCH  17  22
ENDBRANCH  11  12
ENDBRANCH   6  11
BRANCH   7  64
ATOM     64  O   UNL     1      -1.455  -6.491  -2.526  1.00  0.00    -0.385 OA
ATOM     65  H   UNL     1      -1.233  -5.884  -3.280  1.00  0.00     0.211 HD
ENDBRANCH   7  64
ENDBRANCH   1   2
BRANCH   1  66
ATOM     66  C   UNL     1       2.068  -4.084  -0.210  1.00  0.00     0.209 C 
ATOM     67  C   UNL     1       2.223  -3.120   1.093  1.00  0.00     0.282 C 
ATOM     68  C   UNL     1       3.453  -4.694  -0.518  1.00  0.00     0.179 C 
ATOM     69  O   UNL     1       3.257  -2.170   0.890  1.00  0.00    -0.347 OA
ATOM     70  C   UNL     1       4.521  -3.596  -0.601  1.00  0.00     0.171 C 
ATOM     71  C   UNL     1       4.514  -2.786   0.700  1.00  0.00     0.198 C 
BRANCH  67  72
ATOM     72  O   UNL     1       1.065  -2.479   1.738  1.00  0.00    -0.346 OA
BRANCH  72  73
ATOM     73  C   UNL     1       0.397  -1.235   1.234  1.00  0.00     0.127 C 
ATOM     74  C   UNL     1       1.501  -0.134   1.086  1.00  0.00     0.033 C 
ATOM     75  C   UNL     1      -0.750  -1.299   0.000  1.00  0.00    -0.006 C 
ATOM     76  C   UNL     1       0.966   1.282   1.095  1.00  0.00     0.010 C 
ATOM     77  C   UNL     1      -0.140   0.197  -1.135  1.00  0.00     0.003 C 
ATOM     78  C   UNL     1       0.149   1.669  -0.163  1.00  0.00    -0.025 C 
ATOM     79  C   UNL     1      -1.264   0.993  -2.212  1.00  0.00     0.005 C 
ATOM     80  C   UNL     1      -1.277   2.707   0.526  1.00  0.00     0.006 C 
ATOM     81  C   UNL     1      -2.339   2.366  -1.652  1.00  0.00     0.008 C 
ATOM     82  C   UNL     1      -0.779   4.096   0.709  1.00  0.00     0.032 C 
ATOM     83  C   UNL     1      -3.000   2.598  -0.000  1.00  0.00    -0.020 C 
ATOM     84  C   UNL     1      -1.780   5.050   1.209  1.00  0.00    -0.027 C 
ATOM     85  C   UNL     1      -3.750   3.897   0.000  1.00  0.00    -0.006 C 
ATOM     86  C   UNL     1      -3.011   5.115   0.533  1.00  0.00    -0.063 C 
ATOM     87  C   UNL     1      -5.126   4.307   0.588  1.00  0.00     0.013 C 
ATOM     88  C   UNL     1      -3.750   6.495   0.000  1.00  0.00     0.033 C 
ATOM     89  C   UNL     1      -5.478   5.118  -0.598  1.00  0.00     0.020 C 
ATOM     90  C   UNL     1      -2.952   7.812   0.064  1.00  0.00     0.018 C 
ATOM     91  C   UNL     1      -5.250   6.495   0.000  1.00  0.00     0.077 C 
ATOM     92  C   UNL     1      -3.750   9.093   0.000  1.00  0.00    -0.009 C 
ATOM     93  C   UNL     1      -5.091   7.295  -1.433  1.00  0.00     0.051 C 
ATOM     94  C   UNL     1      -4.687   8.756  -1.279  1.00  0.00     0.121 C 
ATOM     95  C   UNL     1      -0.489  -2.776   0.000  1.00  0.00     0.014 C 
ATOM     96  C   UNL     1      -2.159  -1.812   0.000  1.00  0.00     0.014 C 
ATOM     97  C   UNL     1       1.067   2.531  -1.077  1.00  0.00     0.012 C 
ATOM     98  C   UNL     1      -2.250   1.299   0.000  1.00  0.00     0.012 C 
ATOM     99  C   UNL     1      -4.500   2.598   0.000  1.00  0.00     0.017 C 
ATOM    100  C   UNL     1      -4.011  10.570  -0.000  1.00  0.00     0.014 C 
ATOM    101  C   UNL     1      -2.341   9.606   0.000  1.00  0.00     0.014 C 
BRANCH  91 102
ATOM    102  C   UNL     1      -6.750   6.495   0.000  1.00  0.00     0.315 C 
ATOM    103  O   UNL     1      -7.356   5.881   0.884  1.00  0.00    -0.252 OA
BRANCH 102 104
ATOM    104  O   UNL     1      -7.425   7.583  -0.533  1.00  0.00    -0.432 OA
BRANCH 104 105
ATOM    105  C   UNL     1      -8.627   8.150  -0.114  1.00  0.00     0.342 C 
ATOM    106  O   UNL     1      -8.436   9.537   0.261  1.00  0.00    -0.332 OA
ATOM    107  C   UNL     1      -9.724   7.913  -1.197  1.00  0.00     0.214 C 
ATOM    108  C   UNL     1      -8.979  10.467  -0.676  1.00  0.00     0.180 C 
ATOM    109  C   UNL     1     -10.931   8.783  -0.815  1.00  0.00     0.180 C 
ATOM    110  C   UNL     1     -10.526  10.282  -0.818  1.00  0.00     0.177 C 
BRANCH 107 111
ATOM    111  O   UNL     1     -10.059   6.549  -1.282  1.00  0.00    -0.384 OA
ATOM    112  H   UNL     1     -10.439   6.274  -0.406  1.00  0.00     0.211 HD
ENDBRANCH 107 111
BRANCH 108 113
ATOM    113  C   UNL     1      -8.601  11.939  -0.320  1.00  0.00     0.198 C 
BRANCH 113 114
ATOM    114  O   UNL     1      -8.926  12.821  -1.393  1.00  0.00    -0.347 OA
BRANCH 114 115
ATOM    115  C   UNL     1      -9.313  14.148  -1.008  1.00  0.00     0.282 C 
ATOM    116  O   UNL     1      -9.730  14.794  -2.208  1.00  0.00    -0.341 OA
ATOM    117  C   UNL     1      -8.143  14.960  -0.398  1.00  0.00     0.202 C 
ATOM    118  C   UNL     1     -10.198  16.133  -2.042  1.00  0.00     0.178 C 
ATOM    119  C   UNL     1      -8.545  16.438  -0.134  1.00  0.00     0.180 C 
ATOM    120  C   UNL     1      -9.096  17.076  -1.444  1.00  0.00     0.184 C 
BRANCH 117 121
ATOM    121  O   UNL     1      -7.719  14.378   0.809  1.00  0.00    -0.385 OA
ATOM    122  H   UNL     1      -6.733  14.481   0.854  1.00  0.00     0.211 HD
ENDBRANCH 117 121
BRANCH 118 123
ATOM    123  C   UNL     1     -11.582  16.146  -1.361  1.00  0.00     0.191 C 
BRANCH 123 124
ATOM    124  O   UNL     1     -12.216  17.374  -1.579  1.00  0.00    -0.394 OA
ATOM    125  H   UNL     1     -13.098  17.315  -1.125  1.00  0.00     0.210 HD
ENDBRANCH 123 124
ENDBRANCH 118 123
BRANCH 119 126
ATOM    126  O   UNL     1      -7.387  17.116   0.285  1.00  0.00    -0.387 OA
ATOM    127  H   UNL     1      -7.325  17.002   1.270  1.00  0.00     0.211 HD
ENDBRANCH 119 126
BRANCH 120 128
ATOM    128  O   UNL     1      -9.548  18.457  -1.461  1.00  0.00    -0.341 OA
BRANCH 128 129
ATOM    129  C   UNL     1      -9.435  19.294  -0.298  1.00  0.00     0.282 C 
ATOM    130  O   UNL     1      -8.909  20.589  -0.724  1.00  0.00    -0.344 OA
ATOM    131  C   UNL     1     -10.855  19.365   0.372  1.00  0.00     0.202 C 
ATOM    132  C   UNL     1      -9.489  21.675   0.000  1.00  0.00     0.150 C 
ATOM    133  C   UNL     1     -11.666  20.401  -0.431  1.00  0.00     0.179 C 
ATOM    134  C   UNL     1     -11.003  21.804  -0.324  1.00  0.00     0.174 C 
ATOM    135  C   UNL     1      -8.739  22.974   0.000  1.00  0.00     0.041 C 
BRANCH 131 136
ATOM    136  O   UNL     1     -10.774  19.727   1.730  1.00  0.00    -0.385 OA
ATOM    137  H   UNL     1     -11.663  19.546   2.134  1.00  0.00     0.211 HD
ENDBRANCH 131 136
BRANCH 133 138
ATOM    138  O   UNL     1     -13.000  20.443   0.002  1.00  0.00    -0.387 OA
ATOM    139  H   UNL     1     -13.513  20.913  -0.705  1.00  0.00     0.211 HD
ENDBRANCH 133 138
BRANCH 134 140
ATOM    140  O   UNL     1     -11.221  22.502  -1.523  1.00  0.00    -0.388 OA
ATOM    141  H   UNL     1     -11.271  23.466  -1.292  1.00  0.00     0.211 HD
ENDBRANCH 134 140
ENDBRANCH 128 129
ENDBRANCH 120 128
ENDBRANCH 114 115
ENDBRANCH 113 114
ENDBRANCH 108 113
BRANCH 109 142
ATOM    142  O   UNL     1     -12.055   8.554  -1.624  1.00  0.00    -0.387 OA
ATOM    143  H   UNL     1     -11.775   8.700  -2.565  1.00  0.00     0.211 HD
ENDBRANCH 109 142
BRANCH 110 144
ATOM    144  O   UNL     1     -11.254  10.963   0.174  1.00  0.00    -0.387 OA
ATOM    145  H   UNL     1     -10.922  10.647   1.056  1.00  0.00     0.211 HD
ENDBRANCH 110 144
ENDBRANCH 104 105
ENDBRANCH 102 104
ENDBRANCH  91 102
BRANCH  94 146
ATOM    146  O   UNL     1      -4.117   9.194  -2.497  1.00  0.00    -0.393 OA
ATOM    147  H   UNL     1      -4.855   9.543  -3.063  1.00  0.00     0.210 HD
ENDBRANCH  94 146
ENDBRANCH  72  73
ENDBRANCH  67  72
BRANCH  68 148
ATOM    148  O   UNL     1       3.410  -5.410  -1.726  1.00  0.00    -0.387 OA
ATOM    149  H   UNL     1       4.072  -6.146  -1.653  1.00  0.00     0.211 HD
ENDBRANCH  68 148
BRANCH  70 150
ATOM    150  O   UNL     1       5.793  -4.143  -0.841  1.00  0.00    -0.388 OA
ATOM    151  H   UNL     1       6.011  -4.745  -0.081  1.00  0.00     0.211 HD
ENDBRANCH  70 150
ENDBRANCH   1  66
TORSDOF 48
