REMARK SMILES CNC(=O)C(C)(C)N1CCC[C@H]1C(=O)N(C)Cc1ccccc1
REMARK SMILES IDX 8 1 9 2 10 3 11 4 12 5 5 6 6 7 7 8 3 9 2 10 4 11 1 12 13 14
REMARK SMILES IDX 14 15 15 16 16 17 17 18 18 19 19 20 23 21 20 22 22 23 21 24
REMARK H PARENT 2 13
ROOT
ATOM      1  N   UNL     1      -1.387   0.165  -1.533  1.00  0.00    -0.278 NA
ATOM      2  C   UNL     1      -1.039  -0.436  -2.845  1.00  0.00     0.086 C 
ATOM      3  C   UNL     1       0.469  -0.628  -2.823  1.00  0.00     0.018 C 
ATOM      4  C   UNL     1       0.663  -1.070  -1.390  1.00  0.00     0.030 C 
ATOM      5  C   UNL     1      -0.220  -0.067  -0.642  1.00  0.00     0.147 C 
ENDROOT
BRANCH   1   6
ATOM      6  C   UNL     1      -2.737  -0.172  -0.958  1.00  0.00     0.095 C 
ATOM      7  C   UNL     1      -3.830   0.234  -1.969  1.00  0.00     0.039 C 
ATOM      8  C   UNL     1      -2.867  -1.694  -0.644  1.00  0.00     0.039 C 
BRANCH   6   9
ATOM      9  C   UNL     1      -2.984   0.625   0.338  1.00  0.00     0.239 C 
ATOM     10  N   UNL     1      -4.125   0.451   1.068  1.00  0.00    -0.358 N 
ATOM     11  O   UNL     1      -2.149   1.429   0.730  1.00  0.00    -0.273 OA
ATOM     12  C   UNL     1      -4.343   1.152   2.314  1.00  0.00     0.142 C 
ATOM     13  H   UNL     1      -4.851  -0.205   0.751  1.00  0.00     0.163 HD
ENDBRANCH   6   9
ENDBRANCH   1   6
BRANCH   5  14
ATOM     14  C   UNL     1       0.533   1.260  -0.445  1.00  0.00     0.239 C 
ATOM     15  O   UNL     1       0.317   2.141  -1.269  1.00  0.00    -0.273 OA
BRANCH  14  16
ATOM     16  N   UNL     1       1.443   1.495   0.573  1.00  0.00    -0.340 N 
ATOM     17  C   UNL     1       2.177   2.760   0.605  1.00  0.00     0.147 C 
BRANCH  16  18
ATOM     18  C   UNL     1       1.636   0.568   1.699  1.00  0.00     0.154 C 
BRANCH  18  19
ATOM     19  C   UNL     1       2.963  -0.151   1.692  1.00  0.00    -0.029 A 
ATOM     20  C   UNL     1       4.173   0.512   1.961  1.00  0.00     0.005 A 
ATOM     21  C   UNL     1       2.989  -1.538   1.454  1.00  0.00     0.005 A 
ATOM     22  C   UNL     1       5.380  -0.195   1.969  1.00  0.00     0.000 A 
ATOM     23  C   UNL     1       4.194  -2.240   1.460  1.00  0.00     0.000 A 
ATOM     24  C   UNL     1       5.390  -1.569   1.714  1.00  0.00     0.000 A 
ENDBRANCH  18  19
ENDBRANCH  16  18
ENDBRANCH  14  16
ENDBRANCH   5  14
TORSDOF 6
