REMARK SMILES C[C][C](C)CCCCCCCCCCC(=O)OC[C@@H](COC(=O)CCCCCCCCCCCCC[C]C(C)C)OC(=O)CCCCCCCCCCCC[C]CC
REMARK SMILES IDX 20 1 19 2 41 3 42 4 43 5 44 6 45 7 46 8 47 9 48 10 49 11
REMARK SMILES IDX 50 12 51 13 52 14 53 15 54 16 55 17 56 18 57 19 58 20 18 21
REMARK SMILES IDX 17 22 15 23 16 24 14 25 13 26 12 27 11 28 10 29 9 30 8 31
REMARK SMILES IDX 7 32 6 33 5 34 3 35 4 36 2 37 1 38 21 39 22 40 23 41 24 42
REMARK SMILES IDX 25 43 26 44 27 45 28 46 29 47 30 48 31 49 32 50 33 51 34 52
REMARK SMILES IDX 35 53 36 54 37 55 38 56 39 57 40 58
REMARK H PARENT
ROOT
ATOM      1  C   UNL     1      -2.049  -0.951  -0.000  1.00  0.00     0.281 C 
ENDROOT
BRANCH   1   2
ATOM      2  C   UNL     1      -1.299  -2.250   0.000  1.00  0.00     0.251 C 
BRANCH   2   3
ATOM      3  O   UNL     1      -0.082  -1.474  -0.356  1.00  0.00    -0.455 OA
BRANCH   3   4
ATOM      4  C   UNL     1       0.696  -0.484   0.335  1.00  0.00     0.306 C 
ATOM      5  O   UNL     1       0.610  -0.447   1.554  1.00  0.00    -0.252 OA
BRANCH   4   6
ATOM      6  C   UNL     1       1.482   0.759  -0.368  1.00  0.00     0.123 C 
BRANCH   6   7
ATOM      7  C   UNL     1       2.984   1.266   0.076  1.00  0.00     0.012 C 
BRANCH   7   8
ATOM      8  C   UNL     1       3.663   2.681  -0.492  1.00  0.00     0.001 C 
BRANCH   8   9
ATOM      9  C   UNL     1       5.196   3.000   0.000  1.00  0.00     0.000 C 
BRANCH   9  10
ATOM     10  C   UNL     1       6.495   3.750   0.000  1.00  0.00     0.000 C 
BRANCH  10  11
ATOM     11  C   UNL     1       7.794   4.500   0.000  1.00  0.00     0.000 C 
BRANCH  11  12
ATOM     12  C   UNL     1       9.093   5.250   0.000  1.00  0.00     0.000 C 
BRANCH  12  13
ATOM     13  C   UNL     1      10.392   6.000   0.000  1.00  0.00     0.000 C 
BRANCH  13  14
ATOM     14  C   UNL     1      11.691   6.750   0.000  1.00  0.00     0.000 C 
BRANCH  14  15
ATOM     15  C   UNL     1      13.324   7.092   0.195  1.00  0.00     0.000 C 
BRANCH  15  16
ATOM     16  C   UNL     1      13.960   8.626  -0.180  1.00  0.00     0.001 C 
BRANCH  16  17
ATOM     17  C   UNL     1      15.588   9.000   0.000  1.00  0.00     0.008 C 
BRANCH  17  18
ATOM     18  C   UNL     1      16.887   9.750   0.000  1.00  0.00    -0.018 C 
BRANCH  18  19
ATOM     19  C   UNL     1      18.186  10.500   0.000  1.00  0.00     0.005 C 
ATOM     20  C   UNL     1      19.486  11.250   0.000  1.00  0.00     0.004 C 
ENDBRANCH  18  19
ENDBRANCH  17  18
ENDBRANCH  16  17
ENDBRANCH  15  16
ENDBRANCH  14  15
ENDBRANCH  13  14
ENDBRANCH  12  13
ENDBRANCH  11  12
ENDBRANCH  10  11
ENDBRANCH   9  10
ENDBRANCH   8   9
ENDBRANCH   7   8
ENDBRANCH   6   7
ENDBRANCH   4   6
ENDBRANCH   3   4
ENDBRANCH   2   3
BRANCH   2  21
ATOM     21  C   UNL     1      -0.549  -3.549   0.000  1.00  0.00     0.281 C 
BRANCH  21  22
ATOM     22  O   UNL     1       0.542  -4.201  -0.750  1.00  0.00    -0.462 OA
BRANCH  22  23
ATOM     23  C   UNL     1       1.389  -5.249  -0.195  1.00  0.00     0.305 C 
ATOM     24  O   UNL     1       1.382  -5.362   1.023  1.00  0.00    -0.252 OA
BRANCH  23  25
ATOM     25  C   UNL     1       2.355  -6.359  -0.959  1.00  0.00     0.123 C 
BRANCH  25  26
ATOM     26  C   UNL     1       3.201  -7.446   0.000  1.00  0.00     0.012 C 
BRANCH  26  27
ATOM     27  C   UNL     1       3.951  -8.745   0.000  1.00  0.00     0.001 C 
BRANCH  27  28
ATOM     28  C   UNL     1       4.701 -10.044   0.000  1.00  0.00     0.000 C 
BRANCH  28  29
ATOM     29  C   UNL     1       5.451 -11.343   0.000  1.00  0.00     0.000 C 
BRANCH  29  30
ATOM     30  C   UNL     1       6.201 -12.642   0.000  1.00  0.00     0.000 C 
BRANCH  30  31
ATOM     31  C   UNL     1       6.951 -13.941   0.000  1.00  0.00     0.000 C 
BRANCH  31  32
ATOM     32  C   UNL     1       7.335 -15.551  -0.288  1.00  0.00     0.000 C 
BRANCH  32  33
ATOM     33  C   UNL     1       8.754 -16.252   0.336  1.00  0.00     0.001 C 
BRANCH  33  34
ATOM     34  C   UNL     1       9.201 -17.838   0.000  1.00  0.00     0.008 C 
BRANCH  34  35
ATOM     35  C   UNL     1       9.951 -19.137   0.000  1.00  0.00    -0.020 C 
ATOM     36  C   UNL     1      10.701 -20.436   0.000  1.00  0.00     0.012 C 
BRANCH  35  37
ATOM     37  C   UNL     1      11.250 -18.387   0.000  1.00  0.00    -0.014 C 
ATOM     38  C   UNL     1      12.549 -17.637   0.000  1.00  0.00     0.013 C 
ENDBRANCH  35  37
ENDBRANCH  34  35
ENDBRANCH  33  34
ENDBRANCH  32  33
ENDBRANCH  31  32
ENDBRANCH  30  31
ENDBRANCH  29  30
ENDBRANCH  28  29
ENDBRANCH  27  28
ENDBRANCH  26  27
ENDBRANCH  25  26
ENDBRANCH  23  25
ENDBRANCH  22  23
ENDBRANCH  21  22
ENDBRANCH   2  21
ENDBRANCH   1   2
BRANCH   1  39
ATOM     39  O   UNL     1      -2.444   0.361   0.544  1.00  0.00    -0.462 OA
BRANCH  39  40
ATOM     40  C   UNL     1      -3.720   0.993   0.216  1.00  0.00     0.305 C 
ATOM     41  O   UNL     1      -4.559   0.285  -0.322  1.00  0.00    -0.252 OA
BRANCH  40  42
ATOM     42  C   UNL     1      -4.225   2.548   0.433  1.00  0.00     0.123 C 
BRANCH  42  43
ATOM     43  C   UNL     1      -5.799   2.946   0.000  1.00  0.00     0.012 C 
BRANCH  43  44
ATOM     44  C   UNL     1      -6.549   4.245   0.000  1.00  0.00     0.001 C 
BRANCH  44  45
ATOM     45  C   UNL     1      -7.299   5.544   0.000  1.00  0.00     0.000 C 
BRANCH  45  46
ATOM     46  C   UNL     1      -8.049   6.843   0.000  1.00  0.00     0.000 C 
BRANCH  46  47
ATOM     47  C   UNL     1      -8.799   8.142   0.000  1.00  0.00     0.000 C 
BRANCH  47  48
ATOM     48  C   UNL     1      -9.549   9.441   0.000  1.00  0.00     0.000 C 
BRANCH  48  49
ATOM     49  C   UNL     1     -10.072  10.977   0.440  1.00  0.00     0.000 C 
BRANCH  49  50
ATOM     50  C   UNL     1     -11.312  11.782  -0.407  1.00  0.00     0.000 C 
BRANCH  50  51
ATOM     51  C   UNL     1     -11.799  13.338   0.000  1.00  0.00     0.000 C 
BRANCH  51  52
ATOM     52  C   UNL     1     -12.549  14.637   0.000  1.00  0.00     0.000 C 
BRANCH  52  53
ATOM     53  C   UNL     1     -13.299  15.937   0.000  1.00  0.00     0.001 C 
BRANCH  53  54
ATOM     54  C   UNL     1     -14.049  17.236   0.000  1.00  0.00     0.008 C 
BRANCH  54  55
ATOM     55  C   UNL     1     -14.799  18.535   0.000  1.00  0.00    -0.015 C 
BRANCH  55  56
ATOM     56  C   UNL     1     -15.549  19.834   0.000  1.00  0.00    -0.010 C 
ATOM     57  C   UNL     1     -16.299  21.133   0.000  1.00  0.00     0.008 C 
ATOM     58  C   UNL     1     -16.848  19.084   0.000  1.00  0.00     0.008 C 
ENDBRANCH  55  56
ENDBRANCH  54  55
ENDBRANCH  53  54
ENDBRANCH  52  53
ENDBRANCH  51  52
ENDBRANCH  50  51
ENDBRANCH  49  50
ENDBRANCH  48  49
ENDBRANCH  47  48
ENDBRANCH  46  47
ENDBRANCH  45  46
ENDBRANCH  44  45
ENDBRANCH  43  44
ENDBRANCH  42  43
ENDBRANCH  40  42
ENDBRANCH  39  40
ENDBRANCH   1  39
TORSDOF 49
