REMARK SMILES C=C(C)[C@@H]1CC[C@@]2(COS(=O)(=O)c3ccc(C)cc3)CC[C@]3(C)[C@H](CC[C@@H]4[C@@]5(C)CC[C@@H](OC(C)=O)C(C)(C)[C@H]5CC[C@]43C)[C@@H]12
REMARK SMILES IDX 8 1 7 2 4 3 5 4 45 5 6 6 24 7 22 8 25 9 20 10 21 11 43 12
REMARK SMILES IDX 26 13 42 14 27 15 41 16 28 17 40 18 30 19 37 20 31 21 32 22
REMARK SMILES IDX 23 23 44 24 29 25 38 26 39 27 2 28 1 29 3 30 33 31 34 32
REMARK SMILES IDX 36 33 35 34 9 35 10 36 11 37 12 38 13 39 14 40 19 41 15 42
REMARK SMILES IDX 18 43 16 44 17 45
REMARK H PARENT
ROOT
ATOM      1  C   UNL     1      -4.152  -1.501   1.143  1.00  0.00     0.190 C 
ENDROOT
BRANCH   1   2
ATOM      2  C   UNL     1      -2.993  -1.854   0.148  1.00  0.00    -0.001 C 
ATOM      3  C   UNL     1      -3.106  -0.335  -1.814  1.00  0.00     0.018 C 
ATOM      4  C   UNL     1      -4.226  -1.367  -1.859  1.00  0.00     0.009 C 
ATOM      5  C   UNL     1      -2.399  -0.498  -0.407  1.00  0.00     0.008 C 
ATOM      6  C   UNL     1      -3.569  -2.529  -1.113  1.00  0.00     0.010 C 
ATOM      7  C   UNL     1      -0.844  -0.435  -0.624  1.00  0.00    -0.000 C 
ATOM      8  C   UNL     1       0.005  -1.218   0.425  1.00  0.00    -0.024 C 
ATOM      9  C   UNL     1      -0.386   1.038  -0.722  1.00  0.00     0.005 C 
ATOM     10  C   UNL     1      -1.999  -2.763   0.932  1.00  0.00     0.010 C 
ATOM     11  C   UNL     1      -0.553  -2.688   0.423  1.00  0.00     0.008 C 
ATOM     12  C   UNL     1       1.569  -1.169  -0.021  1.00  0.00    -0.024 C 
ATOM     13  C   UNL     1       1.089   1.150  -1.089  1.00  0.00     0.005 C 
ATOM     14  C   UNL     1       2.479  -1.929   1.016  1.00  0.00     0.008 C 
ATOM     15  C   UNL     1       2.030   0.352  -0.137  1.00  0.00     0.002 C 
ATOM     16  C   UNL     1       3.729  -1.162   1.465  1.00  0.00     0.005 C 
ATOM     17  C   UNL     1       3.584   0.608  -0.445  1.00  0.00    -0.026 C 
ATOM     18  C   UNL     1       4.498  -0.479   0.307  1.00  0.00     0.005 C 
ATOM     19  C   UNL     1       3.969   2.004   0.112  1.00  0.00     0.011 C 
ATOM     20  C   UNL     1       5.939   0.028   0.826  1.00  0.00     0.005 C 
ATOM     21  C   UNL     1       5.459   2.376  -0.095  1.00  0.00     0.046 C 
ATOM     22  C   UNL     1       6.436   1.171  -0.088  1.00  0.00     0.182 C 
ATOM     23  C   UNL     1      -0.202  -0.588   1.859  1.00  0.00     0.012 C 
ATOM     24  C   UNL     1       1.800  -1.904  -1.387  1.00  0.00     0.012 C 
ATOM     25  C   UNL     1       3.840   0.653  -1.996  1.00  0.00     0.012 C 
ATOM     26  C   UNL     1       5.968   0.519   2.309  1.00  0.00     0.015 C 
ATOM     27  C   UNL     1       6.933  -1.160   0.738  1.00  0.00     0.015 C 
BRANCH   3  28
ATOM     28  C   UNL     1      -3.495   1.069  -2.236  1.00  0.00    -0.077 C 
ATOM     29  C   UNL     1      -2.973   1.596  -3.361  1.00  0.00     0.008 C 
ATOM     30  C   UNL     1      -4.466   1.873  -1.409  1.00  0.00     0.039 C 
ENDBRANCH   3  28
BRANCH  22  31
ATOM     31  O   UNL     1       7.697   1.625   0.273  1.00  0.00    -0.462 OA
BRANCH  31  32
ATOM     32  C   UNL     1       8.803   1.625  -0.518  1.00  0.00     0.302 C 
ATOM     33  O   UNL     1       8.761   1.212  -1.669  1.00  0.00    -0.253 OA
ATOM     34  C   UNL     1      10.092   2.151   0.023  1.00  0.00     0.139 C 
ENDBRANCH  31  32
ENDBRANCH  22  31
ENDBRANCH   1   2
BRANCH   1  35
ATOM     35  O   UNL     1      -4.880  -2.640   1.537  1.00  0.00    -0.266 OA
BRANCH  35  36
ATOM     36  S   UNL     1      -6.214  -2.072   2.485  1.00  0.00     0.296 S 
ATOM     37  O   UNL     1      -7.172  -3.268   2.596  1.00  0.00    -0.194 OA
ATOM     38  O   UNL     1      -5.699  -1.955   3.928  1.00  0.00    -0.194 OA
BRANCH  36  39
ATOM     39  C   UNL     1      -7.074  -0.593   1.928  1.00  0.00     0.094 A 
ATOM     40  C   UNL     1      -8.116  -0.692   1.000  1.00  0.00     0.023 A 
ATOM     41  C   UNL     1      -6.661   0.666   2.379  1.00  0.00     0.023 A 
ATOM     42  C   UNL     1      -8.741   0.464   0.523  1.00  0.00     0.005 A 
ATOM     43  C   UNL     1      -7.284   1.823   1.902  1.00  0.00     0.005 A 
ATOM     44  C   UNL     1      -8.325   1.729   0.968  1.00  0.00    -0.051 A 
ATOM     45  C   UNL     1      -8.973   2.979   0.449  1.00  0.00     0.044 C 
ENDBRANCH  36  39
ENDBRANCH  35  36
ENDBRANCH   1  35
TORSDOF 7
