REMARK SMILES CNCN[C@@](O)(CCC(=O)N[C@@H](CS[C@H]1C2=C3[C@@H](CCCCCC14CCCC4)CC(Cc1ccncc1)=C(CNC)[C@H]3C(=O)O2)C(=O)N[C@@H](O)C(=O)O)C(=O)O
REMARK SMILES IDX 12 1 11 2 9 3 10 4 8 6 7 7 5 8 4 9 3 11 2 12 1 13 6 15 54 17
REMARK SMILES IDX 55 18 56 19 13 21 14 22 15 23 16 24 17 25 45 26 18 27 42 28
REMARK SMILES IDX 43 29 29 30 38 31 44 32 30 33 19 34 20 35 21 36 22 37 39 39
REMARK SMILES IDX 40 40 41 41 31 43 32 44 33 45 37 46 34 47 36 48 35 49 24 50
REMARK SMILES IDX 25 51 28 52 26 53 27 54 23 55 46 57 47 58 48 59 49 61 50 62
REMARK SMILES IDX 51 64 52 65 53 66
REMARK H PARENT 11 5 4 10 2 14 6 16 56 20 40 42 48 60 50 63 53 67
REMARK Flexibility Score:  323.900
ROOT
ATOM      1  C   UNL     1       1.323  -0.894  -0.079  1.00  0.00     0.181 C 
ENDROOT
BRANCH   1   2
ATOM      2  N   UNL     1       2.527  -1.677  -0.320  1.00  0.00    -0.344 N 
ATOM      3  C   UNL     1       3.786  -1.174  -0.236  1.00  0.00     0.220 C 
ATOM      4  O   UNL     1       3.969  -0.010   0.094  1.00  0.00    -0.275 OA
ATOM      5  H   UNL     1       2.407  -2.659  -0.615  1.00  0.00     0.164 HD
BRANCH   3   6
ATOM      6  C   UNL     1       4.952  -2.058  -0.598  1.00  0.00     0.105 C 
BRANCH   6   7
ATOM      7  C   UNL     1       6.287  -1.305  -0.509  1.00  0.00     0.074 C 
BRANCH   7   8
ATOM      8  C   UNL     1       7.515  -2.171  -0.889  1.00  0.00     0.217 C 
BRANCH   8   9
ATOM      9  N   UNL     1       8.733  -1.345  -0.694  1.00  0.00    -0.267 NA
ATOM     10  H   UNL     1       8.640  -0.468  -1.259  1.00  0.00     0.127 HD
BRANCH   9  11
ATOM     11  C   UNL     1      10.021  -1.967  -1.063  1.00  0.00     0.168 C 
BRANCH  11  12
ATOM     12  N   UNL     1      10.464  -2.982  -0.097  1.00  0.00    -0.307 NA
ATOM     13  C   UNL     1      10.578  -2.443   1.261  1.00  0.00     0.102 C 
ATOM     14  H   UNL     1       9.844  -3.821  -0.108  1.00  0.00     0.123 HD
ENDBRANCH  11  12
ENDBRANCH   9  11
ENDBRANCH   8   9
BRANCH   8  15
ATOM     15  O   UNL     1       7.551  -3.302  -0.051  1.00  0.00    -0.366 OA
ATOM     16  H   UNL     1       7.559  -2.986   0.890  1.00  0.00     0.213 HD
ENDBRANCH   8  15
BRANCH   8  17
ATOM     17  C   UNL     1       7.395  -2.630  -2.340  1.00  0.00     0.351 C 
ATOM     18  O   UNL     1       7.364  -3.824  -2.601  1.00  0.00    -0.247 OA
BRANCH  17  19
ATOM     19  O   UNL     1       7.322  -1.742  -3.356  1.00  0.00    -0.478 OA
ATOM     20  H   UNL     1       7.341  -0.786  -3.213  1.00  0.00     0.296 HD
ENDBRANCH  17  19
ENDBRANCH   8  17
ENDBRANCH   7   8
ENDBRANCH   6   7
ENDBRANCH   3   6
ENDBRANCH   1   2
BRANCH   1  21
ATOM     21  C   UNL     1       1.277  -0.474   1.418  1.00  0.00     0.105 C 
BRANCH  21  22
ATOM     22  S   UNL     1      -0.402  -0.321   2.134  1.00  0.00    -0.147 SA
BRANCH  22  23
ATOM     23  C   UNL     1      -0.827   1.447   1.867  1.00  0.00     0.119 C 
BRANCH  23  24
ATOM     24  C   UNL     1      -1.682   1.690   0.612  1.00  0.00     0.122 C 
ATOM     25  C   UNL     1      -2.389   0.819  -0.173  1.00  0.00    -0.009 C 
ATOM     26  O   UNL     1      -1.716   2.937   0.082  1.00  0.00    -0.429 OA
ATOM     27  C   UNL     1      -2.764  -0.669  -0.047  1.00  0.00     0.024 C 
ATOM     28  C   UNL     1      -2.756   1.528  -1.444  1.00  0.00     0.156 C 
ATOM     29  C   UNL     1      -2.374   2.910  -1.088  1.00  0.00     0.322 C 
ATOM     30  C   UNL     1      -3.232  -1.139  -1.457  1.00  0.00     0.039 C 
ATOM     31  C   UNL     1      -4.150   1.130  -1.907  1.00  0.00    -0.038 C 
ATOM     32  O   UNL     1      -2.467   3.879  -1.824  1.00  0.00    -0.251 OA
ATOM     33  C   UNL     1      -4.366  -0.229  -1.968  1.00  0.00    -0.064 C 
BRANCH  27  34
ATOM     34  C   UNL     1      -3.935  -0.985   0.953  1.00  0.00     0.008 C 
BRANCH  34  35
ATOM     35  C   UNL     1      -3.805  -0.515   2.404  1.00  0.00     0.001 C 
BRANCH  35  36
ATOM     36  C   UNL     1      -4.141   0.981   2.563  1.00  0.00     0.000 C 
BRANCH  36  37
ATOM     37  C   UNL     1      -3.699   1.559   3.894  1.00  0.00     0.001 CG0
ATOM     38  G   UNL     1      -2.184   1.478   4.185  1.00  0.00     0.000 G0
ENDBRANCH  36  37
ENDBRANCH  35  36
ENDBRANCH  34  35
ENDBRANCH  27  34
BRANCH  31  39
ATOM     39  C   UNL     1      -5.150   2.202  -2.308  1.00  0.00     0.113 C 
BRANCH  39  40
ATOM     40  N   UNL     1      -5.397   3.136  -1.201  1.00  0.00    -0.316 NA
ATOM     41  C   UNL     1      -6.233   2.535  -0.161  1.00  0.00     0.101 C 
ATOM     42  H   UNL     1      -5.908   3.969  -1.575  1.00  0.00     0.122 HD
ENDBRANCH  39  40
ENDBRANCH  31  39
BRANCH  33  43
ATOM     43  C   UNL     1      -5.614  -0.914  -2.509  1.00  0.00     0.066 C 
BRANCH  43  44
ATOM     44  C   UNL     1      -6.325  -1.743  -1.470  1.00  0.00    -0.041 A 
ATOM     45  C   UNL     1      -6.130  -3.132  -1.401  1.00  0.00     0.024 A 
ATOM     46  C   UNL     1      -7.207  -1.136  -0.566  1.00  0.00     0.024 A 
ATOM     47  C   UNL     1      -6.798  -3.874  -0.424  1.00  0.00     0.111 A 
ATOM     48  C   UNL     1      -7.866  -1.917   0.386  1.00  0.00     0.111 A 
ATOM     49  N   UNL     1      -7.646  -3.257   0.440  1.00  0.00    -0.265 NA
ENDBRANCH  43  44
ENDBRANCH  33  43
ENDBRANCH  23  24
BRANCH  23  50
ATOM     50  C   UNL     1      -1.152   2.206   3.239  1.00  0.00    -0.011 C 
ATOM     51  C   UNL     1      -1.494   3.703   3.068  1.00  0.00     0.008 C 
ATOM     52  C   UNL     1       0.176   2.375   4.027  1.00  0.00     0.008 C 
ATOM     53  C   UNL     1      -0.178   4.343   2.631  1.00  0.00     0.001 C 
ATOM     54  C   UNL     1       0.915   3.548   3.363  1.00  0.00     0.001 C 
BRANCH  50  55
ATOM     55  C   UNL     1      -2.184   1.478   4.185  1.00  0.00     0.008 CG0
ATOM     56  G   UNL     1      -3.699   1.559   3.894  1.00  0.00     0.000 G0
ENDBRANCH  50  55
ENDBRANCH  23  50
ENDBRANCH  22  23
ENDBRANCH  21  22
ENDBRANCH   1  21
BRANCH   1  57
ATOM     57  C   UNL     1       1.285   0.276  -1.064  1.00  0.00     0.245 C 
ATOM     58  O   UNL     1       0.925   1.379  -0.689  1.00  0.00    -0.273 OA
ATOM     59  N   UNL     1       1.798   0.124  -2.326  1.00  0.00    -0.320 N 
ATOM     60  H   UNL     1       2.172  -0.794  -2.609  1.00  0.00     0.166 HD
BRANCH  59  61
ATOM     61  C   UNL     1       1.956   1.225  -3.265  1.00  0.00     0.324 C 
BRANCH  61  62
ATOM     62  O   UNL     1       3.322   1.541  -3.399  1.00  0.00    -0.364 OA
ATOM     63  H   UNL     1       3.814   0.701  -3.598  1.00  0.00     0.213 HD
ENDBRANCH  61  62
BRANCH  61  64
ATOM     64  C   UNL     1       1.356   0.867  -4.602  1.00  0.00     0.353 C 
ATOM     65  O   UNL     1       2.049   0.860  -5.608  1.00  0.00    -0.247 OA
BRANCH  64  66
ATOM     66  O   UNL     1       0.048   0.551  -4.703  1.00  0.00    -0.478 OA
ATOM     67  H   UNL     1      -0.527   0.538  -3.928  1.00  0.00     0.296 HD
ENDBRANCH  64  66
ENDBRANCH  61  64
ENDBRANCH  59  61
ENDBRANCH   1  57
TORSDOF 22
