REMARK SMILES COc1ccc(CN2C(=O)[C@@H]3[C@@H]([C@H](C)O)N[C@]4(C(=O)Nc5ccc(Cl)cc54)[C@@H]3C2=O)cc1
REMARK SMILES IDX 8 1 9 2 10 3 11 4 12 5 16 6 17 7 18 8 19 9 20 10 21 11 22 12
REMARK SMILES IDX 23 13 24 14 25 15 26 16 27 17 28 18 29 19 30 20 7 23 6 24
REMARK SMILES IDX 3 25 4 26 32 27 5 28 31 29 2 30 1 31 13 32 14 33 15 34
REMARK H PARENT 16 21 20 22 15 35
ROOT
ATOM      1  N   UNL     1       1.144   0.609   0.922  1.00  0.00    -0.277 N 
ATOM      2  C   UNL     1       0.581   1.249  -0.122  1.00  0.00     0.235 C 
ATOM      3  O   UNL     1       1.133   2.156  -0.728  1.00  0.00    -0.274 OA
ATOM      4  C   UNL     1      -0.869   0.878  -0.270  1.00  0.00     0.114 C 
ATOM      5  C   UNL     1      -1.745   1.875   0.560  1.00  0.00     0.096 C 
ATOM      6  N   UNL     1      -2.634   1.081   1.430  1.00  0.00    -0.293 NA
ATOM      7  C   UNL     1      -2.354  -0.331   1.181  1.00  0.00     0.139 C 
ATOM      8  C   UNL     1      -2.540  -1.181   2.423  1.00  0.00     0.250 C 
ATOM      9  O   UNL     1      -1.919  -1.035   3.464  1.00  0.00    -0.272 OA
ATOM     10  N   UNL     1      -3.488  -2.125   2.276  1.00  0.00    -0.324 N 
ATOM     11  C   UNL     1      -4.027  -1.993   0.993  1.00  0.00     0.047 A 
ATOM     12  C   UNL     1      -5.051  -2.760   0.442  1.00  0.00     0.028 A 
ATOM     13  C   UNL     1      -5.474  -2.463  -0.862  1.00  0.00     0.022 A 
ATOM     14  C   UNL     1      -4.870  -1.413  -1.582  1.00  0.00     0.041 A 
ATOM     15  Cl  UNL     1      -5.414  -1.046  -3.209  1.00  0.00    -0.084 Cl
ATOM     16  C   UNL     1      -3.837  -0.656  -1.003  1.00  0.00     0.029 A 
ATOM     17  C   UNL     1      -3.423  -0.965   0.299  1.00  0.00     0.007 A 
ATOM     18  C   UNL     1      -0.960  -0.411   0.549  1.00  0.00     0.127 C 
ATOM     19  C   UNL     1       0.271  -0.295   1.410  1.00  0.00     0.236 C 
ATOM     20  O   UNL     1       0.545  -1.053   2.329  1.00  0.00    -0.274 OA
ATOM     21  H   UNL     1      -3.652   1.315   1.352  1.00  0.00     0.124 HD
ATOM     22  H   UNL     1      -3.777  -2.808   2.992  1.00  0.00     0.170 HD
ENDROOT
BRANCH   1  23
ATOM     23  C   UNL     1       2.474   0.865   1.454  1.00  0.00     0.164 C 
BRANCH  23  24
ATOM     24  C   UNL     1       3.545   0.289   0.564  1.00  0.00    -0.028 A 
ATOM     25  C   UNL     1       5.601  -0.847  -0.998  1.00  0.00     0.118 A 
ATOM     26  C   UNL     1       4.609  -1.663  -0.421  1.00  0.00     0.047 A 
ATOM     27  C   UNL     1       5.543   0.539  -0.796  1.00  0.00     0.047 A 
ATOM     28  C   UNL     1       3.592  -1.097   0.350  1.00  0.00     0.009 A 
ATOM     29  C   UNL     1       4.525   1.106  -0.019  1.00  0.00     0.009 A 
BRANCH  25  30
ATOM     30  O   UNL     1       6.625  -1.352  -1.735  1.00  0.00    -0.497 OA
ATOM     31  C   UNL     1       6.868  -2.692  -1.959  1.00  0.00     0.278 C 
ENDBRANCH  25  30
ENDBRANCH  23  24
ENDBRANCH   1  23
BRANCH   5  32
ATOM     32  C   UNL     1      -2.528   2.911  -0.291  1.00  0.00     0.129 C 
ATOM     33  C   UNL     1      -1.622   3.789  -1.159  1.00  0.00     0.040 C 
BRANCH  32  34
ATOM     34  O   UNL     1      -3.322   3.726   0.536  1.00  0.00    -0.392 OA
ATOM     35  H   UNL     1      -2.715   4.207   1.158  1.00  0.00     0.211 HD
ENDBRANCH  32  34
ENDBRANCH   5  32
TORSDOF 5
