REMARK SMILES COc1cccc(S(=O)(=O)N2CC3(CC(=O)N(CC4CC4)O3)C2)c1
REMARK SMILES IDX 8 1 9 2 10 3 7 4 3 5 4 6 24 7 5 8 6 9 2 10 1 11 11 12 12 13
REMARK SMILES IDX 23 14 13 15 14 16 22 17 15 18 17 19 16 20 18 21 19 22 20 23
REMARK SMILES IDX 21 24
REMARK H PARENT
ROOT
ATOM      1  S   UNL     1       1.638  -0.587   1.344  1.00  0.00     0.243 S 
ATOM      2  O   UNL     1       1.344  -2.094   1.433  1.00  0.00    -0.207 OA
ATOM      3  O   UNL     1       1.737  -0.182   2.823  1.00  0.00    -0.207 OA
ENDROOT
BRANCH   1   4
ATOM      4  C   UNL     1       3.143  -0.241   0.434  1.00  0.00     0.086 A 
ATOM      5  C   UNL     1       5.099   1.150   0.039  1.00  0.00     0.120 A 
ATOM      6  C   UNL     1       5.470   0.299  -1.024  1.00  0.00     0.046 A 
ATOM      7  C   UNL     1       3.931   0.869   0.763  1.00  0.00     0.068 A 
ATOM      8  C   UNL     1       4.681  -0.808  -1.347  1.00  0.00     0.005 A 
ATOM      9  C   UNL     1       3.522  -1.078  -0.622  1.00  0.00     0.022 A 
BRANCH   5  10
ATOM     10  O   UNL     1       5.829   2.239   0.392  1.00  0.00    -0.497 OA
ATOM     11  C   UNL     1       6.986   2.664  -0.227  1.00  0.00     0.278 C 
ENDBRANCH   5  10
ENDBRANCH   1   4
BRANCH   1  12
ATOM     12  N   UNL     1       0.160   0.214   0.735  1.00  0.00    -0.192 NA
ATOM     13  C   UNL     1      -0.103  -0.180  -0.656  1.00  0.00     0.143 C 
ATOM     14  C   UNL     1      -1.081  -0.465   1.138  1.00  0.00     0.143 C 
ATOM     15  C   UNL     1      -1.466  -0.744  -0.312  1.00  0.00     0.133 C 
ATOM     16  C   UNL     1      -1.754  -2.201  -0.702  1.00  0.00     0.143 C 
ATOM     17  O   UNL     1      -2.550   0.087  -0.678  1.00  0.00    -0.261 OA
ATOM     18  C   UNL     1      -3.201  -2.071  -0.855  1.00  0.00     0.249 C 
ATOM     19  N   UNL     1      -3.574  -0.780  -0.801  1.00  0.00    -0.220 N 
ATOM     20  O   UNL     1      -3.973  -2.999  -1.040  1.00  0.00    -0.272 OA
BRANCH  19  21
ATOM     21  C   UNL     1      -4.939  -0.311  -0.912  1.00  0.00     0.156 C 
BRANCH  21  22
ATOM     22  C   UNL     1      -5.499  -0.004   0.484  1.00  0.00     0.011 C 
ATOM     23  C   UNL     1      -4.764   1.139   1.163  1.00  0.00     0.006 C 
ATOM     24  C   UNL     1      -6.211   1.319   0.713  1.00  0.00     0.006 C 
ENDBRANCH  21  22
ENDBRANCH  19  21
ENDBRANCH   1  12
TORSDOF 5
