REMARK SMILES CCCCCCCCCCCCCC(=O)O[C@@H](c1ccccc1)[C@@H](NC(=O)Cc1ccc(N(CCCl)CCCl)cc1)C(=O)OCC
REMARK SMILES IDX 12 1 11 2 10 3 9 4 8 5 7 6 6 7 5 8 4 9 3 10 2 11 1 12 13 13
REMARK SMILES IDX 14 14 15 15 16 16 17 17 18 18 19 19 23 20 20 21 22 22 21 23
REMARK SMILES IDX 24 24 25 25 26 26 27 27 28 29 29 30 30 31 41 32 31 33 40 34
REMARK SMILES IDX 32 35 33 36 34 37 35 38 36 39 37 40 38 41 39 42 42 43 43 44
REMARK SMILES IDX 44 45 45 46 46 47
REMARK H PARENT 25 28
ROOT
ATOM      1  C   UNL     1       2.440   1.431   2.179  1.00  0.00     0.012 C 
ENDROOT
BRANCH   1   2
ATOM      2  C   UNL     1       3.819   0.903   1.755  1.00  0.00     0.001 C 
BRANCH   2   3
ATOM      3  C   UNL     1       4.469   1.755   0.653  1.00  0.00     0.000 C 
BRANCH   3   4
ATOM      4  C   UNL     1       5.811   1.188   0.173  1.00  0.00     0.000 C 
BRANCH   4   5
ATOM      5  C   UNL     1       6.887   1.145   1.272  1.00  0.00     0.000 C 
BRANCH   5   6
ATOM      6  C   UNL     1       8.218   0.563   0.774  1.00  0.00     0.000 C 
BRANCH   6   7
ATOM      7  C   UNL     1       8.895   1.443  -0.292  1.00  0.00    -0.000 C 
BRANCH   7   8
ATOM      8  C   UNL     1      10.272   0.917  -0.723  1.00  0.00    -0.000 C 
BRANCH   8   9
ATOM      9  C   UNL     1      10.196  -0.439  -1.449  1.00  0.00    -0.000 C 
BRANCH   9  10
ATOM     10  C   UNL     1      11.570  -0.961  -1.900  1.00  0.00    -0.000 C 
BRANCH  10  11
ATOM     11  C   UNL     1      12.240  -0.071  -2.957  1.00  0.00    -0.003 C 
ATOM     12  C   UNL     1      13.566  -0.671  -3.413  1.00  0.00     0.004 C 
ENDBRANCH  10  11
ENDBRANCH   9  10
ENDBRANCH   8   9
ENDBRANCH   7   8
ENDBRANCH   6   7
ENDBRANCH   5   6
ENDBRANCH   4   5
ENDBRANCH   3   4
ENDBRANCH   2   3
ENDBRANCH   1   2
BRANCH   1  13
ATOM     13  C   UNL     1       1.380   1.468   1.066  1.00  0.00     0.123 C 
BRANCH  13  14
ATOM     14  C   UNL     1       1.083   0.118   0.472  1.00  0.00     0.306 C 
ATOM     15  O   UNL     1       1.918  -0.472  -0.198  1.00  0.00    -0.252 OA
BRANCH  14  16
ATOM     16  O   UNL     1      -0.152  -0.397   0.659  1.00  0.00    -0.455 OA
BRANCH  16  17
ATOM     17  C   UNL     1      -0.699  -1.524   0.071  1.00  0.00     0.240 C 
BRANCH  17  18
ATOM     18  C   UNL     1      -1.058  -2.517   1.159  1.00  0.00    -0.005 A 
ATOM     19  C   UNL     1      -0.528  -3.823   1.107  1.00  0.00     0.007 A 
ATOM     20  C   UNL     1      -1.879  -2.160   2.245  1.00  0.00     0.007 A 
ATOM     21  C   UNL     1      -0.821  -4.748   2.115  1.00  0.00     0.000 A 
ATOM     22  C   UNL     1      -2.165  -3.089   3.251  1.00  0.00     0.000 A 
ATOM     23  C   UNL     1      -1.638  -4.381   3.185  1.00  0.00     0.000 A 
ENDBRANCH  17  18
BRANCH  17  24
ATOM     24  C   UNL     1      -1.904  -1.076  -0.801  1.00  0.00     0.238 C 
BRANCH  24  25
ATOM     25  N   UNL     1      -2.786  -0.208  -0.029  1.00  0.00    -0.339 N 
ATOM     26  C   UNL     1      -4.129  -0.374   0.087  1.00  0.00     0.225 C 
ATOM     27  O   UNL     1      -4.707  -1.264  -0.526  1.00  0.00    -0.275 OA
ATOM     28  H   UNL     1      -2.365   0.603   0.453  1.00  0.00     0.164 HD
BRANCH  26  29
ATOM     29  C   UNL     1      -4.892   0.557   0.999  1.00  0.00     0.135 C 
BRANCH  29  30
ATOM     30  C   UNL     1      -6.391   0.427   0.903  1.00  0.00    -0.039 A 
ATOM     31  C   UNL     1      -7.057   0.894  -0.230  1.00  0.00     0.006 A 
ATOM     32  C   UNL     1      -7.136  -0.116   1.951  1.00  0.00     0.006 A 
ATOM     33  C   UNL     1      -8.448   0.833  -0.309  1.00  0.00     0.026 A 
ATOM     34  C   UNL     1      -8.531  -0.193   1.870  1.00  0.00     0.026 A 
ATOM     35  C   UNL     1      -9.239   0.287   0.739  1.00  0.00     0.037 A 
BRANCH  35  36
ATOM     36  N   UNL     1     -10.693   0.263   0.606  1.00  0.00    -0.369 N 
BRANCH  36  37
ATOM     37  C   UNL     1     -11.339   1.283  -0.234  1.00  0.00     0.132 C 
BRANCH  37  38
ATOM     38  C   UNL     1     -11.842   0.707  -1.563  1.00  0.00     0.131 C 
ATOM     39  Cl  UNL     1     -12.579   1.999  -2.543  1.00  0.00    -0.125 Cl
ENDBRANCH  37  38
ENDBRANCH  36  37
BRANCH  36  40
ATOM     40  C   UNL     1     -11.643  -0.688   1.224  1.00  0.00     0.132 C 
BRANCH  40  41
ATOM     41  C   UNL     1     -11.132  -1.783   2.159  1.00  0.00     0.131 C 
ATOM     42  Cl  UNL     1     -12.467  -2.898   2.555  1.00  0.00    -0.125 Cl
ENDBRANCH  40  41
ENDBRANCH  36  40
ENDBRANCH  35  36
ENDBRANCH  29  30
ENDBRANCH  26  29
ENDBRANCH  24  25
BRANCH  24  43
ATOM     43  C   UNL     1      -1.385  -0.335  -2.014  1.00  0.00     0.332 C 
ATOM     44  O   UNL     1      -0.646  -0.921  -2.795  1.00  0.00    -0.250 OA
BRANCH  43  45
ATOM     45  O   UNL     1      -1.741   0.954  -2.246  1.00  0.00    -0.464 OA
BRANCH  45  46
ATOM     46  C   UNL     1      -1.272   1.682  -3.321  1.00  0.00     0.229 C 
ATOM     47  C   UNL     1      -1.875   3.075  -3.300  1.00  0.00     0.049 C 
ENDBRANCH  45  46
ENDBRANCH  43  45
ENDBRANCH  24  43
ENDBRANCH  17  24
ENDBRANCH  16  17
ENDBRANCH  14  16
ENDBRANCH  13  14
ENDBRANCH   1  13
TORSDOF 27
