REMARK SMILES CCCCCOc1ccc(N2C(=O)[C@@H]3[C@H]4c5ccccc5[C@](C)(c5ccccc54)[C@@H]3C2=O)cc1
REMARK SMILES IDX 5 1 4 2 3 3 2 4 1 5 6 6 7 7 8 8 34 9 9 10 33 11 10 12 11 13
REMARK SMILES IDX 12 14 31 15 13 16 14 17 30 18 32 19 15 20 22 21 29 22 16 23
REMARK SMILES IDX 24 24 21 25 28 26 17 27 25 28 20 29 27 30 18 31 26 32 19 33
REMARK SMILES IDX 23 34
REMARK H PARENT
ROOT
ATOM      1  C   UNL     1       5.627  -1.343  -1.694  1.00  0.00     0.229 C 
ENDROOT
BRANCH   1   2
ATOM      2  C   UNL     1       6.936  -2.115  -1.538  1.00  0.00     0.042 C 
BRANCH   2   3
ATOM      3  C   UNL     1       7.542  -2.156  -0.115  1.00  0.00     0.003 C 
BRANCH   3   4
ATOM      4  C   UNL     1       8.136  -0.851   0.460  1.00  0.00    -0.003 C 
ATOM      5  C   UNL     1       7.126   0.185   0.957  1.00  0.00     0.004 C 
ENDBRANCH   3   4
ENDBRANCH   2   3
ENDBRANCH   1   2
BRANCH   1   6
ATOM      6  O   UNL     1       4.682  -1.828  -0.809  1.00  0.00    -0.494 OA
BRANCH   6   7
ATOM      7  C   UNL     1       3.446  -1.305  -0.596  1.00  0.00     0.119 A 
ATOM      8  C   UNL     1       2.599  -1.948   0.306  1.00  0.00     0.048 A 
ATOM      9  C   UNL     1       2.998  -0.136  -1.226  1.00  0.00     0.048 A 
ATOM     10  C   UNL     1       1.334  -1.429   0.599  1.00  0.00     0.030 A 
ATOM     11  C   UNL     1       1.737   0.391  -0.936  1.00  0.00     0.030 A 
ATOM     12  C   UNL     1       0.866  -0.232  -0.005  1.00  0.00     0.052 A 
BRANCH  12  13
ATOM     13  N   UNL     1      -0.423   0.353   0.345  1.00  0.00    -0.250 N 
ATOM     14  C   UNL     1      -1.152   0.069   1.460  1.00  0.00     0.238 C 
ATOM     15  C   UNL     1      -1.084   1.325  -0.348  1.00  0.00     0.238 C 
ATOM     16  O   UNL     1      -0.815  -0.728   2.319  1.00  0.00    -0.274 OA
ATOM     17  C   UNL     1      -2.392   0.895   1.597  1.00  0.00     0.105 C 
ATOM     18  C   UNL     1      -2.351   1.794   0.316  1.00  0.00     0.107 C 
ATOM     19  O   UNL     1      -0.693   1.798  -1.401  1.00  0.00    -0.274 OA
ATOM     20  C   UNL     1      -3.714   0.070   1.650  1.00  0.00     0.063 C 
ATOM     21  C   UNL     1      -3.679   1.623  -0.516  1.00  0.00     0.030 C 
ATOM     22  C   UNL     1      -4.821   1.109   1.621  1.00  0.00    -0.036 A 
ATOM     23  C   UNL     1      -3.849  -0.689   0.340  1.00  0.00    -0.036 A 
ATOM     24  C   UNL     1      -4.812   1.945   0.478  1.00  0.00    -0.033 A 
ATOM     25  C   UNL     1      -3.834   0.123  -0.816  1.00  0.00    -0.033 A 
ATOM     26  C   UNL     1      -5.788   1.268   2.616  1.00  0.00     0.005 A 
ATOM     27  C   UNL     1      -4.000  -2.074   0.237  1.00  0.00     0.005 A 
ATOM     28  C   UNL     1      -5.788   2.946   0.345  1.00  0.00     0.005 A 
ATOM     29  C   UNL     1      -3.971  -0.468  -2.082  1.00  0.00     0.005 A 
ATOM     30  C   UNL     1      -6.753   2.272   2.477  1.00  0.00     0.000 A 
ATOM     31  C   UNL     1      -4.135  -2.656  -1.029  1.00  0.00     0.000 A 
ATOM     32  C   UNL     1      -6.753   3.105   1.349  1.00  0.00     0.000 A 
ATOM     33  C   UNL     1      -4.120  -1.857  -2.182  1.00  0.00     0.000 A 
ATOM     34  C   UNL     1      -3.698   2.516  -1.772  1.00  0.00     0.022 C 
ENDBRANCH  12  13
ENDBRANCH   6   7
ENDBRANCH   1   6
TORSDOF 6
