REMARK SMILES CC(=O)O[C@H]1[C@@H](O)[C@@H](O[C@@H](/C=N\[C@]23C[C@H]4C[C@H](C[C@H](C4)C2)C3)[C@@H](CO)O[C@H](O)/C=N/[C@]23C[C@H]4C[C@H](C[C@H](C4)C2)C3)O[C@@H](CO)[C@H]1O
REMARK SMILES IDX 10 1 9 2 8 3 5 4 6 5 45 6 42 7 41 8 4 9 2 10 3 11 1 12 7 13
REMARK SMILES IDX 46 15 43 17 44 18 11 20 12 21 13 22 21 23 22 24 14 25 19 26
REMARK SMILES IDX 17 27 15 28 20 29 18 30 16 31 23 32 24 33 25 34 26 36 27 37
REMARK SMILES IDX 28 38 29 40 30 41 31 42 39 43 40 44 32 45 37 46 35 47 33 48
REMARK SMILES IDX 38 49 36 50 34 51
REMARK H PARENT 7 14 46 16 44 19 25 35 28 39
ROOT
ATOM      1  C   UNL     1      -1.283  -0.473   0.200  1.00  0.00     0.193 C 
ENDROOT
BRANCH   1   2
ATOM      2  O   UNL     1      -2.181  -1.577   0.036  1.00  0.00    -0.338 OA
BRANCH   2   3
ATOM      3  C   UNL     1      -3.136  -1.390  -1.010  1.00  0.00     0.284 C 
ATOM      4  C   UNL     1      -5.116  -2.882  -0.185  1.00  0.00     0.241 C 
ATOM      5  C   UNL     1      -4.587  -1.453  -0.459  1.00  0.00     0.214 C 
ATOM      6  C   UNL     1      -4.467  -3.909  -1.149  1.00  0.00     0.189 C 
ATOM      7  C   UNL     1      -3.934  -3.191  -2.414  1.00  0.00     0.179 C 
ATOM      8  O   UNL     1      -2.862  -2.312  -2.073  1.00  0.00    -0.341 OA
BRANCH   4   9
ATOM      9  O   UNL     1      -4.948  -3.290   1.132  1.00  0.00    -0.457 OA
BRANCH   9  10
ATOM     10  C   UNL     1      -5.966  -3.607   1.982  1.00  0.00     0.303 C 
ATOM     11  O   UNL     1      -7.134  -3.487   1.644  1.00  0.00    -0.253 OA
ATOM     12  C   UNL     1      -5.649  -4.122   3.348  1.00  0.00     0.139 C 
ENDBRANCH   9  10
ENDBRANCH   4   9
BRANCH   5  13
ATOM     13  O   UNL     1      -4.823  -0.571   0.608  1.00  0.00    -0.384 OA
ATOM     14  H   UNL     1      -4.254  -0.867   1.364  1.00  0.00     0.211 HD
ENDBRANCH   5  13
BRANCH   6  15
ATOM     15  O   UNL     1      -3.426  -4.634  -0.533  1.00  0.00    -0.386 OA
ATOM     16  H   UNL     1      -2.785  -3.995  -0.131  1.00  0.00     0.211 HD
ENDBRANCH   6  15
BRANCH   7  17
ATOM     17  C   UNL     1      -3.424  -4.195  -3.457  1.00  0.00     0.191 C 
BRANCH  17  18
ATOM     18  O   UNL     1      -4.468  -5.018  -3.909  1.00  0.00    -0.394 OA
ATOM     19  H   UNL     1      -4.452  -5.840  -3.355  1.00  0.00     0.210 HD
ENDBRANCH  17  18
ENDBRANCH   7  17
ENDBRANCH   2   3
ENDBRANCH   1   2
BRANCH   1  20
ATOM     20  C   UNL     1      -1.552   0.162   1.548  1.00  0.00     0.113 C 
ATOM     21  N   UNL     1      -1.867   1.393   1.814  1.00  0.00    -0.288 NA
BRANCH  21  22
ATOM     22  C   UNL     1      -2.137   2.567   0.985  1.00  0.00     0.061 C 
ATOM     23  C   UNL     1      -2.401   3.739   1.970  1.00  0.00     0.034 C 
ATOM     24  C   UNL     1      -3.414   2.362   0.132  1.00  0.00     0.034 C 
ATOM     25  C   UNL     1      -0.942   2.979   0.070  1.00  0.00     0.034 C 
ATOM     26  C   UNL     1      -2.741   5.034   1.204  1.00  0.00    -0.008 C 
ATOM     27  C   UNL     1      -3.749   3.654  -0.646  1.00  0.00    -0.008 C 
ATOM     28  C   UNL     1      -1.299   4.265  -0.711  1.00  0.00    -0.008 C 
ATOM     29  C   UNL     1      -1.562   5.413   0.284  1.00  0.00     0.007 C 
ATOM     30  C   UNL     1      -4.006   4.804   0.351  1.00  0.00     0.007 C 
ATOM     31  C   UNL     1      -2.564   4.024  -1.566  1.00  0.00     0.007 C 
ENDBRANCH  21  22
ENDBRANCH   1  20
BRANCH   1  32
ATOM     32  C   UNL     1       0.192  -0.974   0.200  1.00  0.00     0.182 C 
BRANCH  32  33
ATOM     33  C   UNL     1       0.574  -1.701  -1.100  1.00  0.00     0.191 C 
BRANCH  33  34
ATOM     34  O   UNL     1      -0.180  -2.868  -1.282  1.00  0.00    -0.394 OA
ATOM     35  H   UNL     1       0.204  -3.553  -0.673  1.00  0.00     0.210 HD
ENDBRANCH  33  34
ENDBRANCH  32  33
BRANCH  32  36
ATOM     36  O   UNL     1       1.067   0.145   0.321  1.00  0.00    -0.339 OA
BRANCH  36  37
ATOM     37  C   UNL     1       1.755   0.224   1.564  1.00  0.00     0.290 C 
BRANCH  37  38
ATOM     38  O   UNL     1       1.191   1.239   2.354  1.00  0.00    -0.363 OA
ATOM     39  H   UNL     1       1.421   2.110   1.940  1.00  0.00     0.214 HD
ENDBRANCH  37  38
BRANCH  37  40
ATOM     40  C   UNL     1       3.212   0.504   1.303  1.00  0.00     0.139 C 
ATOM     41  N   UNL     1       3.953  -0.393   0.747  1.00  0.00    -0.286 NA
BRANCH  41  42
ATOM     42  C   UNL     1       5.364  -0.219   0.431  1.00  0.00     0.061 C 
ATOM     43  C   UNL     1       5.535   0.815  -0.715  1.00  0.00     0.034 C 
ATOM     44  C   UNL     1       5.923  -1.586  -0.040  1.00  0.00     0.034 C 
ATOM     45  C   UNL     1       6.180   0.249   1.674  1.00  0.00     0.034 C 
ATOM     46  C   UNL     1       7.031   0.948  -1.081  1.00  0.00    -0.008 C 
ATOM     47  C   UNL     1       7.418  -1.452  -0.406  1.00  0.00    -0.008 C 
ATOM     48  C   UNL     1       7.672   0.390   1.298  1.00  0.00    -0.008 C 
ATOM     49  C   UNL     1       7.824   1.422   0.157  1.00  0.00     0.007 C 
ATOM     50  C   UNL     1       7.574  -0.422  -1.545  1.00  0.00     0.007 C 
ATOM     51  C   UNL     1       8.213  -0.977   0.831  1.00  0.00     0.007 C 
ENDBRANCH  41  42
ENDBRANCH  37  40
ENDBRANCH  36  37
ENDBRANCH  32  36
ENDBRANCH   1  32
TORSDOF 18
