REMARK SMILES CC(C)=C1CC[C@@]2(C)[C@H]1CC[C@]1(C)[C@]2(C)CC[C@@H]2[C@@]3(C)CCCC(C)(C)[C@H]3CC[C@]21C
REMARK SMILES IDX 1 1 2 2 3 3 4 4 5 5 6 6 7 7 8 8 9 9 10 10 11 11 12 12 13 13
REMARK SMILES IDX 14 14 15 15 16 16 17 17 18 18 19 19 20 20 21 21 22 22 23 23
REMARK SMILES IDX 24 24 25 25 26 26 27 27 28 28 29 29 30 30 31 31
REMARK H PARENT
ROOT
ATOM      1  C   UNL     1       7.225   1.776   0.261  1.00  0.00     0.039 C 
ATOM      2  C   UNL     1       6.011   1.139  -0.381  1.00  0.00    -0.077 C 
ATOM      3  C   UNL     1       5.877   1.264  -1.880  1.00  0.00     0.039 C 
ATOM      4  C   UNL     1       5.090   0.503   0.404  1.00  0.00    -0.068 C 
ATOM      5  C   UNL     1       5.197   0.462   1.921  1.00  0.00     0.032 C 
ATOM      6  C   UNL     1       3.852  -0.147   2.365  1.00  0.00     0.012 C 
ATOM      7  C   UNL     1       2.842   0.246   1.222  1.00  0.00    -0.020 C 
ATOM      8  C   UNL     1       2.622   1.799   1.439  1.00  0.00     0.012 C 
ATOM      9  C   UNL     1       3.771  -0.160   0.029  1.00  0.00     0.021 C 
ATOM     10  C   UNL     1       3.159  -0.116  -1.377  1.00  0.00     0.009 C 
ATOM     11  C   UNL     1       1.818  -0.908  -1.416  1.00  0.00     0.008 C 
ATOM     12  C   UNL     1       0.754  -0.398  -0.370  1.00  0.00    -0.021 C 
ATOM     13  C   UNL     1       0.497   1.107  -0.790  1.00  0.00     0.012 C 
ATOM     14  C   UNL     1       1.432  -0.566   1.125  1.00  0.00    -0.021 C 
ATOM     15  C   UNL     1       1.766  -2.052   1.527  1.00  0.00     0.012 C 
ATOM     16  C   UNL     1       0.389  -0.093   2.181  1.00  0.00     0.008 C 
ATOM     17  C   UNL     1      -0.989  -0.811   2.076  1.00  0.00     0.005 C 
ATOM     18  C   UNL     1      -1.634  -0.582   0.678  1.00  0.00     0.002 C 
ATOM     19  C   UNL     1      -3.210  -0.782   0.549  1.00  0.00    -0.026 C 
ATOM     20  C   UNL     1      -3.650  -2.251   0.788  1.00  0.00     0.012 C 
ATOM     21  C   UNL     1      -3.915   0.058   1.662  1.00  0.00     0.007 C 
ATOM     22  C   UNL     1      -5.447   0.190   1.526  1.00  0.00     0.001 C 
ATOM     23  C   UNL     1      -5.957   0.208   0.075  1.00  0.00     0.007 C 
ATOM     24  C   UNL     1      -4.928   0.736  -0.943  1.00  0.00    -0.032 C 
ATOM     25  C   UNL     1      -4.585   2.231  -0.679  1.00  0.00     0.011 C 
ATOM     26  C   UNL     1      -5.595   0.696  -2.345  1.00  0.00     0.011 C 
ATOM     27  C   UNL     1      -3.684  -0.259  -0.905  1.00  0.00     0.001 C 
ATOM     28  C   UNL     1      -2.516   0.220  -1.821  1.00  0.00     0.005 C 
ATOM     29  C   UNL     1      -1.425  -0.861  -1.885  1.00  0.00     0.008 C 
ATOM     30  C   UNL     1      -0.708  -1.153  -0.499  1.00  0.00    -0.023 C 
ATOM     31  C   UNL     1      -0.587  -2.719  -0.493  1.00  0.00     0.012 C 
ENDROOT
TORSDOF 0
