REMARK SMILES CC(=O)O[C@H]1C[C@H](O)[C@@](C)(CO[C@@H]2O[C@@H](C)[C@H](O)[C@@H](O)[C@H]2O)[C@@H]2CC[C@]3(C)[C@H](CC=C4[C@@H]5C[C@](C)(C(=O)O)CC[C@]5(C)CC[C@]43C)[C@@]12C
REMARK SMILES IDX 11 1 9 2 5 3 6 4 47 5 7 6 28 7 23 8 26 9 29 10 24 11 25 12
REMARK SMILES IDX 45 13 30 14 44 15 31 16 43 17 32 18 41 19 33 20 40 21 34 22
REMARK SMILES IDX 39 23 48 24 10 25 27 26 46 27 42 28 35 29 4 30 2 31 3 32
REMARK SMILES IDX 1 33 8 34 36 36 37 37 38 38 12 40 13 41 14 42 21 43 15 44
REMARK SMILES IDX 19 45 17 46 16 47 22 48 20 50 18 52
REMARK H PARENT 8 35 38 39 22 49 20 51 18 53
ROOT
ATOM      1  C   UNL     1       4.364  -0.744   0.668  1.00  0.00     0.173 C 
ENDROOT
BRANCH   1   2
ATOM      2  C   UNL     1       3.217  -0.688   1.736  1.00  0.00     0.021 C 
ATOM      3  C   UNL     1       0.656  -2.170   2.577  1.00  0.00     0.185 C 
ATOM      4  C   UNL     1       1.982  -2.344   3.357  1.00  0.00     0.078 C 
ATOM      5  C   UNL     1       0.512  -0.720   1.975  1.00  0.00     0.012 C 
ATOM      6  C   UNL     1       3.205  -2.094   2.442  1.00  0.00     0.126 C 
ATOM      7  C   UNL     1      -0.811  -0.652   1.065  1.00  0.00     0.009 C 
ATOM      8  C   UNL     1       1.786  -0.496   1.038  1.00  0.00     0.010 C 
ATOM      9  C   UNL     1      -0.953   0.537   0.032  1.00  0.00    -0.020 C 
ATOM     10  C   UNL     1      -2.162  -0.870   1.830  1.00  0.00     0.032 C 
ATOM     11  C   UNL     1       1.622   0.776   0.164  1.00  0.00     0.005 C 
ATOM     12  C   UNL     1       0.381   0.655  -0.749  1.00  0.00     0.008 C 
ATOM     13  C   UNL     1      -2.193   0.170  -0.947  1.00  0.00    -0.006 C 
ATOM     14  C   UNL     1      -3.426  -0.405   1.129  1.00  0.00    -0.027 C 
ATOM     15  C   UNL     1      -2.280   1.139  -2.171  1.00  0.00     0.012 C 
ATOM     16  C   UNL     1      -3.474   0.160  -0.105  1.00  0.00    -0.064 C 
ATOM     17  C   UNL     1      -3.656   1.129  -2.851  1.00  0.00     0.008 C 
ATOM     18  C   UNL     1      -4.812   0.781  -0.550  1.00  0.00     0.022 C 
ATOM     19  C   UNL     1      -4.768   1.625  -1.892  1.00  0.00    -0.026 C 
ATOM     20  C   UNL     1      -5.949  -0.263  -0.602  1.00  0.00     0.027 C 
ATOM     21  C   UNL     1      -6.123   1.529  -2.684  1.00  0.00     0.008 C 
ATOM     22  C   UNL     1      -7.365   0.420  -0.736  1.00  0.00     0.066 C 
ATOM     23  C   UNL     1      -7.325   1.621  -1.743  1.00  0.00     0.019 C 
ATOM     24  C   UNL     1       0.406   0.293   3.165  1.00  0.00     0.016 C 
ATOM     25  C   UNL     1       3.627   0.449   2.720  1.00  0.00     0.017 C 
ATOM     26  C   UNL     1      -1.232   1.919   0.720  1.00  0.00     0.012 C 
ATOM     27  C   UNL     1      -2.113  -1.274  -1.568  1.00  0.00     0.017 C 
ATOM     28  C   UNL     1      -4.509   3.119  -1.524  1.00  0.00     0.012 C 
ATOM     29  C   UNL     1      -7.831   0.957   0.642  1.00  0.00     0.024 C 
BRANCH   3  30
ATOM     30  O   UNL     1       0.666  -3.099   1.543  1.00  0.00    -0.462 OA
BRANCH  30  31
ATOM     31  C   UNL     1      -0.200  -4.123   1.337  1.00  0.00     0.302 C 
ATOM     32  O   UNL     1      -1.082  -4.380   2.143  1.00  0.00    -0.253 OA
ATOM     33  C   UNL     1      -0.061  -4.931   0.087  1.00  0.00     0.139 C 
ENDBRANCH  30  31
ENDBRANCH   3  30
BRANCH   6  34
ATOM     34  O   UNL     1       4.404  -2.350   3.136  1.00  0.00    -0.392 OA
ATOM     35  H   UNL     1       4.380  -1.843   3.988  1.00  0.00     0.210 HD
ENDBRANCH   6  34
BRANCH  22  36
ATOM     36  C   UNL     1      -8.392  -0.621  -1.195  1.00  0.00     0.309 C 
ATOM     37  O   UNL     1      -8.062  -1.779  -1.404  1.00  0.00    -0.252 OA
BRANCH  36  38
ATOM     38  O   UNL     1      -9.694  -0.288  -1.360  1.00  0.00    -0.481 OA
ATOM     39  H   UNL     1     -10.029   0.606  -1.206  1.00  0.00     0.296 HD
ENDBRANCH  36  38
ENDBRANCH  22  36
ENDBRANCH   1   2
BRANCH   1  40
ATOM     40  O   UNL     1       4.606   0.526   0.091  1.00  0.00    -0.349 OA
BRANCH  40  41
ATOM     41  C   UNL     1       5.731   0.511  -0.769  1.00  0.00     0.281 C 
ATOM     42  O   UNL     1       6.499   1.671  -0.523  1.00  0.00    -0.344 OA
ATOM     43  C   UNL     1       5.253   0.474  -2.250  1.00  0.00     0.202 C 
ATOM     44  C   UNL     1       7.731   1.690  -1.256  1.00  0.00     0.150 C 
ATOM     45  C   UNL     1       6.372   0.957  -3.217  1.00  0.00     0.179 C 
ATOM     46  C   UNL     1       7.745   0.794  -2.543  1.00  0.00     0.174 C 
ATOM     47  C   UNL     1       8.902   1.359  -0.330  1.00  0.00     0.041 C 
BRANCH  43  48
ATOM     48  O   UNL     1       4.799  -0.821  -2.566  1.00  0.00    -0.385 OA
ATOM     49  H   UNL     1       5.563  -1.444  -2.455  1.00  0.00     0.211 HD
ENDBRANCH  43  48
BRANCH  45  50
ATOM     50  O   UNL     1       6.285   0.340  -4.477  1.00  0.00    -0.387 OA
ATOM     51  H   UNL     1       6.665  -0.573  -4.394  1.00  0.00     0.211 HD
ENDBRANCH  45  50
BRANCH  46  52
ATOM     52  O   UNL     1       8.805   1.147  -3.397  1.00  0.00    -0.388 OA
ATOM     53  H   UNL     1       8.644   2.075  -3.712  1.00  0.00     0.211 HD
ENDBRANCH  46  52
ENDBRANCH  40  41
ENDBRANCH   1  40
TORSDOF 11
