REMARK SMILES O=C(Nc1ccc(Oc2ccccc2)cc1)[C@H]1[C@@H]2C=C[C@@]3(O2)[C@@H]1C(=O)N(C1CCCCC1)[C@@H]3C(=O)NC1CCCCC1
REMARK SMILES IDX 1 1 2 2 3 3 17 5 18 6 23 7 19 8 22 9 21 10 24 11 20 12 33 13
REMARK SMILES IDX 25 14 26 15 34 16 35 17 36 18 37 20 38 21 42 22 39 23 41 24
REMARK SMILES IDX 40 25 27 26 28 27 32 28 29 29 31 30 30 31 4 32 5 33 16 34
REMARK SMILES IDX 6 35 15 36 7 37 8 38 9 39 10 40 14 41 11 42 13 43 12 44
REMARK H PARENT 3 4 36 19
ROOT
ATOM      1  O   UNL     1       0.982   2.445   0.592  1.00  0.00    -0.274 OA
ATOM      2  C   UNL     1      -0.092   2.435   0.013  1.00  0.00     0.231 C 
ATOM      3  N   UNL     1      -0.894   3.543  -0.054  1.00  0.00    -0.326 N 
ATOM      4  H   UNL     1      -1.748   3.445  -0.626  1.00  0.00     0.169 HD
ENDROOT
BRANCH   2   5
ATOM      5  C   UNL     1      -0.473   1.256  -0.854  1.00  0.00     0.127 C 
ATOM      6  C   UNL     1       0.537   0.050  -1.086  1.00  0.00     0.155 C 
ATOM      7  C   UNL     1      -1.650   0.416  -0.421  1.00  0.00     0.133 C 
ATOM      8  C   UNL     1       0.378  -0.255  -2.533  1.00  0.00     0.004 C 
ATOM      9  O   UNL     1      -0.088  -1.121  -0.532  1.00  0.00    -0.359 OA
ATOM     10  C   UNL     1      -1.325  -0.872  -1.155  1.00  0.00     0.129 C 
ATOM     11  C   UNL     1      -3.105   0.537  -0.563  1.00  0.00     0.231 C 
ATOM     12  C   UNL     1      -0.887  -0.762  -2.610  1.00  0.00     0.010 C 
ATOM     13  C   UNL     1      -2.634  -1.693  -1.046  1.00  0.00     0.211 C 
ATOM     14  O   UNL     1      -3.724   1.552  -0.290  1.00  0.00    -0.274 OA
ATOM     15  N   UNL     1      -3.672  -0.698  -0.738  1.00  0.00    -0.324 N 
BRANCH  13  16
ATOM     16  C   UNL     1      -2.565  -2.928  -0.169  1.00  0.00     0.246 C 
ATOM     17  O   UNL     1      -2.237  -2.834   1.004  1.00  0.00    -0.273 OA
ATOM     18  N   UNL     1      -2.906  -4.130  -0.740  1.00  0.00    -0.351 N 
ATOM     19  H   UNL     1      -3.211  -4.115  -1.725  1.00  0.00     0.163 HD
BRANCH  18  20
ATOM     20  C   UNL     1      -2.927  -5.472  -0.167  1.00  0.00     0.082 C 
ATOM     21  C   UNL     1      -2.338  -5.614   1.251  1.00  0.00     0.025 C 
ATOM     22  C   UNL     1      -4.378  -5.999  -0.186  1.00  0.00     0.025 C 
ATOM     23  C   UNL     1      -2.378  -7.094   1.677  1.00  0.00     0.002 C 
ATOM     24  C   UNL     1      -4.431  -7.464   0.263  1.00  0.00     0.002 C 
ATOM     25  C   UNL     1      -3.821  -7.619   1.661  1.00  0.00     0.000 C 
ENDBRANCH  18  20
ENDBRANCH  13  16
BRANCH  15  26
ATOM     26  C   UNL     1      -5.112  -1.030  -0.763  1.00  0.00     0.086 C 
ATOM     27  C   UNL     1      -6.049   0.203  -0.844  1.00  0.00     0.025 C 
ATOM     28  C   UNL     1      -5.517  -1.878   0.470  1.00  0.00     0.025 C 
ATOM     29  C   UNL     1      -7.517  -0.234  -0.939  1.00  0.00     0.002 C 
ATOM     30  C   UNL     1      -6.994  -2.293   0.399  1.00  0.00     0.002 C 
ATOM     31  C   UNL     1      -7.900  -1.064   0.291  1.00  0.00     0.000 C 
ENDBRANCH  15  26
ENDBRANCH   2   5
BRANCH   3  32
ATOM     32  C   UNL     1      -0.597   4.878   0.387  1.00  0.00     0.041 A 
ATOM     33  C   UNL     1       0.483   5.227   1.227  1.00  0.00     0.030 A 
ATOM     34  C   UNL     1      -1.399   5.915  -0.124  1.00  0.00     0.030 A 
ATOM     35  C   UNL     1       0.748   6.575   1.516  1.00  0.00     0.049 A 
ATOM     36  C   UNL     1      -1.124   7.253   0.153  1.00  0.00     0.049 A 
ATOM     37  C   UNL     1      -0.042   7.601   0.978  1.00  0.00     0.127 A 
BRANCH  37  38
ATOM     38  O   UNL     1       0.317   8.892   1.230  1.00  0.00    -0.457 OA
BRANCH  38  39
ATOM     39  C   UNL     1      -0.364  10.044   0.982  1.00  0.00     0.127 A 
ATOM     40  C   UNL     1      -1.765  10.150   1.102  1.00  0.00     0.047 A 
ATOM     41  C   UNL     1       0.372  11.180   0.609  1.00  0.00     0.047 A 
ATOM     42  C   UNL     1      -2.407  11.362   0.827  1.00  0.00     0.004 A 
ATOM     43  C   UNL     1      -0.274  12.389   0.333  1.00  0.00     0.004 A 
ATOM     44  C   UNL     1      -1.663  12.479   0.438  1.00  0.00     0.000 A 
ENDBRANCH  38  39
ENDBRANCH  37  38
ENDBRANCH   3  32
TORSDOF 7
