REMARK SMILES C[C]CCC[C@H]1CCCCCCCCCC(=O)O[C@@H]2[C@H](O[C@H]3[C@H](O1)O[C@@H](C)[C@@H](O)[C@@H]3O)O[C@H](C)[C@H](O[C@@H]1O[C@H](C)[C@H](O[C@H]3O[C@@H](C)[C@@H](OC(=O)[C@@H](C)CC)[C@@H](O)[C@@H]3O)[C@@H](O[C@H]3O[C@H](C)[C@H](O)[C@@H](O)[C@@H]3O)[C@@H]1OC(=O)[C@@H](C)CC)[C@H]2O
REMARK SMILES IDX 19 1 20 2 32 3 33 4 34 5 35 6 79 7 21 8 22 9 23 10 25 11
REMARK SMILES IDX 30 12 26 13 28 14 27 15 24 16 6 17 5 18 4 19 3 20 2 21 1 22
REMARK SMILES IDX 7 23 8 24 9 25 10 26 11 27 31 29 29 31 18 33 16 34 17 35
REMARK SMILES IDX 15 36 14 37 13 38 12 39 80 41 36 43 37 44 38 45 71 46 39 47
REMARK SMILES IDX 59 48 41 49 40 50 72 51 73 52 74 53 75 54 76 55 77 56 78 57
REMARK SMILES IDX 60 58 61 59 62 60 69 61 63 62 67 63 65 64 64 65 70 66 68 68
REMARK SMILES IDX 66 70 42 72 43 73 44 74 57 75 45 76 55 77 47 78 46 79 58 80
REMARK SMILES IDX 56 82 48 84 49 85 50 86 51 87 52 88 53 89 54 90
REMARK H PARENT 31 30 29 32 80 42 70 67 68 69 66 71 58 81 56 83
REMARK Flexibility Score:  135.900
ROOT
ATOM      1  C   UNL     1      -3.706  -3.821  -0.097  1.00  0.00     0.264 C 
ATOM      2  C   UNL     1      -3.326  -2.310   0.137  1.00  0.00     0.295 C 
ATOM      3  O   UNL     1      -4.423  -1.686   0.914  1.00  0.00    -0.343 OA
ATOM      4  C   UNL     1      -5.559  -1.477   0.000  1.00  0.00     0.150 C 
ATOM      5  C   UNL     1      -6.968  -0.964   0.000  1.00  0.00     0.041 C 
ATOM      6  C   UNL     1      -5.983  -2.905  -0.772  1.00  0.00     0.183 C 
ATOM      7  C   UNL     1      -5.272  -4.060  -0.080  1.00  0.00     0.192 C 
ENDROOT
BRANCH   2   8
ATOM      8  O   UNL     1      -1.939  -2.246   0.667  1.00  0.00    -0.337 OA
BRANCH   8   9
ATOM      9  C   UNL     1      -1.076  -1.051   0.552  1.00  0.00     0.209 C 
ATOM     10  C   UNL     1       0.228  -1.027  -0.437  1.00  0.00     0.282 C 
ATOM     11  O   UNL     1       0.634   0.294  -1.011  1.00  0.00    -0.344 OA
ATOM     12  C   UNL     1      -1.812   0.160   0.247  1.00  0.00     0.180 C 
ATOM     13  C   UNL     1       0.750   1.299   0.000  1.00  0.00     0.150 C 
ATOM     14  C   UNL     1      -0.912   1.358   0.461  1.00  0.00     0.174 C 
ATOM     15  C   UNL     1       0.489   2.776   0.000  1.00  0.00     0.041 C 
BRANCH  10  16
ATOM     16  O   UNL     1       1.308  -1.578   0.300  1.00  0.00    -0.347 OA
BRANCH  16  17
ATOM     17  C   UNL     1       2.405  -1.988  -0.498  1.00  0.00     0.121 C 
BRANCH  17  18
ATOM     18  C   UNL     1       3.739  -1.339  -0.000  1.00  0.00     0.032 C 
BRANCH  18  19
ATOM     19  C   UNL     1       4.169   0.098   0.000  1.00  0.00     0.003 C 
BRANCH  19  20
ATOM     20  C   UNL     1       4.599   1.535   0.000  1.00  0.00     0.008 C 
BRANCH  20  21
ATOM     21  C   UNL     1       5.029   2.972   0.000  1.00  0.00    -0.021 C 
ATOM     22  C   UNL     1       5.460   4.409   0.000  1.00  0.00     0.012 C 
ENDBRANCH  20  21
ENDBRANCH  19  20
ENDBRANCH  18  19
ENDBRANCH  17  18
BRANCH  17  23
ATOM     23  C   UNL     1       2.614  -3.512  -0.257  1.00  0.00     0.032 C 
BRANCH  23  24
ATOM     24  C   UNL     1       1.731  -4.512  -1.013  1.00  0.00     0.003 C 
BRANCH  24  25
ATOM     25  C   UNL     1       2.066  -5.922  -0.470  1.00  0.00     0.000 C 
BRANCH  25  26
ATOM     26  C   UNL     1       1.724  -7.087  -1.417  1.00  0.00     0.000 C 
BRANCH  26  27
ATOM     27  C   UNL     1       2.036  -8.440  -0.740  1.00  0.00     0.000 CG0
ATOM     28  G   UNL     1       0.898  -9.128   0.057  1.00  0.00     0.000 G0
ENDBRANCH  26  27
ENDBRANCH  25  26
ENDBRANCH  24  25
ENDBRANCH  23  24
ENDBRANCH  17  23
ENDBRANCH  16  17
ENDBRANCH  10  16
BRANCH  12  29
ATOM     29  O   UNL     1      -2.926   0.314   1.091  1.00  0.00    -0.387 OA
ATOM     30  H   UNL     1      -3.622   0.796   0.572  1.00  0.00     0.211 HD
ENDBRANCH  12  29
BRANCH  14  31
ATOM     31  O   UNL     1      -1.782   2.317  -0.195  1.00  0.00    -0.388 OA
ATOM     32  H   UNL     1      -2.159   2.916   0.505  1.00  0.00     0.211 HD
ENDBRANCH  14  31
ENDBRANCH   8   9
ENDBRANCH   2   8
BRANCH   1  33
ATOM     33  O   UNL     1      -3.046  -4.643   0.813  1.00  0.00    -0.454 OA
BRANCH  33  34
ATOM     34  C   UNL     1      -2.935  -5.998   0.696  1.00  0.00     0.306 C 
ATOM     35  O   UNL     1      -3.602  -6.617  -0.118  1.00  0.00    -0.252 OA
BRANCH  34  36
ATOM     36  C   UNL     1      -1.904  -6.758   1.484  1.00  0.00     0.123 C 
BRANCH  36  37
ATOM     37  C   UNL     1      -0.946  -7.414   0.482  1.00  0.00     0.012 C 
BRANCH  37  38
ATOM     38  C   UNL     1       0.112  -8.330   1.123  1.00  0.00     0.001 C 
BRANCH  38  39
ATOM     39  C   UNL     1       0.898  -9.128   0.057  1.00  0.00     0.000 CG0
ATOM     40  G   UNL     1       2.036  -8.440  -0.740  1.00  0.00     0.000 G0
ENDBRANCH  38  39
ENDBRANCH  37  38
ENDBRANCH  36  37
ENDBRANCH  34  36
ENDBRANCH  33  34
ENDBRANCH   1  33
BRANCH   7  41
ATOM     41  O   UNL     1      -5.634  -5.276  -0.681  1.00  0.00    -0.386 OA
ATOM     42  H   UNL     1      -5.346  -5.238  -1.631  1.00  0.00     0.211 HD
ENDBRANCH   7  41
BRANCH   6  43
ATOM     43  O   UNL     1      -7.365  -3.267  -1.307  1.00  0.00    -0.340 OA
BRANCH  43  44
ATOM     44  C   UNL     1      -8.647  -3.478  -0.570  1.00  0.00     0.294 C 
ATOM     45  O   UNL     1      -9.385  -4.810  -0.904  1.00  0.00    -0.343 OA
ATOM     46  C   UNL     1      -9.559  -2.090  -0.727  1.00  0.00     0.264 C 
ATOM     47  C   UNL     1     -10.537  -5.218   0.000  1.00  0.00     0.150 C 
ATOM     48  C   UNL     1     -10.953  -2.522  -1.119  1.00  0.00     0.199 C 
ATOM     49  C   UNL     1     -11.657  -3.816  -0.322  1.00  0.00     0.183 C 
ATOM     50  C   UNL     1     -11.686  -6.182   0.000  1.00  0.00     0.041 C 
BRANCH  46  51
ATOM     51  O   UNL     1      -9.131  -0.964  -1.647  1.00  0.00    -0.454 OA
BRANCH  51  52
ATOM     52  C   UNL     1      -8.681   0.456  -1.522  1.00  0.00     0.309 C 
ATOM     53  O   UNL     1      -8.605   1.119  -2.546  1.00  0.00    -0.252 OA
BRANCH  52  54
ATOM     54  C   UNL     1      -7.979   1.142   0.000  1.00  0.00     0.096 C 
ATOM     55  C   UNL     1      -6.830   2.107   0.000  1.00  0.00     0.020 C 
BRANCH  54  56
ATOM     56  C   UNL     1      -8.943   2.291   0.000  1.00  0.00     0.011 C 
ATOM     57  C   UNL     1      -9.907   3.441   0.000  1.00  0.00     0.005 C 
ENDBRANCH  54  56
ENDBRANCH  52  54
ENDBRANCH  51  52
ENDBRANCH  46  51
BRANCH  48  58
ATOM     58  O   UNL     1     -11.629  -1.272  -1.468  1.00  0.00    -0.340 OA
BRANCH  58  59
ATOM     59  C   UNL     1     -12.448  -0.548  -0.542  1.00  0.00     0.282 C 
ATOM     60  O   UNL     1     -11.987   0.852  -0.229  1.00  0.00    -0.344 OA
ATOM     61  C   UNL     1     -13.796  -0.466  -1.271  1.00  0.00     0.202 C 
ATOM     62  C   UNL     1     -13.096   1.812   0.000  1.00  0.00     0.150 C 
ATOM     63  C   UNL     1     -14.862  -0.032  -0.238  1.00  0.00     0.179 C 
ATOM     64  C   UNL     1     -14.309   1.106   0.690  1.00  0.00     0.174 C 
ATOM     65  C   UNL     1     -13.356   3.289   0.000  1.00  0.00     0.041 C 
BRANCH  61  66
ATOM     66  O   UNL     1     -14.141  -1.629  -1.952  1.00  0.00    -0.385 OA
ATOM     67  H   UNL     1     -13.670  -1.647  -2.829  1.00  0.00     0.211 HD
ENDBRANCH  61  66
BRANCH  63  68
ATOM     68  O   UNL     1     -15.987   0.409  -0.954  1.00  0.00    -0.387 OA
ATOM     69  H   UNL     1     -16.744   0.432  -0.312  1.00  0.00     0.211 HD
ENDBRANCH  63  68
BRANCH  64  70
ATOM     70  O   UNL     1     -13.976   0.618   1.971  1.00  0.00    -0.388 OA
ATOM     71  H   UNL     1     -13.027   0.337   1.990  1.00  0.00     0.211 HD
ENDBRANCH  64  70
ENDBRANCH  58  59
ENDBRANCH  48  58
BRANCH  49  72
ATOM     72  O   UNL     1     -12.907  -4.072  -1.153  1.00  0.00    -0.341 OA
BRANCH  72  73
ATOM     73  C   UNL     1     -14.272  -4.293  -0.563  1.00  0.00     0.282 C 
ATOM     74  O   UNL     1     -15.322  -3.284  -0.856  1.00  0.00    -0.343 OA
ATOM     75  C   UNL     1     -14.944  -5.555  -1.179  1.00  0.00     0.203 C 
ATOM     76  C   UNL     1     -16.495  -3.406   0.000  1.00  0.00     0.162 C 
ATOM     77  C   UNL     1     -15.963  -6.073  -0.146  1.00  0.00     0.191 C 
ATOM     78  C   UNL     1     -17.010  -4.997   0.272  1.00  0.00     0.236 C 
ATOM     79  C   UNL     1     -17.904  -2.893   0.000  1.00  0.00     0.043 C 
BRANCH  75  80
ATOM     80  O   UNL     1     -14.036  -6.558  -1.522  1.00  0.00    -0.385 OA
ATOM     81  H   UNL     1     -14.463  -7.129  -2.213  1.00  0.00     0.211 HD
ENDBRANCH  75  80
BRANCH  77  82
ATOM     82  O   UNL     1     -16.594  -7.230  -0.635  1.00  0.00    -0.386 OA
ATOM     83  H   UNL     1     -16.919  -7.738   0.153  1.00  0.00     0.211 HD
ENDBRANCH  77  82
BRANCH  78  84
ATOM     84  O   UNL     1     -18.362  -5.409  -0.142  1.00  0.00    -0.457 OA
BRANCH  84  85
ATOM     85  C   UNL     1     -19.496  -5.808   0.644  1.00  0.00     0.309 C 
ATOM     86  O   UNL     1     -19.408  -5.785   1.862  1.00  0.00    -0.252 OA
BRANCH  85  87
ATOM     87  C   UNL     1     -20.953  -6.120   0.000  1.00  0.00     0.096 C 
ATOM     88  C   UNL     1     -22.102  -7.084   0.000  1.00  0.00     0.020 C 
BRANCH  87  89
ATOM     89  C   UNL     1     -21.917  -4.971   0.000  1.00  0.00     0.011 C 
ATOM     90  C   UNL     1     -22.881  -3.822   0.000  1.00  0.00     0.005 C 
ENDBRANCH  87  89
ENDBRANCH  85  87
ENDBRANCH  84  85
ENDBRANCH  78  84
ENDBRANCH  72  73
ENDBRANCH  49  72
ENDBRANCH  43  44
ENDBRANCH   6  43
TORSDOF 26
