REMARK SMILES C#C[C@]1(O)CC[C@@H]2[C@@H]3CCC4=C/C(=N\OCC(=O)NCC[C@]5(c6ccccc6)CCOC(C)(C)C5)CC[C@]4(C)[C@H]3CC[C@@]21C
REMARK SMILES IDX 17 1 18 2 19 3 16 5 15 6 14 7 2 8 3 9 5 10 43 11 6 12 42 13
REMARK SMILES IDX 7 14 41 15 8 16 40 17 9 18 38 19 10 20 37 21 11 22 36 23
REMARK SMILES IDX 12 24 13 25 1 26 44 27 39 28 4 29 20 31 21 32 22 33 29 34
REMARK SMILES IDX 35 35 30 36 32 37 31 38 33 39 34 40 23 41 24 42 28 43 25 44
REMARK SMILES IDX 27 45 26 46
REMARK H PARENT 19 4 4 30
ROOT
ATOM      1  C   UNL     1      -2.768   1.971  -0.649  1.00  0.00     0.260 C 
ATOM      2  O   UNL     1      -3.157   3.062  -1.032  1.00  0.00    -0.271 OA
ATOM      3  N   UNL     1      -3.187   0.826  -1.269  1.00  0.00    -0.353 N 
ATOM      4  H   UNL     1      -2.816  -0.085  -0.969  1.00  0.00     0.163 HD
ENDROOT
BRANCH   1   5
ATOM      5  C   UNL     1      -1.839   1.934   0.535  1.00  0.00     0.363 C 
BRANCH   5   6
ATOM      6  O   UNL     1      -1.490   0.651   0.873  1.00  0.00    -0.385 OA
BRANCH   6   7
ATOM      7  N   UNL     1      -0.691   0.437   1.896  1.00  0.00    -0.091 NA
ATOM      8  C   UNL     1       8.876   1.632   0.218  1.00  0.00    -0.071 C 
ATOM      9  C   UNL     1       9.029   0.172  -0.043  1.00  0.00     0.130 C 
ATOM     10  C   UNL     1       8.896  -0.010  -1.560  1.00  0.00     0.050 C 
ATOM     11  C   UNL     1       7.832  -0.710   0.507  1.00  0.00     0.011 C 
ATOM     12  C   UNL     1       7.385   0.194  -1.761  1.00  0.00     0.008 C 
ATOM     13  C   UNL     1       7.229  -0.126   1.815  1.00  0.00     0.011 C 
ATOM     14  C   UNL     1       6.817  -0.745  -0.695  1.00  0.00     0.002 C 
ATOM     15  C   UNL     1       5.848  -0.702   2.126  1.00  0.00     0.005 C 
ATOM     16  C   UNL     1       5.283  -0.796  -0.376  1.00  0.00    -0.003 C 
ATOM     17  C   UNL     1       4.860  -0.246   1.024  1.00  0.00     0.002 C 
ATOM     18  C   UNL     1       4.449  -0.047  -1.440  1.00  0.00     0.008 C 
ATOM     19  C   UNL     1       3.346  -0.591   1.338  1.00  0.00    -0.008 C 
ATOM     20  C   UNL     1       2.947  -0.272  -1.254  1.00  0.00     0.032 C 
ATOM     21  C   UNL     1       2.907   0.146   2.638  1.00  0.00     0.018 C 
ATOM     22  C   UNL     1       2.482  -0.082   0.174  1.00  0.00    -0.062 C 
ATOM     23  C   UNL     1       1.416   0.000   2.953  1.00  0.00     0.061 C 
ATOM     24  C   UNL     1       1.199   0.287   0.380  1.00  0.00     0.027 C 
ATOM     25  C   UNL     1       0.577   0.280   1.742  1.00  0.00     0.080 C 
ATOM     26  C   UNL     1       8.716   2.819   0.368  1.00  0.00     0.007 C 
ATOM     27  C   UNL     1       8.303  -2.165   0.798  1.00  0.00     0.016 C 
ATOM     28  C   UNL     1       3.102  -2.117   1.496  1.00  0.00     0.016 C 
BRANCH   9  29
ATOM     29  O   UNL     1      10.277  -0.245   0.461  1.00  0.00    -0.377 OA
ATOM     30  H   UNL     1      10.984   0.189  -0.087  1.00  0.00     0.212 HD
ENDBRANCH   9  29
ENDBRANCH   6   7
ENDBRANCH   5   6
ENDBRANCH   1   5
BRANCH   3  31
ATOM     31  C   UNL     1      -4.156   0.820  -2.353  1.00  0.00     0.117 C 
BRANCH  31  32
ATOM     32  C   UNL     1      -5.550   1.376  -1.929  1.00  0.00     0.033 C 
BRANCH  32  33
ATOM     33  C   UNL     1      -6.425   0.618  -0.850  1.00  0.00     0.002 C 
ATOM     34  C   UNL     1      -5.697   0.591   0.513  1.00  0.00     0.040 C 
ATOM     35  C   UNL     1      -6.681  -0.859  -1.317  1.00  0.00     0.046 C 
ATOM     36  C   UNL     1      -6.388  -0.315   1.546  1.00  0.00     0.162 C 
ATOM     37  C   UNL     1      -6.432  -1.973  -0.233  1.00  0.00     0.063 C 
ATOM     38  O   UNL     1      -6.844  -1.586   1.075  1.00  0.00    -0.376 OA
ATOM     39  C   UNL     1      -7.295  -3.189  -0.626  1.00  0.00     0.042 C 
ATOM     40  C   UNL     1      -4.966  -2.489  -0.210  1.00  0.00     0.042 C 
BRANCH  33  41
ATOM     41  C   UNL     1      -7.799   1.359  -0.665  1.00  0.00    -0.042 A 
ATOM     42  C   UNL     1      -8.884   0.736   0.002  1.00  0.00     0.004 A 
ATOM     43  C   UNL     1      -8.033   2.678  -1.155  1.00  0.00     0.004 A 
ATOM     44  C   UNL     1     -10.108   1.385   0.181  1.00  0.00     0.000 A 
ATOM     45  C   UNL     1      -9.259   3.320  -0.965  1.00  0.00     0.000 A 
ATOM     46  C   UNL     1     -10.294   2.677  -0.296  1.00  0.00     0.000 A 
ENDBRANCH  33  41
ENDBRANCH  32  33
ENDBRANCH  31  32
ENDBRANCH   3  31
TORSDOF 8
