REMARK SMILES C[C@H](C[C@@H](O)[C@@H]1O[C@]1(C)C1CCCC1)C1=C2CC[C@H]3[C@@]4(C)C[C@H](c5cccc(O)c5)C(=O)C(C)(C)[C@@H]4CC[C@]3(CCO)[C@@]2(C)CC1=O
REMARK SMILES IDX 15 1 16 2 17 3 18 4 19 5 20 6 21 7 22 8 23 9 31 10 32 11
REMARK SMILES IDX 33 12 34 13 35 14 36 15 37 16 38 17 39 18 43 19 44 20 45 21
REMARK SMILES IDX 46 22 47 23 2 24 1 25 3 26 4 27 5 28 6 30 7 31 8 32 9 33
REMARK SMILES IDX 10 34 11 35 14 36 12 37 13 38 40 39 41 40 42 41 24 43 25 44
REMARK SMILES IDX 30 45 26 46 28 47 27 48 29 49
REMARK H PARENT 5 29 42 42 29 50
ROOT
ATOM      1  C   UNL     1       2.018  -1.005   0.109  1.00  0.00    -0.002 C 
ATOM      2  C   UNL     1       0.721  -1.189   0.477  1.00  0.00    -0.056 C 
ATOM      3  C   UNL     1      -0.098  -0.583   1.615  1.00  0.00     0.032 C 
ATOM      4  C   UNL     1      -1.436   0.012   1.108  1.00  0.00     0.009 C 
ATOM      5  C   UNL     1      -2.203  -1.012   0.218  1.00  0.00     0.003 C 
ATOM      6  C   UNL     1      -3.805  -0.858   0.008  1.00  0.00    -0.024 C 
ATOM      7  C   UNL     1      -4.522  -2.053   0.725  1.00  0.00     0.012 C 
ATOM      8  C   UNL     1      -4.316   0.479   0.667  1.00  0.00     0.023 C 
ATOM      9  C   UNL     1      -5.693   1.018   0.169  1.00  0.00     0.087 C 
ATOM     10  C   UNL     1      -6.452  -0.029  -0.604  1.00  0.00     0.146 C 
ATOM     11  O   UNL     1      -7.568  -0.379  -0.236  1.00  0.00    -0.298 OA
ATOM     12  C   UNL     1      -5.774  -0.710  -1.794  1.00  0.00     0.027 C 
ATOM     13  C   UNL     1      -5.971   0.175  -3.046  1.00  0.00     0.020 C 
ATOM     14  C   UNL     1      -6.499  -2.058  -2.081  1.00  0.00     0.020 C 
ATOM     15  C   UNL     1      -4.212  -0.861  -1.501  1.00  0.00     0.008 C 
ATOM     16  C   UNL     1      -3.508  -1.946  -2.375  1.00  0.00     0.006 C 
ATOM     17  C   UNL     1      -2.138  -2.427  -1.865  1.00  0.00     0.008 C 
ATOM     18  C   UNL     1      -1.306  -1.423  -1.036  1.00  0.00    -0.015 C 
ATOM     19  C   UNL     1      -0.001  -2.182  -0.435  1.00  0.00     0.002 C 
ATOM     20  C   UNL     1      -0.268  -3.481   0.406  1.00  0.00     0.017 C 
ATOM     21  C   UNL     1       1.062  -2.595  -1.501  1.00  0.00     0.092 C 
ATOM     22  C   UNL     1       2.261  -1.845  -1.071  1.00  0.00     0.159 C 
ATOM     23  O   UNL     1       3.342  -1.956  -1.628  1.00  0.00    -0.295 OA
ENDROOT
BRANCH   1  24
ATOM     24  C   UNL     1       3.182  -0.195   0.720  1.00  0.00     0.022 C 
ATOM     25  C   UNL     1       2.864   0.451   2.075  1.00  0.00     0.013 C 
BRANCH  24  26
ATOM     26  C   UNL     1       3.732   0.853  -0.300  1.00  0.00     0.042 C 
BRANCH  26  27
ATOM     27  C   UNL     1       5.208   1.303  -0.095  1.00  0.00     0.147 C 
BRANCH  27  28
ATOM     28  O   UNL     1       5.354   1.994   1.113  1.00  0.00    -0.390 OA
ATOM     29  H   UNL     1       5.609   1.348   1.813  1.00  0.00     0.211 HD
ENDBRANCH  27  28
BRANCH  27  30
ATOM     30  C   UNL     1       6.177   0.101  -0.330  1.00  0.00     0.179 C 
ATOM     31  O   UNL     1       6.631  -0.538   0.853  1.00  0.00    -0.363 OA
ATOM     32  C   UNL     1       7.636  -0.045  -0.011  1.00  0.00     0.097 C 
ATOM     33  C   UNL     1       8.336  -1.210  -0.736  1.00  0.00     0.045 C 
BRANCH  32  34
ATOM     34  C   UNL     1       8.633   0.917   0.707  1.00  0.00     0.024 C 
ATOM     35  C   UNL     1       8.182   1.966   1.725  1.00  0.00     0.006 C 
ATOM     36  C   UNL     1       9.434   1.784  -0.264  1.00  0.00     0.006 C 
ATOM     37  C   UNL     1       9.504   2.662   2.010  1.00  0.00     0.000 C 
ATOM     38  C   UNL     1      10.117   2.847   0.619  1.00  0.00     0.000 C 
ENDBRANCH  32  34
ENDBRANCH  27  30
ENDBRANCH  26  27
ENDBRANCH  24  26
ENDBRANCH   1  24
BRANCH  18  39
ATOM     39  C   UNL     1      -0.749  -0.181  -1.902  1.00  0.00     0.036 C 
BRANCH  39  40
ATOM     40  C   UNL     1      -1.586   0.953  -2.515  1.00  0.00     0.156 C 
BRANCH  40  41
ATOM     41  O   UNL     1      -2.368   0.526  -3.596  1.00  0.00    -0.396 OA
ATOM     42  H   UNL     1      -1.750   0.380  -4.361  1.00  0.00     0.210 HD
ENDBRANCH  40  41
ENDBRANCH  39  40
ENDBRANCH  18  39
BRANCH   9  43
ATOM     43  C   UNL     1      -6.497   1.597   1.325  1.00  0.00    -0.034 A 
ATOM     44  C   UNL     1      -6.881   0.775   2.404  1.00  0.00     0.005 A 
ATOM     45  C   UNL     1      -6.877   2.951   1.332  1.00  0.00     0.050 A 
ATOM     46  C   UNL     1      -7.623   1.296   3.464  1.00  0.00     0.004 A 
ATOM     47  C   UNL     1      -7.624   3.472   2.397  1.00  0.00     0.115 A 
ATOM     48  C   UNL     1      -7.997   2.639   3.462  1.00  0.00     0.046 A 
BRANCH  47  49
ATOM     49  O   UNL     1      -7.984   4.770   2.381  1.00  0.00    -0.508 OA
ATOM     50  H   UNL     1      -8.505   5.167   3.094  1.00  0.00     0.293 HD
ENDBRANCH  47  49
ENDBRANCH   9  43
TORSDOF 11
