REMARK SMILES C[C@@H]1C(=O)O[C@H]2C[C@]34[C@@H]5OC(=O)[C@]3(O[C@@H]3OC(=O)[C@H](O)[C@@]34[C@H](C(C)(C)C)[C@H]5O)[C@]21O
REMARK SMILES IDX 1 1 2 2 3 3 4 4 5 5 6 6 7 7 8 8 9 9 10 10 11 11 12 12 13 13
REMARK SMILES IDX 14 14 15 15 16 16 17 17 18 18 19 19 21 20 22 21 27 22 29 23
REMARK SMILES IDX 30 24 28 26 20 28 23 30 24 31 25 32 26 33
REMARK H PARENT 30 25 28 27 20 29
ROOT
ATOM      1  C   UNL     1       5.514  -0.285   0.240  1.00  0.00     0.023 C 
ATOM      2  C   UNL     1       4.116   0.348   0.283  1.00  0.00     0.135 C 
ATOM      3  C   UNL     1       3.602   0.326   1.689  1.00  0.00     0.312 C 
ATOM      4  O   UNL     1       4.049   1.006   2.599  1.00  0.00    -0.252 OA
ATOM      5  O   UNL     1       2.660  -0.625   1.883  1.00  0.00    -0.459 OA
ATOM      6  C   UNL     1       2.579  -1.428   0.763  1.00  0.00     0.213 C 
ATOM      7  C   UNL     1       1.174  -1.880   0.348  1.00  0.00     0.064 C 
ATOM      8  C   UNL     1       0.533  -0.667  -0.372  1.00  0.00     0.072 C 
ATOM      9  C   UNL     1      -0.032  -1.030  -1.758  1.00  0.00     0.216 C 
ATOM     10  O   UNL     1       0.408  -0.034  -2.615  1.00  0.00    -0.457 OA
ATOM     11  C   UNL     1       1.425   0.663  -2.077  1.00  0.00     0.342 C 
ATOM     12  O   UNL     1       2.067   1.490  -2.704  1.00  0.00    -0.249 OA
ATOM     13  C   UNL     1       1.680   0.293  -0.654  1.00  0.00     0.212 C 
ATOM     14  O   UNL     1       1.517   1.415   0.202  1.00  0.00    -0.319 OA
ATOM     15  C   UNL     1       0.131   1.629   0.300  1.00  0.00     0.322 C 
ATOM     16  O   UNL     1      -0.168   2.263   1.479  1.00  0.00    -0.433 OA
ATOM     17  C   UNL     1      -0.714   1.428   2.362  1.00  0.00     0.338 C 
ATOM     18  O   UNL     1      -0.958   1.764   3.511  1.00  0.00    -0.249 OA
ATOM     19  C   UNL     1      -0.823   0.036   1.867  1.00  0.00     0.237 C 
ATOM     20  C   UNL     1      -0.551   0.233   0.328  1.00  0.00     0.088 C 
ATOM     21  C   UNL     1      -1.813   0.221  -0.680  1.00  0.00     0.043 C 
ATOM     22  C   UNL     1      -1.535  -1.039  -1.529  1.00  0.00     0.160 C 
ATOM     23  C   UNL     1       3.007  -0.502  -0.374  1.00  0.00     0.155 C 
ENDROOT
BRANCH  23  24
ATOM     24  O   UNL     1       3.416  -1.246  -1.498  1.00  0.00    -0.381 OA
ATOM     25  H   UNL     1       3.814  -0.603  -2.141  1.00  0.00     0.211 HD
ENDBRANCH  23  24
BRANCH  22  26
ATOM     26  O   UNL     1      -2.237  -1.121  -2.742  1.00  0.00    -0.389 OA
ATOM     27  H   UNL     1      -2.027  -0.308  -3.271  1.00  0.00     0.211 HD
ENDBRANCH  22  26
BRANCH  19  28
ATOM     28  O   UNL     1       0.146  -0.703   2.552  1.00  0.00    -0.381 OA
ATOM     29  H   UNL     1      -0.219  -0.904   3.454  1.00  0.00     0.211 HD
ENDBRANCH  19  28
BRANCH  21  30
ATOM     30  C   UNL     1      -3.345   0.427  -0.257  1.00  0.00    -0.032 C 
ATOM     31  C   UNL     1      -4.198   0.761  -1.515  1.00  0.00     0.011 C 
ATOM     32  C   UNL     1      -3.518   1.636   0.686  1.00  0.00     0.011 C 
ATOM     33  C   UNL     1      -3.998  -0.831   0.378  1.00  0.00     0.011 C 
ENDBRANCH  21  30
TORSDOF 4
