REMARK SMILES COC(=O)[C@@]1(C)CCC[C@H]2C1=CC=C1C[C@@H](C(C)C)[C@@H](O)C[C@H]12
REMARK SMILES IDX 5 1 6 2 7 3 8 4 9 5 10 6 11 7 12 8 13 9 14 10 15 11 16 12
REMARK SMILES IDX 20 13 22 14 23 15 3 16 4 17 2 18 1 19 21 20 17 22 18 23
REMARK SMILES IDX 19 24
REMARK H PARENT 21 21
ROOT
ATOM      1  C   UNL     1      -3.417  -0.326  -0.267  1.00  0.00     0.087 C 
ATOM      2  C   UNL     1      -4.282  -1.319  -1.081  1.00  0.00     0.028 C 
ATOM      3  C   UNL     1      -3.808   1.111  -0.716  1.00  0.00     0.023 C 
ATOM      4  C   UNL     1      -2.920   2.195  -0.091  1.00  0.00     0.002 C 
ATOM      5  C   UNL     1      -1.433   1.941  -0.408  1.00  0.00     0.009 C 
ATOM      6  C   UNL     1      -0.996   0.569   0.164  1.00  0.00     0.023 C 
ATOM      7  C   UNL     1      -1.899  -0.475  -0.505  1.00  0.00    -0.050 C 
ATOM      8  C   UNL     1      -1.380  -1.412  -1.328  1.00  0.00     0.001 C 
ATOM      9  C   UNL     1       0.061  -1.535  -1.576  1.00  0.00    -0.001 C 
ATOM     10  C   UNL     1       0.962  -0.809  -0.908  1.00  0.00    -0.066 C 
ATOM     11  C   UNL     1       2.440  -1.088  -1.128  1.00  0.00     0.037 C 
ATOM     12  C   UNL     1       3.295  -0.387  -0.046  1.00  0.00     0.024 C 
ATOM     13  C   UNL     1       2.963   1.138   0.016  1.00  0.00     0.118 C 
ATOM     14  C   UNL     1       1.452   1.471  -0.124  1.00  0.00     0.040 C 
ATOM     15  C   UNL     1       0.546   0.241   0.116  1.00  0.00     0.025 C 
ENDROOT
BRANCH   1  16
ATOM     16  C   UNL     1      -3.751  -0.577   1.204  1.00  0.00     0.315 C 
ATOM     17  O   UNL     1      -2.884  -0.946   1.987  1.00  0.00    -0.251 OA
BRANCH  16  18
ATOM     18  O   UNL     1      -5.040  -0.482   1.623  1.00  0.00    -0.468 OA
ATOM     19  C   UNL     1      -5.461  -0.894   2.872  1.00  0.00     0.282 C 
ENDBRANCH  16  18
ENDBRANCH   1  16
BRANCH  13  20
ATOM     20  O   UNL     1       3.706   1.895  -0.907  1.00  0.00    -0.393 OA
ATOM     21  H   UNL     1       3.520   1.528  -1.810  1.00  0.00     0.210 HD
ENDBRANCH  13  20
BRANCH  12  22
ATOM     22  C   UNL     1       4.830  -0.683  -0.148  1.00  0.00    -0.011 C 
ATOM     23  C   UNL     1       5.133  -2.193  -0.121  1.00  0.00     0.008 C 
ATOM     24  C   UNL     1       5.607  -0.023   1.008  1.00  0.00     0.008 C 
ENDBRANCH  12  22
TORSDOF 4
