REMARK SMILES CC[C]CC/C=C\C/C=C\CCCCCCCC[C]CCC(=O)OC[C@@H](COC(=O)CCCCCCCCC[C]CCCCCCCCCCCCC)OC(=O)CCCCCCC/C=C\CCCC
REMARK SMILES IDX 28 1 27 2 26 3 54 4 55 5 56 6 57 7 58 8 59 9 60 10 61 11
REMARK SMILES IDX 62 12 63 13 64 14 65 15 66 16 67 17 68 18 69 19 25 20 24 21
REMARK SMILES IDX 22 22 23 23 21 24 20 25 19 26 18 27 17 28 16 29 15 30 14 31
REMARK SMILES IDX 13 32 12 33 11 34 10 35 9 36 8 37 7 38 6 39 5 40 4 41 3 42
REMARK SMILES IDX 2 43 1 44 29 45 30 46 31 47 32 48 33 49 34 50 35 51 36 52
REMARK SMILES IDX 37 53 38 54 39 55 40 56 41 57 42 58 43 59 44 60 45 61 46 62
REMARK SMILES IDX 47 63 48 64 49 65 50 66 51 67 52 68 53 69
REMARK H PARENT
ROOT
ATOM      1  O   UNL     1      10.600 -12.056   1.185  1.00  0.00    -0.462 OA
ENDROOT
BRANCH   1   2
ATOM      2  C   UNL     1       9.742 -11.800   0.123  1.00  0.00     0.281 C 
BRANCH   2   3
ATOM      3  C   UNL     1       8.438 -12.643   0.199  1.00  0.00     0.251 C 
BRANCH   3   4
ATOM      4  O   UNL     1       7.405 -11.796  -0.448  1.00  0.00    -0.455 OA
BRANCH   4   5
ATOM      5  C   UNL     1       7.039 -10.450  -0.007  1.00  0.00     0.306 C 
ATOM      6  O   UNL     1       7.475 -10.098   1.079  1.00  0.00    -0.252 OA
BRANCH   5   7
ATOM      7  C   UNL     1       6.114  -9.294  -0.748  1.00  0.00     0.123 C 
BRANCH   7   8
ATOM      8  C   UNL     1       6.000  -7.794   0.000  1.00  0.00     0.012 C 
BRANCH   8   9
ATOM      9  C   UNL     1       5.250  -6.495   0.000  1.00  0.00     0.001 C 
BRANCH   9  10
ATOM     10  C   UNL     1       4.500  -5.196   0.000  1.00  0.00     0.000 C 
BRANCH  10  11
ATOM     11  C   UNL     1       3.558  -5.050   1.235  1.00  0.00     0.000 C 
BRANCH  11  12
ATOM     12  C   UNL     1       2.760  -3.736   1.284  1.00  0.00     0.004 C 
BRANCH  12  13
ATOM     13  C   UNL     1       1.919  -3.713   2.576  1.00  0.00     0.027 C 
BRANCH  13  14
ATOM     14  C   UNL     1       1.225  -2.406   2.863  1.00  0.00    -0.031 C 
ATOM     15  C   UNL     1       0.197  -1.840   2.204  1.00  0.00    -0.031 C 
BRANCH  15  16
ATOM     16  C   UNL     1      -0.545  -2.353   0.995  1.00  0.00     0.027 C 
BRANCH  16  17
ATOM     17  C   UNL     1      -1.345  -3.653   1.221  1.00  0.00     0.004 C 
BRANCH  17  18
ATOM     18  C   UNL     1      -2.250  -3.897   0.000  1.00  0.00    -0.003 C 
ATOM     19  C   UNL     1      -3.000  -5.196   0.000  1.00  0.00     0.004 C 
ENDBRANCH  17  18
ENDBRANCH  16  17
ENDBRANCH  15  16
ENDBRANCH  13  14
ENDBRANCH  12  13
ENDBRANCH  11  12
ENDBRANCH  10  11
ENDBRANCH   9  10
ENDBRANCH   8   9
ENDBRANCH   7   8
ENDBRANCH   5   7
ENDBRANCH   4   5
ENDBRANCH   3   4
BRANCH   3  20
ATOM     20  C   UNL     1       8.964 -14.203  -0.292  1.00  0.00     0.281 C 
BRANCH  20  21
ATOM     21  O   UNL     1       8.321 -15.450   0.059  1.00  0.00    -0.462 OA
BRANCH  21  22
ATOM     22  C   UNL     1       8.590 -16.881   0.054  1.00  0.00     0.305 C 
ATOM     23  O   UNL     1       7.600 -17.559   0.280  1.00  0.00    -0.252 OA
BRANCH  22  24
ATOM     24  C   UNL     1       9.942 -17.810  -0.134  1.00  0.00     0.123 C 
BRANCH  24  25
ATOM     25  C   UNL     1       9.750 -19.486   0.000  1.00  0.00     0.020 C 
BRANCH  25  26
ATOM     26  C   UNL     1      10.500 -20.785   0.000  1.00  0.00    -0.017 C 
BRANCH  26  27
ATOM     27  C   UNL     1      11.250 -22.084   0.000  1.00  0.00     0.008 C 
BRANCH  27  28
ATOM     28  C   UNL     1      11.827 -23.599   0.443  1.00  0.00     0.001 C 
BRANCH  28  29
ATOM     29  C   UNL     1      12.977 -24.457  -0.476  1.00  0.00     0.000 C 
BRANCH  29  30
ATOM     30  C   UNL     1      13.500 -25.981   0.000  1.00  0.00     0.000 C 
BRANCH  30  31
ATOM     31  C   UNL     1      14.250 -27.280   0.000  1.00  0.00     0.000 C 
BRANCH  31  32
ATOM     32  C   UNL     1      15.000 -28.579   0.000  1.00  0.00     0.000 C 
BRANCH  32  33
ATOM     33  C   UNL     1      15.877 -29.904  -0.146  1.00  0.00     0.004 C 
BRANCH  33  34
ATOM     34  C   UNL     1      17.455 -29.656  -0.056  1.00  0.00     0.027 C 
BRANCH  34  35
ATOM     35  C   UNL     1      18.384 -30.892  -0.135  1.00  0.00    -0.031 C 
ATOM     36  C   UNL     1      19.766 -30.853  -0.089  1.00  0.00    -0.027 C 
BRANCH  36  37
ATOM     37  C   UNL     1      20.529 -29.546   0.031  1.00  0.00     0.054 C 
BRANCH  37  38
ATOM     38  C   UNL     1      22.061 -29.300   0.081  1.00  0.00    -0.027 C 
ATOM     39  C   UNL     1      23.323 -29.860   0.087  1.00  0.00    -0.031 C 
BRANCH  39  40
ATOM     40  C   UNL     1      24.056 -31.211   0.052  1.00  0.00     0.027 C 
BRANCH  40  41
ATOM     41  C   UNL     1      23.250 -32.476   0.000  1.00  0.00     0.012 C 
BRANCH  41  42
ATOM     42  C   UNL     1      24.000 -33.775   0.000  1.00  0.00    -0.017 C 
BRANCH  42  43
ATOM     43  C   UNL     1      24.750 -35.074   0.000  1.00  0.00     0.005 C 
ATOM     44  C   UNL     1      25.500 -36.373   0.000  1.00  0.00     0.004 C 
ENDBRANCH  42  43
ENDBRANCH  41  42
ENDBRANCH  40  41
ENDBRANCH  39  40
ENDBRANCH  37  38
ENDBRANCH  36  37
ENDBRANCH  34  35
ENDBRANCH  33  34
ENDBRANCH  32  33
ENDBRANCH  31  32
ENDBRANCH  30  31
ENDBRANCH  29  30
ENDBRANCH  28  29
ENDBRANCH  27  28
ENDBRANCH  26  27
ENDBRANCH  25  26
ENDBRANCH  24  25
ENDBRANCH  22  24
ENDBRANCH  21  22
ENDBRANCH  20  21
ENDBRANCH   3  20
ENDBRANCH   2   3
ENDBRANCH   1   2
BRANCH   1  45
ATOM     45  C   UNL     1      11.854 -11.527   1.246  1.00  0.00     0.305 C 
ATOM     46  O   UNL     1      12.305 -11.159   2.320  1.00  0.00    -0.252 OA
BRANCH  45  47
ATOM     47  C   UNL     1      12.696 -11.490   0.000  1.00  0.00     0.123 C 
BRANCH  47  48
ATOM     48  C   UNL     1      13.995 -10.740   0.000  1.00  0.00     0.012 C 
BRANCH  48  49
ATOM     49  C   UNL     1      15.294  -9.990   0.000  1.00  0.00     0.001 C 
BRANCH  49  50
ATOM     50  C   UNL     1      16.593  -9.240   0.000  1.00  0.00     0.000 C 
BRANCH  50  51
ATOM     51  C   UNL     1      17.892  -8.490   0.000  1.00  0.00     0.000 C 
BRANCH  51  52
ATOM     52  C   UNL     1      19.191  -7.740   0.000  1.00  0.00     0.000 C 
BRANCH  52  53
ATOM     53  C   UNL     1      20.710  -7.207   0.482  1.00  0.00     0.000 C 
BRANCH  53  54
ATOM     54  C   UNL     1      21.577  -6.074  -0.448  1.00  0.00     0.001 C 
BRANCH  54  55
ATOM     55  C   UNL     1      23.088  -5.490   0.000  1.00  0.00     0.008 C 
BRANCH  55  56
ATOM     56  C   UNL     1      24.387  -4.740   0.000  1.00  0.00    -0.017 C 
BRANCH  56  57
ATOM     57  C   UNL     1      25.686  -3.990   0.000  1.00  0.00     0.008 C 
BRANCH  57  58
ATOM     58  C   UNL     1      26.986  -3.240   0.000  1.00  0.00     0.001 C 
BRANCH  58  59
ATOM     59  C   UNL     1      28.285  -2.490   0.000  1.00  0.00     0.000 C 
BRANCH  59  60
ATOM     60  C   UNL     1      29.584  -1.740   0.000  1.00  0.00     0.000 C 
BRANCH  60  61
ATOM     61  C   UNL     1      31.222  -1.397   0.148  1.00  0.00     0.000 C 
BRANCH  61  62
ATOM     62  C   UNL     1      31.835   0.177  -0.069  1.00  0.00     0.000 C 
BRANCH  62  63
ATOM     63  C   UNL     1      33.481   0.510   0.000  1.00  0.00    -0.000 C 
BRANCH  63  64
ATOM     64  C   UNL     1      34.780   1.260   0.000  1.00  0.00    -0.000 C 
BRANCH  64  65
ATOM     65  C   UNL     1      36.079   2.010   0.000  1.00  0.00    -0.000 C 
BRANCH  65  66
ATOM     66  C   UNL     1      37.610   2.535  -0.454  1.00  0.00    -0.000 C 
BRANCH  66  67
ATOM     67  C   UNL     1      38.463   3.692   0.463  1.00  0.00    -0.000 C 
BRANCH  67  68
ATOM     68  C   UNL     1      39.976   4.260   0.000  1.00  0.00    -0.003 C 
ATOM     69  C   UNL     1      41.275   5.010   0.000  1.00  0.00     0.004 C 
ENDBRANCH  67  68
ENDBRANCH  66  67
ENDBRANCH  65  66
ENDBRANCH  64  65
ENDBRANCH  63  64
ENDBRANCH  62  63
ENDBRANCH  61  62
ENDBRANCH  60  61
ENDBRANCH  59  60
ENDBRANCH  58  59
ENDBRANCH  57  58
ENDBRANCH  56  57
ENDBRANCH  55  56
ENDBRANCH  54  55
ENDBRANCH  53  54
ENDBRANCH  52  53
ENDBRANCH  51  52
ENDBRANCH  50  51
ENDBRANCH  49  50
ENDBRANCH  48  49
ENDBRANCH  47  48
ENDBRANCH  45  47
ENDBRANCH   1  45
TORSDOF 59
