REMARK SMILES CC(/C=C/[C@]1(C)[C@@H](C)C=CC(=O)[C@@H]1C)=C\Cc1c(O)c(Cl)c(C)c(C=O)c1O
REMARK SMILES IDX 1 1 2 2 15 3 3 4 4 5 5 6 7 7 13 8 9 9 11 10 10 11 12 12 6 13
REMARK SMILES IDX 8 14 14 15 16 16 17 17 18 18 27 19 20 20 24 21 22 22 21 23
REMARK SMILES IDX 23 24 19 25 28 27 25 29 26 30
REMARK H PARENT 19 26 28 28
ROOT
ATOM      1  C   UNL     1       0.109  -1.499  -1.867  1.00  0.00     0.044 C 
ATOM      2  C   UNL     1       0.082  -0.223  -1.041  1.00  0.00    -0.055 C 
ATOM      3  C   UNL     1       1.134   0.634  -1.074  1.00  0.00    -0.019 C 
ENDROOT
BRANCH   2   4
ATOM      4  C   UNL     1      -1.083   0.156  -0.173  1.00  0.00    -0.001 C 
ATOM      5  C   UNL     1      -2.248  -0.519  -0.101  1.00  0.00    -0.019 C 
BRANCH   5   6
ATOM      6  C   UNL     1      -3.455  -0.106   0.764  1.00  0.00     0.001 C 
ATOM      7  C   UNL     1      -4.564  -1.232   0.594  1.00  0.00     0.019 C 
ATOM      8  C   UNL     1      -4.082   1.248   0.273  1.00  0.00     0.068 C 
ATOM      9  C   UNL     1      -5.157  -1.239  -0.808  1.00  0.00    -0.019 C 
ATOM     10  C   UNL     1      -4.466   1.085  -1.188  1.00  0.00     0.159 C 
ATOM     11  C   UNL     1      -5.090  -0.178  -1.630  1.00  0.00     0.043 C 
ATOM     12  O   UNL     1      -4.245   1.964  -2.009  1.00  0.00    -0.295 OA
ATOM     13  C   UNL     1      -3.001  -0.036   2.243  1.00  0.00     0.017 C 
ATOM     14  C   UNL     1      -5.741  -1.195   1.590  1.00  0.00     0.013 C 
ATOM     15  C   UNL     1      -3.274   2.542   0.505  1.00  0.00     0.017 C 
ENDBRANCH   5   6
ENDBRANCH   2   4
BRANCH   3  16
ATOM     16  C   UNL     1       2.399   0.436  -1.890  1.00  0.00     0.071 C 
BRANCH  16  17
ATOM     17  C   UNL     1       3.614   0.399  -0.976  1.00  0.00     0.042 A 
ATOM     18  C   UNL     1       4.067   1.577  -0.343  1.00  0.00     0.141 A 
ATOM     19  C   UNL     1       4.291  -0.824  -0.755  1.00  0.00     0.133 A 
ATOM     20  C   UNL     1       5.174   1.538   0.507  1.00  0.00     0.087 A 
ATOM     21  C   UNL     1       5.427  -0.876   0.114  1.00  0.00     0.061 A 
ATOM     22  C   UNL     1       5.863   0.327   0.747  1.00  0.00    -0.014 A 
ATOM     23  Cl  UNL     1       5.675   3.064   1.254  1.00  0.00    -0.080 Cl
ATOM     24  C   UNL     1       7.064   0.316   1.675  1.00  0.00     0.047 C 
BRANCH  18  25
ATOM     25  O   UNL     1       3.467   2.775  -0.544  1.00  0.00    -0.506 OA
ATOM     26  H   UNL     1       2.732   2.932  -1.149  1.00  0.00     0.293 HD
ENDBRANCH  18  25
BRANCH  19  27
ATOM     27  O   UNL     1       3.797  -1.918  -1.386  1.00  0.00    -0.507 OA
ATOM     28  H   UNL     1       4.103  -2.825  -1.333  1.00  0.00     0.293 HD
ENDBRANCH  19  27
BRANCH  21  29
ATOM     29  C   UNL     1       6.186  -2.146   0.395  1.00  0.00     0.264 C 
ATOM     30  O   UNL     1       5.904  -3.218  -0.109  1.00  0.00    -0.298 OA
ENDBRANCH  21  29
ENDBRANCH  16  17
ENDBRANCH   3  16
TORSDOF 7
