REMARK SMILES COc1ccc([C@@H]2c3c(c4c(c5c3O[C@@H](c3ccc(OC)c(OC)c3)[C@@H](O)[C@@H]5c3ccc(OC)cc3OC)O[C@H](c3ccc(OC)c(OC)c3)[C@@H](O)C4)O[C@@H](c3ccc(OC)c(OC)c3)[C@H]2O)c(OC)c1
REMARK SMILES IDX 7 1 8 2 13 3 14 4 15 5 26 6 28 7 12 8 11 9 39 10 40 11 51 12
REMARK SMILES IDX 53 13 10 14 9 15 54 16 55 17 66 18 6 19 3 20 4 21 71 22 5 23
REMARK SMILES IDX 68 24 2 25 1 26 69 27 70 28 67 29 56 31 57 32 65 33 58 34
REMARK SMILES IDX 62 35 59 36 63 37 64 38 60 39 61 40 16 41 17 42 25 43 18 44
REMARK SMILES IDX 22 45 19 46 23 47 24 48 20 49 21 50 29 51 30 52 36 53 31 54
REMARK SMILES IDX 35 55 32 56 37 57 38 58 33 59 34 60 27 61 52 63 41 65 42 66
REMARK SMILES IDX 50 67 43 68 47 69 44 70 48 71 49 72 45 73 46 74
REMARK H PARENT 67 30 27 62 52 64
ROOT
ATOM      1  C   UNL     1       2.680  -1.290   0.413  1.00  0.00     0.093 C 
ATOM      2  C   UNL     1       1.599  -0.228   0.313  1.00  0.00     0.047 A 
ATOM      3  C   UNL     1       0.221  -0.402   0.577  1.00  0.00     0.135 A 
ATOM      4  O   UNL     1      -0.284  -1.630   0.877  1.00  0.00    -0.482 OA
ATOM      5  C   UNL     1      -1.630  -1.921   0.729  1.00  0.00     0.233 C 
ATOM      6  C   UNL     1      -2.453  -0.831   1.437  1.00  0.00     0.172 C 
ATOM      7  C   UNL     1      -2.139   0.545   0.793  1.00  0.00     0.093 C 
ATOM      8  C   UNL     1      -0.655   0.714   0.487  1.00  0.00     0.047 A 
ATOM      9  C   UNL     1      -0.146   1.976   0.131  1.00  0.00     0.135 A 
ATOM     10  O   UNL     1      -0.970   3.053   0.068  1.00  0.00    -0.482 OA
ATOM     11  C   UNL     1      -0.519   4.349   0.222  1.00  0.00     0.232 C 
ATOM     12  C   UNL     1       0.741   4.558  -0.668  1.00  0.00     0.164 C 
ATOM     13  C   UNL     1       1.798   3.468  -0.493  1.00  0.00     0.079 C 
ATOM     14  C   UNL     1       1.219   2.125  -0.159  1.00  0.00     0.040 A 
ATOM     15  C   UNL     1       2.069   1.024  -0.115  1.00  0.00     0.135 A 
ATOM     16  O   UNL     1       3.346   1.150  -0.577  1.00  0.00    -0.482 OA
ATOM     17  C   UNL     1       4.016   0.104  -1.214  1.00  0.00     0.233 C 
ATOM     18  C   UNL     1       3.379  -1.296  -0.953  1.00  0.00     0.172 C 
ENDROOT
BRANCH   1  19
ATOM     19  C   UNL     1       2.241  -2.635   0.970  1.00  0.00     0.005 A 
ATOM     20  C   UNL     1       1.473  -5.060   2.194  1.00  0.00     0.122 A 
ATOM     21  C   UNL     1       2.015  -4.028   2.955  1.00  0.00     0.047 A 
ATOM     22  C   UNL     1       1.312  -4.877   0.804  1.00  0.00     0.093 A 
ATOM     23  C   UNL     1       2.393  -2.838   2.357  1.00  0.00     0.012 A 
ATOM     24  C   UNL     1       1.684  -3.668   0.184  1.00  0.00     0.126 A 
BRANCH  20  25
ATOM     25  O   UNL     1       1.123  -6.207   2.824  1.00  0.00    -0.497 OA
ATOM     26  C   UNL     1       0.626  -7.337   2.209  1.00  0.00     0.278 C 
ENDBRANCH  20  25
BRANCH  24  27
ATOM     27  O   UNL     1       1.529  -3.476  -1.150  1.00  0.00    -0.496 OA
ATOM     28  C   UNL     1       1.053  -4.395  -2.058  1.00  0.00     0.278 C 
ENDBRANCH  24  27
ENDBRANCH   1  19
BRANCH  18  29
ATOM     29  O   UNL     1       4.301  -2.346  -1.121  1.00  0.00    -0.388 OA
ATOM     30  H   UNL     1       4.857  -2.395  -0.300  1.00  0.00     0.211 HD
ENDBRANCH  18  29
BRANCH  17  31
ATOM     31  C   UNL     1       5.504   0.120  -0.949  1.00  0.00    -0.001 A 
ATOM     32  C   UNL     1       6.063   0.192   0.334  1.00  0.00     0.012 A 
ATOM     33  C   UNL     1       6.349  -0.023  -2.056  1.00  0.00     0.058 A 
ATOM     34  C   UNL     1       7.454   0.122   0.493  1.00  0.00     0.051 A 
ATOM     35  C   UNL     1       7.738  -0.118  -1.911  1.00  0.00     0.161 A 
ATOM     36  C   UNL     1       8.301  -0.041  -0.628  1.00  0.00     0.160 A 
BRANCH  35  37
ATOM     37  O   UNL     1       8.549  -0.309  -2.988  1.00  0.00    -0.493 OA
ATOM     38  C   UNL     1       8.112  -0.483  -4.289  1.00  0.00     0.278 C 
ENDBRANCH  35  37
BRANCH  36  39
ATOM     39  O   UNL     1       9.651  -0.146  -0.514  1.00  0.00    -0.493 OA
ATOM     40  C   UNL     1      10.368  -0.113   0.663  1.00  0.00     0.278 C 
ENDBRANCH  36  39
ENDBRANCH  17  31
BRANCH   5  41
ATOM     41  C   UNL     1      -1.964  -3.309   1.227  1.00  0.00    -0.001 A 
ATOM     42  C   UNL     1      -2.586  -4.220   0.361  1.00  0.00     0.012 A 
ATOM     43  C   UNL     1      -1.694  -3.700   2.547  1.00  0.00     0.058 A 
ATOM     44  C   UNL     1      -2.960  -5.484   0.811  1.00  0.00     0.051 A 
ATOM     45  C   UNL     1      -2.069  -4.977   3.014  1.00  0.00     0.161 A 
ATOM     46  C   UNL     1      -2.715  -5.871   2.142  1.00  0.00     0.160 A 
BRANCH  45  47
ATOM     47  O   UNL     1      -1.832  -5.371   4.294  1.00  0.00    -0.493 OA
ATOM     48  C   UNL     1      -1.221  -4.609   5.269  1.00  0.00     0.278 C 
ENDBRANCH  45  47
BRANCH  46  49
ATOM     49  O   UNL     1      -3.087  -7.090   2.616  1.00  0.00    -0.493 OA
ATOM     50  C   UNL     1      -3.755  -8.060   1.896  1.00  0.00     0.278 C 
ENDBRANCH  46  49
ENDBRANCH   5  41
BRANCH   7  51
ATOM     51  C   UNL     1      -3.013   0.780  -0.436  1.00  0.00     0.005 A 
ATOM     52  C   UNL     1      -2.597   0.385  -1.723  1.00  0.00     0.012 A 
ATOM     53  C   UNL     1      -4.280   1.386  -0.279  1.00  0.00     0.126 A 
ATOM     54  C   UNL     1      -3.416   0.597  -2.833  1.00  0.00     0.047 A 
ATOM     55  C   UNL     1      -5.094   1.593  -1.408  1.00  0.00     0.093 A 
ATOM     56  C   UNL     1      -4.667   1.201  -2.689  1.00  0.00     0.122 A 
BRANCH  53  57
ATOM     57  O   UNL     1      -4.691   1.746   0.968  1.00  0.00    -0.496 OA
ATOM     58  C   UNL     1      -5.903   2.317   1.292  1.00  0.00     0.278 C 
ENDBRANCH  53  57
BRANCH  56  59
ATOM     59  O   UNL     1      -5.434   1.387  -3.795  1.00  0.00    -0.497 OA
ATOM     60  C   UNL     1      -6.691   1.958  -3.808  1.00  0.00     0.278 C 
ENDBRANCH  56  59
ENDBRANCH   7  51
BRANCH   6  61
ATOM     61  O   UNL     1      -2.179  -0.802   2.819  1.00  0.00    -0.388 OA
ATOM     62  H   UNL     1      -1.234  -0.533   2.951  1.00  0.00     0.211 HD
ENDBRANCH   6  61
BRANCH  12  63
ATOM     63  O   UNL     1       1.354   5.807  -0.461  1.00  0.00    -0.389 OA
ATOM     64  H   UNL     1       1.536   5.885   0.515  1.00  0.00     0.211 HD
ENDBRANCH  12  63
BRANCH  11  65
ATOM     65  C   UNL     1      -1.665   5.314  -0.099  1.00  0.00    -0.001 A 
ATOM     66  C   UNL     1      -2.941   5.088   0.443  1.00  0.00     0.012 A 
ATOM     67  C   UNL     1      -1.491   6.435  -0.934  1.00  0.00     0.058 A 
ATOM     68  C   UNL     1      -4.004   5.951   0.153  1.00  0.00     0.051 A 
ATOM     69  C   UNL     1      -2.537   7.329  -1.204  1.00  0.00     0.161 A 
ATOM     70  C   UNL     1      -3.807   7.084  -0.666  1.00  0.00     0.160 A 
BRANCH  69  71
ATOM     71  O   UNL     1      -2.338   8.439  -1.969  1.00  0.00    -0.493 OA
ATOM     72  C   UNL     1      -1.122   8.843  -2.492  1.00  0.00     0.278 C 
ENDBRANCH  69  71
BRANCH  70  73
ATOM     73  O   UNL     1      -4.805   7.960  -0.953  1.00  0.00    -0.493 OA
ATOM     74  C   UNL     1      -6.112   7.859  -0.526  1.00  0.00     0.278 C 
ENDBRANCH  70  73
ENDBRANCH  11  65
TORSDOF 18
