REMARK SMILES COC(=O)[C@]12CC[C@H](C)[C@@](C)(O)[C@H]1C1=CC[C@@H]3[C@@]4(C)C[C@@H](O)[C@@H](O)[C@@](C)(CO)[C@H]4CC[C@@]3(C)[C@]1(C)CC2
REMARK SMILES IDX 5 1 6 2 7 3 8 4 9 5 10 6 11 7 13 8 14 9 15 10 16 11 17 12
REMARK SMILES IDX 18 13 19 14 20 15 21 16 23 17 25 18 26 19 29 20 30 21 31 22
REMARK SMILES IDX 32 23 33 24 34 25 35 26 36 27 37 28 3 29 4 30 2 31 1 32
REMARK SMILES IDX 12 33 22 35 27 37 28 38 24 40
REMARK H PARENT 12 34 22 36 28 39 24 41
ROOT
ATOM      1  C   UNL     1       3.587  -0.045   1.115  1.00  0.00     0.077 C 
ATOM      2  C   UNL     1       4.362  -1.376   1.214  1.00  0.00     0.020 C 
ATOM      3  C   UNL     1       5.577  -1.448   0.267  1.00  0.00     0.007 C 
ATOM      4  C   UNL     1       5.377  -0.763  -1.115  1.00  0.00     0.018 C 
ATOM      5  C   UNL     1       6.232   0.523  -1.256  1.00  0.00     0.011 C 
ATOM      6  C   UNL     1       3.856  -0.647  -1.500  1.00  0.00     0.072 C 
ATOM      7  C   UNL     1       3.739   0.151  -2.842  1.00  0.00     0.043 C 
ATOM      8  C   UNL     1       2.948   0.028  -0.361  1.00  0.00     0.064 C 
ATOM      9  C   UNL     1       1.409  -0.310  -0.432  1.00  0.00    -0.061 C 
ATOM     10  C   UNL     1       0.804  -0.743  -1.575  1.00  0.00    -0.026 C 
ATOM     11  C   UNL     1      -0.696  -0.754  -1.834  1.00  0.00     0.032 C 
ATOM     12  C   UNL     1      -1.622  -0.193  -0.708  1.00  0.00     0.006 C 
ATOM     13  C   UNL     1      -3.091   0.217  -1.198  1.00  0.00    -0.023 C 
ATOM     14  C   UNL     1      -3.112   1.252  -2.363  1.00  0.00     0.012 C 
ATOM     15  C   UNL     1      -3.737  -1.103  -1.760  1.00  0.00     0.042 C 
ATOM     16  C   UNL     1      -5.266  -1.118  -1.874  1.00  0.00     0.144 C 
ATOM     17  C   UNL     1      -5.987  -0.554  -0.608  1.00  0.00     0.151 C 
ATOM     18  C   UNL     1      -5.082  -0.128   0.620  1.00  0.00     0.022 C 
ATOM     19  C   UNL     1      -6.017   0.690   1.567  1.00  0.00     0.017 C 
ATOM     20  C   UNL     1      -3.952   0.821   0.007  1.00  0.00     0.006 C 
ATOM     21  C   UNL     1      -3.108   1.719   0.965  1.00  0.00     0.005 C 
ATOM     22  C   UNL     1      -1.775   1.112   1.433  1.00  0.00     0.008 C 
ATOM     23  C   UNL     1      -0.822   0.768   0.250  1.00  0.00    -0.020 C 
ATOM     24  C   UNL     1      -0.363   2.089  -0.452  1.00  0.00     0.012 C 
ATOM     25  C   UNL     1       0.488  -0.037   0.758  1.00  0.00    -0.006 C 
ATOM     26  C   UNL     1       0.130  -1.469   1.331  1.00  0.00     0.017 C 
ATOM     27  C   UNL     1       1.265   0.735   1.875  1.00  0.00     0.013 C 
ATOM     28  C   UNL     1       2.549   0.010   2.276  1.00  0.00     0.020 C 
ENDROOT
BRANCH   1  29
ATOM     29  C   UNL     1       4.535   1.123   1.409  1.00  0.00     0.312 C 
ATOM     30  O   UNL     1       4.336   2.226   0.914  1.00  0.00    -0.252 OA
BRANCH  29  31
ATOM     31  O   UNL     1       5.458   0.985   2.397  1.00  0.00    -0.469 OA
ATOM     32  C   UNL     1       6.322   1.982   2.795  1.00  0.00     0.282 C 
ENDBRANCH  29  31
ENDBRANCH   1  29
BRANCH   6  33
ATOM     33  O   UNL     1       3.399  -1.972  -1.668  1.00  0.00    -0.389 OA
ATOM     34  H   UNL     1       3.799  -2.341  -2.498  1.00  0.00     0.211 HD
ENDBRANCH   6  33
BRANCH  16  35
ATOM     35  O   UNL     1      -5.712  -2.413  -2.204  1.00  0.00    -0.390 OA
ATOM     36  H   UNL     1      -5.414  -3.034  -1.490  1.00  0.00     0.211 HD
ENDBRANCH  16  35
BRANCH  18  37
ATOM     37  C   UNL     1      -4.562  -1.340   1.454  1.00  0.00     0.165 C 
BRANCH  37  38
ATOM     38  O   UNL     1      -3.932  -0.909   2.628  1.00  0.00    -0.396 OA
ATOM     39  H   UNL     1      -3.774  -1.720   3.179  1.00  0.00     0.210 HD
ENDBRANCH  37  38
ENDBRANCH  18  37
BRANCH  17  40
ATOM     40  O   UNL     1      -7.128  -1.298  -0.250  1.00  0.00    -0.390 OA
ATOM     41  H   UNL     1      -6.829  -2.185   0.069  1.00  0.00     0.211 HD
ENDBRANCH  17  40
TORSDOF 7
