REMARK SMILES CCCCCCCCCC(=O)O[C@H](COC(=O)CCCCCCC)COC(=O)CCCCCCCCCC[C@@H](C)CC
REMARK SMILES IDX 27 1 28 2 26 3 25 4 13 5 12 6 10 7 11 8 9 9 8 10 7 11 6 12
REMARK SMILES IDX 5 13 4 14 3 15 2 16 1 17 14 18 15 19 16 20 17 21 18 22 19 23
REMARK SMILES IDX 20 24 21 25 22 26 23 27 24 28 29 29 30 30 31 31 32 32 33 33
REMARK SMILES IDX 34 34 35 35 36 36 37 37 38 38 39 39 40 40 41 41 42 42
REMARK H PARENT
ROOT
ATOM      1  C   UNL     1       1.018   0.128  -2.188  1.00  0.00     0.305 C 
ATOM      2  O   UNL     1       1.717  -0.798  -2.576  1.00  0.00    -0.252 OA
ENDROOT
BRANCH   1   3
ATOM      3  O   UNL     1       0.169  -0.033  -1.143  1.00  0.00    -0.462 OA
BRANCH   3   4
ATOM      4  C   UNL     1       0.178  -1.123  -0.295  1.00  0.00     0.281 C 
BRANCH   4   5
ATOM      5  C   UNL     1      -1.087  -1.106   0.570  1.00  0.00     0.251 C 
BRANCH   5   6
ATOM      6  O   UNL     1      -1.173   0.091   1.269  1.00  0.00    -0.455 OA
BRANCH   6   7
ATOM      7  C   UNL     1      -2.216   0.961   1.156  1.00  0.00     0.306 C 
ATOM      8  O   UNL     1      -3.184   0.681   0.463  1.00  0.00    -0.252 OA
BRANCH   7   9
ATOM      9  C   UNL     1      -2.182   2.263   1.923  1.00  0.00     0.123 C 
BRANCH   9  10
ATOM     10  C   UNL     1      -3.399   3.171   1.650  1.00  0.00     0.012 C 
BRANCH  10  11
ATOM     11  C   UNL     1      -3.409   3.706   0.201  1.00  0.00     0.001 C 
BRANCH  11  12
ATOM     12  C   UNL     1      -4.688   4.473  -0.161  1.00  0.00     0.000 C 
BRANCH  12  13
ATOM     13  C   UNL     1      -4.883   5.775   0.634  1.00  0.00     0.000 C 
BRANCH  13  14
ATOM     14  C   UNL     1      -6.194   6.495   0.271  1.00  0.00    -0.000 C 
BRANCH  14  15
ATOM     15  C   UNL     1      -6.246   6.975  -1.192  1.00  0.00    -0.000 C 
BRANCH  15  16
ATOM     16  C   UNL     1      -7.521   7.767  -1.523  1.00  0.00    -0.003 C 
ATOM     17  C   UNL     1      -8.795   6.926  -1.427  1.00  0.00     0.004 C 
ENDBRANCH  15  16
ENDBRANCH  14  15
ENDBRANCH  13  14
ENDBRANCH  12  13
ENDBRANCH  11  12
ENDBRANCH  10  11
ENDBRANCH   9  10
ENDBRANCH   7   9
ENDBRANCH   6   7
ENDBRANCH   5   6
BRANCH   5  18
ATOM     18  C   UNL     1      -1.108  -2.279   1.566  1.00  0.00     0.281 C 
BRANCH  18  19
ATOM     19  O   UNL     1      -1.155  -3.506   0.923  1.00  0.00    -0.462 OA
BRANCH  19  20
ATOM     20  C   UNL     1      -2.223  -3.956   0.209  1.00  0.00     0.305 C 
ATOM     21  O   UNL     1      -3.220  -3.260   0.077  1.00  0.00    -0.252 OA
BRANCH  20  22
ATOM     22  C   UNL     1      -2.178  -5.323  -0.420  1.00  0.00     0.123 C 
BRANCH  22  23
ATOM     23  C   UNL     1      -3.193  -6.306   0.195  1.00  0.00     0.012 C 
BRANCH  23  24
ATOM     24  C   UNL     1      -4.667  -5.902  -0.014  1.00  0.00     0.001 C 
BRANCH  24  25
ATOM     25  C   UNL     1      -5.660  -6.862   0.659  1.00  0.00     0.000 C 
BRANCH  25  26
ATOM     26  C   UNL     1      -5.661  -8.273   0.056  1.00  0.00    -0.000 C 
BRANCH  26  27
ATOM     27  C   UNL     1      -6.711  -9.148   0.751  1.00  0.00    -0.003 C 
ATOM     28  C   UNL     1      -6.741 -10.552   0.155  1.00  0.00     0.004 C 
ENDBRANCH  26  27
ENDBRANCH  25  26
ENDBRANCH  24  25
ENDBRANCH  23  24
ENDBRANCH  22  23
ENDBRANCH  20  22
ENDBRANCH  19  20
ENDBRANCH  18  19
ENDBRANCH   5  18
ENDBRANCH   4   5
ENDBRANCH   3   4
ENDBRANCH   1   3
BRANCH   1  29
ATOM     29  C   UNL     1       1.079   1.454  -2.895  1.00  0.00     0.123 C 
BRANCH  29  30
ATOM     30  C   UNL     1       1.643   2.555  -1.983  1.00  0.00     0.012 C 
BRANCH  30  31
ATOM     31  C   UNL     1       3.105   2.264  -1.604  1.00  0.00     0.001 C 
BRANCH  31  32
ATOM     32  C   UNL     1       3.704   3.380  -0.738  1.00  0.00     0.000 C 
BRANCH  32  33
ATOM     33  C   UNL     1       5.209   3.215  -0.434  1.00  0.00     0.000 C 
BRANCH  33  34
ATOM     34  C   UNL     1       5.616   2.206   0.667  1.00  0.00     0.000 C 
BRANCH  34  35
ATOM     35  C   UNL     1       5.378   0.706   0.411  1.00  0.00     0.000 C 
BRANCH  35  36
ATOM     36  C   UNL     1       6.002   0.160  -0.891  1.00  0.00     0.000 C 
BRANCH  36  37
ATOM     37  C   UNL     1       7.526   0.346  -1.013  1.00  0.00     0.000 C 
BRANCH  37  38
ATOM     38  C   UNL     1       8.304  -0.354   0.117  1.00  0.00     0.003 C 
BRANCH  38  39
ATOM     39  C   UNL     1       9.845  -0.285  -0.047  1.00  0.00    -0.015 C 
ATOM     40  C   UNL     1      10.346   1.171  -0.082  1.00  0.00     0.007 C 
BRANCH  39  41
ATOM     41  C   UNL     1      10.571  -1.023   1.107  1.00  0.00    -0.000 C 
ATOM     42  C   UNL     1      10.272  -2.522   1.174  1.00  0.00     0.004 C 
ENDBRANCH  39  41
ENDBRANCH  38  39
ENDBRANCH  37  38
ENDBRANCH  36  37
ENDBRANCH  35  36
ENDBRANCH  34  35
ENDBRANCH  33  34
ENDBRANCH  32  33
ENDBRANCH  31  32
ENDBRANCH  30  31
ENDBRANCH  29  30
ENDBRANCH   1  29
TORSDOF 34
