REMARK SMILES CCCCCC=CCC=CCCCCCCCC(=O)O
REMARK SMILES IDX 11 1 10 2 9 3 8 4 7 5 6 6 5 7 4 8 3 9 2 10 1 11 12 12 13 13
REMARK SMILES IDX 14 14 15 15 16 16 17 17 18 18 19 19 20 20
REMARK H PARENT 20 21
ROOT
ATOM      1  C   UNL     1       1.366  -1.270   0.128  1.00  0.00     0.027 C 
ENDROOT
BRANCH   1   2
ATOM      2  C   UNL     1       0.313  -0.935   1.156  1.00  0.00    -0.031 C 
ATOM      3  C   UNL     1      -0.996  -0.710   0.921  1.00  0.00    -0.027 C 
BRANCH   3   4
ATOM      4  C   UNL     1      -1.690  -0.719  -0.419  1.00  0.00     0.054 C 
BRANCH   4   5
ATOM      5  C   UNL     1      -2.727  -1.814  -0.429  1.00  0.00    -0.027 C 
ATOM      6  C   UNL     1      -4.059  -1.666  -0.569  1.00  0.00    -0.031 C 
BRANCH   6   7
ATOM      7  C   UNL     1      -4.812  -0.368  -0.743  1.00  0.00     0.027 C 
BRANCH   7   8
ATOM      8  C   UNL     1      -5.786  -0.177   0.422  1.00  0.00     0.004 C 
BRANCH   8   9
ATOM      9  C   UNL     1      -6.585   1.127   0.266  1.00  0.00     0.000 C 
BRANCH   9  10
ATOM     10  C   UNL     1      -7.522   1.405   1.452  1.00  0.00    -0.003 C 
ATOM     11  C   UNL     1      -8.632   0.364   1.605  1.00  0.00     0.004 C 
ENDBRANCH   9  10
ENDBRANCH   8   9
ENDBRANCH   7   8
ENDBRANCH   6   7
ENDBRANCH   4   5
ENDBRANCH   3   4
ENDBRANCH   1   2
BRANCH   1  12
ATOM     12  C   UNL     1       2.449  -0.186   0.103  1.00  0.00     0.004 C 
BRANCH  12  13
ATOM     13  C   UNL     1       3.520  -0.527  -0.943  1.00  0.00     0.000 C 
BRANCH  13  14
ATOM     14  C   UNL     1       4.607   0.548  -1.090  1.00  0.00     0.000 C 
BRANCH  14  15
ATOM     15  C   UNL     1       5.463   0.719   0.177  1.00  0.00     0.001 C 
BRANCH  15  16
ATOM     16  C   UNL     1       6.591   1.757   0.009  1.00  0.00     0.012 C 
BRANCH  16  17
ATOM     17  C   UNL     1       7.628   1.399  -1.071  1.00  0.00     0.122 C 
BRANCH  17  18
ATOM     18  C   UNL     1       8.300   0.078  -0.797  1.00  0.00     0.303 C 
ATOM     19  O   UNL     1       8.939  -0.077   0.231  1.00  0.00    -0.252 OA
BRANCH  18  20
ATOM     20  O   UNL     1       8.203  -0.943  -1.676  1.00  0.00    -0.481 OA
ATOM     21  H   UNL     1       7.700  -0.864  -2.498  1.00  0.00     0.296 HD
ENDBRANCH  18  20
ENDBRANCH  17  18
ENDBRANCH  16  17
ENDBRANCH  15  16
ENDBRANCH  14  15
ENDBRANCH  13  14
ENDBRANCH  12  13
ENDBRANCH   1  12
TORSDOF 15
