REMARK SMILES NS(=O)(=O)c1ccc(N2CCCC2=O)c([N+](=O)[O-])c1
REMARK SMILES IDX 5 1 6 2 7 3 8 4 15 5 19 6 2 7 3 8 4 9 1 10 16 13 17 14 18 15
REMARK SMILES IDX 9 16 10 17 13 18 11 19 12 20 14 21
REMARK H PARENT 1 11 1 12
ROOT
ATOM      1  C   UNL     1       2.408   0.087   0.362  1.00  0.00     0.089 A 
ATOM      2  C   UNL     1       1.559  -0.093   1.449  1.00  0.00     0.024 A 
ATOM      3  C   UNL     1       0.180  -0.138   1.261  1.00  0.00     0.035 A 
ATOM      4  C   UNL     1      -0.390   0.006  -0.021  1.00  0.00     0.122 A 
ATOM      5  C   UNL     1       0.483   0.153  -1.150  1.00  0.00     0.294 A 
ATOM      6  C   UNL     1       1.875   0.203  -0.923  1.00  0.00     0.109 A 
ENDROOT
BRANCH   1   7
ATOM      7  S   UNL     1       4.182   0.142   0.619  1.00  0.00     0.238 S 
ATOM      8  O   UNL     1       4.962   0.661  -0.599  1.00  0.00    -0.207 OA
ATOM      9  O   UNL     1       4.583   1.145   1.711  1.00  0.00    -0.207 OA
BRANCH   7  10
ATOM     10  N   UNL     1       4.974  -1.370   1.072  1.00  0.00    -0.225 NA
ATOM     11  H   UNL     1       5.999  -1.185   1.157  1.00  0.00     0.137 HD
ATOM     12  H   UNL     1       4.836  -2.046   0.288  1.00  0.00     0.137 HD
ENDBRANCH   7  10
ENDBRANCH   1   7
BRANCH   5  13
ATOM     13  N   UNL     1       0.018   0.184  -2.508  1.00  0.00     0.065 N 
ATOM     14  O   UNL     1      -1.081  -0.185  -2.789  1.00  0.00    -0.258 OA
ATOM     15  O   UNL     1       0.867   0.408  -3.490  1.00  0.00    -0.258 OA
ENDBRANCH   5  13
BRANCH   4  16
ATOM     16  N   UNL     1      -1.823   0.016  -0.126  1.00  0.00    -0.306 N 
ATOM     17  C   UNL     1      -2.714  -0.717   0.747  1.00  0.00     0.126 C 
ATOM     18  C   UNL     1      -2.543   0.950  -0.798  1.00  0.00     0.227 C 
ATOM     19  C   UNL     1      -4.068  -0.553   0.066  1.00  0.00     0.032 C 
ATOM     20  C   UNL     1      -4.005   0.846  -0.534  1.00  0.00     0.102 C 
ATOM     21  O   UNL     1      -2.038   1.882  -1.407  1.00  0.00    -0.275 OA
ENDBRANCH   4  16
TORSDOF 4
