REMARK SMILES C=C1CCC[C@]2(C)C[C@H]3OC(=O)[C@H](CNCCc4ccc(OC)cc4)[C@H]3C[C@H]12
REMARK SMILES IDX 16 1 15 2 14 4 13 5 1 6 2 7 3 8 28 9 4 10 27 11 6 12 5 13
REMARK SMILES IDX 26 14 8 15 9 16 11 17 10 18 12 19 7 20 17 21 18 22 19 23
REMARK SMILES IDX 25 24 20 25 24 26 21 27 22 28 23 29
REMARK H PARENT 15 3
ROOT
ATOM      1  C   UNL     1       2.266   0.362  -1.399  1.00  0.00     0.085 C 
ENDROOT
BRANCH   1   2
ATOM      2  N   UNL     1       1.881  -0.580  -0.335  1.00  0.00    -0.316 NA
ATOM      3  H   UNL     1       1.526  -1.467  -0.756  1.00  0.00     0.122 HD
BRANCH   2   4
ATOM      4  C   UNL     1       0.956  -0.086   0.713  1.00  0.00     0.096 C 
BRANCH   4   5
ATOM      5  C   UNL     1      -0.457   0.399   0.260  1.00  0.00     0.120 C 
ATOM      6  C   UNL     1      -4.303  -2.917   1.626  1.00  0.00     0.008 C 
ATOM      7  C   UNL     1      -4.593  -1.668   1.204  1.00  0.00    -0.074 C 
ATOM      8  C   UNL     1      -6.059  -1.286   1.266  1.00  0.00     0.031 C 
ATOM      9  C   UNL     1      -3.507  -0.700   0.668  1.00  0.00     0.021 C 
ATOM     10  C   UNL     1      -6.345   0.134   0.802  1.00  0.00     0.005 C 
ATOM     11  C   UNL     1      -2.283  -1.471   0.057  1.00  0.00     0.017 C 
ATOM     12  C   UNL     1      -4.065   0.455  -0.295  1.00  0.00    -0.022 C 
ATOM     13  C   UNL     1      -5.610   0.370  -0.511  1.00  0.00     0.008 C 
ATOM     14  C   UNL     1      -1.254  -0.569  -0.649  1.00  0.00     0.046 C 
ATOM     15  C   UNL     1      -3.423   0.349  -1.711  1.00  0.00     0.053 C 
ATOM     16  C   UNL     1      -1.879   0.319  -1.750  1.00  0.00     0.181 C 
ATOM     17  C   UNL     1      -0.484   1.641  -0.550  1.00  0.00     0.310 C 
ATOM     18  O   UNL     1      -1.305   1.562  -1.611  1.00  0.00    -0.462 OA
ATOM     19  O   UNL     1       0.033   2.688  -0.206  1.00  0.00    -0.252 OA
ATOM     20  C   UNL     1      -3.765   1.856   0.314  1.00  0.00     0.012 C 
ENDBRANCH   4   5
ENDBRANCH   2   4
ENDBRANCH   1   2
BRANCH   1  21
ATOM     21  C   UNL     1       3.156   1.506  -0.883  1.00  0.00     0.051 C 
BRANCH  21  22
ATOM     22  C   UNL     1       4.466   1.000  -0.324  1.00  0.00    -0.046 A 
ATOM     23  C   UNL     1       5.373   0.321  -1.154  1.00  0.00     0.007 A 
ATOM     24  C   UNL     1       4.801   1.216   1.021  1.00  0.00     0.007 A 
ATOM     25  C   UNL     1       6.591  -0.141  -0.647  1.00  0.00     0.046 A 
ATOM     26  C   UNL     1       6.020   0.754   1.529  1.00  0.00     0.046 A 
ATOM     27  C   UNL     1       6.925   0.073   0.705  1.00  0.00     0.118 A 
BRANCH  27  28
ATOM     28  O   UNL     1       8.097  -0.353   1.244  1.00  0.00    -0.497 OA
ATOM     29  C   UNL     1       9.094  -1.029   0.570  1.00  0.00     0.278 C 
ENDBRANCH  27  28
ENDBRANCH  21  22
ENDBRANCH   1  21
TORSDOF 6
