REMARK SMILES C[C@H]1CCC[C@]2(C)C[C@H]3OC(=O)[C@@H](CN(C)CCc4ccccn4)[C@H]3C=C12
REMARK SMILES IDX 15 1 16 2 14 3 13 4 2 5 3 6 27 7 4 8 26 9 6 10 5 11 25 12
REMARK SMILES IDX 8 13 9 14 11 15 10 16 12 17 1 18 7 19 17 20 18 21 19 22
REMARK SMILES IDX 20 23 24 24 21 25 23 26 22 27
REMARK H PARENT
ROOT
ATOM      1  N   UNL     1       2.357   1.745  -0.549  1.00  0.00    -0.305 NA
ATOM      2  C   UNL     1       2.998   2.631  -1.536  1.00  0.00     0.105 C 
ENDROOT
BRANCH   1   3
ATOM      3  C   UNL     1       1.163   1.051  -1.080  1.00  0.00     0.100 C 
BRANCH   3   4
ATOM      4  C   UNL     1      -0.061   1.994  -1.111  1.00  0.00     0.124 C 
ATOM      5  C   UNL     1      -2.742  -1.826   0.324  1.00  0.00     0.012 C 
ATOM      6  C   UNL     1      -3.871  -2.047   1.346  1.00  0.00     0.008 C 
ATOM      7  C   UNL     1      -2.640  -0.347  -0.100  1.00  0.00    -0.065 C 
ATOM      8  C   UNL     1      -5.216  -1.393   0.974  1.00  0.00     0.001 C 
ATOM      9  C   UNL     1      -1.647   0.010  -0.956  1.00  0.00    -0.019 C 
ATOM     10  C   UNL     1      -3.738   0.656   0.314  1.00  0.00    -0.008 C 
ATOM     11  C   UNL     1      -5.083  -0.097   0.142  1.00  0.00     0.011 C 
ATOM     12  C   UNL     1      -1.417   1.403  -1.536  1.00  0.00     0.068 C 
ATOM     13  C   UNL     1      -3.764   1.862  -0.680  1.00  0.00     0.057 C 
ATOM     14  C   UNL     1      -2.383   2.461  -0.944  1.00  0.00     0.185 C 
ATOM     15  C   UNL     1      -0.465   2.575   0.198  1.00  0.00     0.311 C 
ATOM     16  O   UNL     1      -1.765   2.919   0.200  1.00  0.00    -0.461 OA
ATOM     17  O   UNL     1       0.214   2.572   1.212  1.00  0.00    -0.252 OA
ATOM     18  C   UNL     1      -1.428  -2.347   0.941  1.00  0.00     0.012 C 
ATOM     19  C   UNL     1      -3.581   1.181   1.769  1.00  0.00     0.016 C 
ENDBRANCH   3   4
ENDBRANCH   1   3
BRANCH   1  20
ATOM     20  C   UNL     1       3.314   0.828   0.110  1.00  0.00     0.090 C 
BRANCH  20  21
ATOM     21  C   UNL     1       3.946  -0.219  -0.836  1.00  0.00     0.071 C 
BRANCH  21  22
ATOM     22  C   UNL     1       4.898  -1.189  -0.167  1.00  0.00     0.042 A 
ATOM     23  C   UNL     1       5.191  -1.172   1.213  1.00  0.00     0.024 A 
ATOM     24  N   UNL     1       5.499  -2.126  -0.954  1.00  0.00    -0.261 NA
ATOM     25  C   UNL     1       6.082  -2.108   1.740  1.00  0.00     0.003 A 
ATOM     26  C   UNL     1       6.371  -3.044  -0.456  1.00  0.00     0.111 A 
ATOM     27  C   UNL     1       6.678  -3.050   0.904  1.00  0.00     0.020 A 
ENDBRANCH  21  22
ENDBRANCH  20  21
ENDBRANCH   1  20
TORSDOF 5
