REMARK SMILES Nc1cc(CCCOc2cc(CC[C@@H](O)[C@H]3CC#C[C@@H](CCO)CCCC[C@@H]3O)ccc2O)ccn1
REMARK SMILES IDX 12 1 11 2 9 3 10 4 32 5 31 6 30 7 8 8 7 9 6 10 5 11 4 12
REMARK SMILES IDX 2 13 3 14 36 15 35 16 34 17 1 18 33 21 13 23 14 24 15 25
REMARK SMILES IDX 16 27 17 28 18 29 19 30 20 31 21 32 22 33 23 34 24 36 25 37
REMARK SMILES IDX 26 38 27 39 28 41 29 43
REMARK H PARENT 1 19 1 20 33 22 15 26 23 35 29 44
REMARK Flexibility Score:  184.900
ROOT
ATOM      1  C   UNL     1      -0.505   0.493   2.165  1.00  0.00     0.038 C 
ENDROOT
BRANCH   1   2
ATOM      2  C   UNL     1       0.799   1.166   1.765  1.00  0.00    -0.044 A 
ATOM      3  C   UNL     1       2.987   1.120   0.659  1.00  0.00     0.161 A 
ATOM      4  C   UNL     1       1.800   0.470   1.060  1.00  0.00     0.054 A 
ATOM      5  C   UNL     1       3.172   2.471   0.983  1.00  0.00     0.157 A 
ATOM      6  C   UNL     1       2.191   3.160   1.708  1.00  0.00     0.050 A 
ATOM      7  C   UNL     1       1.017   2.513   2.098  1.00  0.00     0.008 A 
BRANCH   3   8
ATOM      8  O   UNL     1       3.966   0.495  -0.050  1.00  0.00    -0.490 OA
BRANCH   8   9
ATOM      9  C   UNL     1       4.091  -0.858  -0.311  1.00  0.00     0.230 C 
BRANCH   9  10
ATOM     10  C   UNL     1       4.450  -1.646   0.962  1.00  0.00     0.046 C 
BRANCH  10  11
ATOM     11  C   UNL     1       5.726  -1.115   1.641  1.00  0.00     0.039 C 
BRANCH  11  12
ATOM     12  C   UNL     1       6.944  -1.200   0.752  1.00  0.00    -0.043 A 
ATOM     13  C   UNL     1       8.560  -2.500  -0.505  1.00  0.00     0.123 A 
ATOM     14  C   UNL     1       7.426  -2.445   0.315  1.00  0.00     0.050 A 
ATOM     15  N   UNL     1       9.184  -1.348  -0.875  1.00  0.00    -0.240 NA
ATOM     16  C   UNL     1       8.740  -0.130  -0.467  1.00  0.00     0.114 A 
ATOM     17  C   UNL     1       7.615  -0.034   0.355  1.00  0.00     0.024 A 
BRANCH  13  18
ATOM     18  N   UNL     1       9.065  -3.743  -0.951  1.00  0.00    -0.384 N 
ATOM     19  H   UNL     1       8.608  -4.628  -0.679  1.00  0.00     0.158 HD
ATOM     20  H   UNL     1       9.901  -3.778  -1.551  1.00  0.00     0.158 HD
ENDBRANCH  13  18
ENDBRANCH  11  12
ENDBRANCH  10  11
ENDBRANCH   9  10
ENDBRANCH   8   9
ENDBRANCH   3   8
BRANCH   5  21
ATOM     21  O   UNL     1       4.302   3.100   0.596  1.00  0.00    -0.504 OA
ATOM     22  H   UNL     1       4.469   4.032   0.795  1.00  0.00     0.293 HD
ENDBRANCH   5  21
ENDBRANCH   1   2
BRANCH   1  23
ATOM     23  C   UNL     1      -1.497   0.323   0.987  1.00  0.00     0.037 C 
BRANCH  23  24
ATOM     24  C   UNL     1      -1.030  -0.657  -0.114  1.00  0.00     0.121 C 
BRANCH  24  25
ATOM     25  O   UNL     1      -0.724  -1.915   0.441  1.00  0.00    -0.393 OA
ATOM     26  H   UNL     1      -1.490  -2.195   1.006  1.00  0.00     0.210 HD
ENDBRANCH  24  25
BRANCH  24  27
ATOM     27  C   UNL     1      -1.908  -0.833  -1.406  1.00  0.00     0.058 C 
BRANCH  27  28
ATOM     28  C   UNL     1      -3.190  -1.700  -1.229  1.00  0.00     0.098 C 
ATOM     29  C   UNL     1      -4.340  -1.028  -0.617  1.00  0.00    -0.103 C 
BRANCH  29  30
ATOM     30  C   UNL     1      -5.266  -0.338  -0.271  1.00  0.00    -0.100 C 
ATOM     31  C   UNL     1      -6.399   0.592  -0.105  1.00  0.00     0.066 C 
BRANCH  31  32
ATOM     32  C   UNL     1      -7.022   0.464   1.300  1.00  0.00     0.045 C 
BRANCH  32  33
ATOM     33  C   UNL     1      -7.735  -0.881   1.524  1.00  0.00     0.157 C 
BRANCH  33  34
ATOM     34  O   UNL     1      -6.830  -1.953   1.499  1.00  0.00    -0.396 OA
ATOM     35  H   UNL     1      -6.971  -2.437   0.643  1.00  0.00     0.210 HD
ENDBRANCH  33  34
ENDBRANCH  32  33
ENDBRANCH  31  32
BRANCH  31  36
ATOM     36  C   UNL     1      -5.911   2.038  -0.380  1.00  0.00     0.017 C 
BRANCH  36  37
ATOM     37  C   UNL     1      -5.549   2.345  -1.865  1.00  0.00     0.001 C 
BRANCH  37  38
ATOM     38  C   UNL     1      -4.470   1.456  -2.522  1.00  0.00     0.003 C 
BRANCH  38  39
ATOM     39  C   UNL     1      -3.102   1.558  -1.816  1.00  0.00     0.032 CG0
ATOM     40  G   UNL     1      -2.046   0.499  -2.256  1.00  0.00     0.000 G0
ENDBRANCH  38  39
ENDBRANCH  37  38
ENDBRANCH  36  37
ENDBRANCH  31  36
ENDBRANCH  29  30
ENDBRANCH  27  28
BRANCH  27  41
ATOM     41  C   UNL     1      -2.046   0.499  -2.256  1.00  0.00     0.121 CG0
ATOM     42  G   UNL     1      -3.102   1.558  -1.816  1.00  0.00     0.000 G0
BRANCH  41  43
ATOM     43  O   UNL     1      -2.150   0.235  -3.633  1.00  0.00    -0.393 OA
ATOM     44  H   UNL     1      -2.904  -0.394  -3.764  1.00  0.00     0.210 HD
ENDBRANCH  41  43
ENDBRANCH  27  41
ENDBRANCH  24  27
ENDBRANCH  23  24
ENDBRANCH   1  23
TORSDOF 16
