REMARK SMILES CCCCC[C]CC[C]CCCCCCCCCCCCC(=O)OC[C@H](COC(=O)CCCCCCC)OC(=O)CCCCCCCCCCCCCCCCCCCC
REMARK SMILES IDX 25 1 24 2 22 3 23 4 21 5 20 6 19 7 18 8 17 9 16 10 15 11
REMARK SMILES IDX 14 12 13 13 12 14 11 15 10 16 9 17 8 18 7 19 6 20 5 21 4 22
REMARK SMILES IDX 3 23 2 24 1 25 26 26 27 27 28 28 29 29 30 30 31 31 32 32
REMARK SMILES IDX 33 33 34 34 35 35 36 36 37 37 38 38 39 39 40 40 41 41 42 42
REMARK SMILES IDX 43 43 44 44 45 45 46 46 47 47 48 48 49 49 50 50 51 51 52 52
REMARK SMILES IDX 53 53 54 54 55 55 56 56 57 57 58 58 59 59 60 60
REMARK H PARENT
ROOT
ATOM      1  C   UNL     1      -1.626  -1.949  -0.077  1.00  0.00     0.281 C 
ENDROOT
BRANCH   1   2
ATOM      2  O   UNL     1      -0.980  -0.652   0.209  1.00  0.00    -0.462 OA
BRANCH   2   3
ATOM      3  C   UNL     1       0.407  -0.287  -0.007  1.00  0.00     0.305 C 
ATOM      4  O   UNL     1       1.173  -1.183  -0.333  1.00  0.00    -0.252 OA
BRANCH   3   5
ATOM      5  C   UNL     1       1.090   1.205   0.141  1.00  0.00     0.123 C 
BRANCH   5   6
ATOM      6  C   UNL     1       2.743   1.468  -0.032  1.00  0.00     0.012 C 
BRANCH   6   7
ATOM      7  C   UNL     1       3.525   2.963   0.030  1.00  0.00     0.001 C 
BRANCH   7   8
ATOM      8  C   UNL     1       5.196   3.000   0.000  1.00  0.00     0.000 C 
BRANCH   8   9
ATOM      9  C   UNL     1       6.495   3.750   0.000  1.00  0.00     0.000 C 
BRANCH   9  10
ATOM     10  C   UNL     1       7.794   4.500   0.000  1.00  0.00     0.000 C 
BRANCH  10  11
ATOM     11  C   UNL     1       9.093   5.250   0.000  1.00  0.00     0.000 C 
BRANCH  11  12
ATOM     12  C   UNL     1      10.392   6.000   0.000  1.00  0.00     0.000 C 
BRANCH  12  13
ATOM     13  C   UNL     1      11.691   6.750   0.000  1.00  0.00     0.000 C 
BRANCH  13  14
ATOM     14  C   UNL     1      13.340   7.066   0.061  1.00  0.00     0.000 C 
BRANCH  14  15
ATOM     15  C   UNL     1      13.944   8.653  -0.041  1.00  0.00     0.001 C 
BRANCH  15  16
ATOM     16  C   UNL     1      15.588   9.000   0.000  1.00  0.00     0.008 C 
BRANCH  16  17
ATOM     17  C   UNL     1      16.887   9.750   0.000  1.00  0.00    -0.017 C 
BRANCH  17  18
ATOM     18  C   UNL     1      18.186  10.500   0.000  1.00  0.00     0.009 C 
BRANCH  18  19
ATOM     19  C   UNL     1      19.486  11.250   0.000  1.00  0.00     0.009 C 
BRANCH  19  20
ATOM     20  C   UNL     1      20.785  12.000   0.000  1.00  0.00    -0.017 C 
BRANCH  20  21
ATOM     21  C   UNL     1      22.084  12.750   0.000  1.00  0.00     0.008 C 
BRANCH  21  22
ATOM     22  C   UNL     1      23.728  13.098   0.033  1.00  0.00     0.001 C 
BRANCH  22  23
ATOM     23  C   UNL     1      24.330  14.688  -0.038  1.00  0.00    -0.000 C 
BRANCH  23  24
ATOM     24  C   UNL     1      25.981  15.000   0.000  1.00  0.00    -0.003 C 
ATOM     25  C   UNL     1      27.280  15.750   0.000  1.00  0.00     0.004 C 
ENDBRANCH  23  24
ENDBRANCH  22  23
ENDBRANCH  21  22
ENDBRANCH  20  21
ENDBRANCH  19  20
ENDBRANCH  18  19
ENDBRANCH  17  18
ENDBRANCH  16  17
ENDBRANCH  15  16
ENDBRANCH  14  15
ENDBRANCH  13  14
ENDBRANCH  12  13
ENDBRANCH  11  12
ENDBRANCH  10  11
ENDBRANCH   9  10
ENDBRANCH   8   9
ENDBRANCH   7   8
ENDBRANCH   6   7
ENDBRANCH   5   6
ENDBRANCH   3   5
ENDBRANCH   2   3
ENDBRANCH   1   2
BRANCH   1  26
ATOM     26  C   UNL     1      -3.220  -2.314   0.332  1.00  0.00     0.251 C 
BRANCH  26  27
ATOM     27  C   UNL     1      -3.707  -3.868  -0.143  1.00  0.00     0.281 C 
BRANCH  27  28
ATOM     28  O   UNL     1      -4.967  -4.576   0.182  1.00  0.00    -0.462 OA
BRANCH  28  29
ATOM     29  C   UNL     1      -5.196  -6.000   0.000  1.00  0.00     0.305 C 
ATOM     30  O   UNL     1      -4.192  -6.661  -0.266  1.00  0.00    -0.252 OA
BRANCH  29  31
ATOM     31  C   UNL     1      -6.495  -6.750   0.000  1.00  0.00     0.123 C 
BRANCH  31  32
ATOM     32  C   UNL     1      -7.794  -7.500   0.000  1.00  0.00     0.012 C 
BRANCH  32  33
ATOM     33  C   UNL     1      -9.093  -8.250   0.000  1.00  0.00     0.001 C 
BRANCH  33  34
ATOM     34  C   UNL     1     -10.392  -9.000   0.000  1.00  0.00     0.000 C 
BRANCH  34  35
ATOM     35  C   UNL     1     -11.691  -9.750   0.000  1.00  0.00    -0.000 C 
BRANCH  35  36
ATOM     36  C   UNL     1     -13.003  -8.984   0.286  1.00  0.00    -0.003 C 
ATOM     37  C   UNL     1     -14.187  -9.953   0.224  1.00  0.00     0.004 C 
ENDBRANCH  35  36
ENDBRANCH  34  35
ENDBRANCH  33  34
ENDBRANCH  32  33
ENDBRANCH  31  32
ENDBRANCH  29  31
ENDBRANCH  28  29
ENDBRANCH  27  28
ENDBRANCH  26  27
BRANCH  26  38
ATOM     38  O   UNL     1      -3.996  -1.233  -0.124  1.00  0.00    -0.455 OA
BRANCH  38  39
ATOM     39  C   UNL     1      -5.311  -0.852   0.055  1.00  0.00     0.306 C 
ATOM     40  O   UNL     1      -6.203  -1.678   0.169  1.00  0.00    -0.252 OA
BRANCH  39  41
ATOM     41  C   UNL     1      -5.593   0.661   0.136  1.00  0.00     0.123 C 
BRANCH  41  42
ATOM     42  C   UNL     1      -7.040   1.313   0.071  1.00  0.00     0.012 C 
BRANCH  42  43
ATOM     43  C   UNL     1      -6.893   2.860   0.340  1.00  0.00     0.001 C 
BRANCH  43  44
ATOM     44  C   UNL     1      -7.854   4.016  -0.152  1.00  0.00     0.000 C 
BRANCH  44  45
ATOM     45  C   UNL     1      -9.200   4.589   0.503  1.00  0.00     0.000 C 
BRANCH  45  46
ATOM     46  C   UNL     1      -9.348   6.093   0.000  1.00  0.00     0.000 C 
BRANCH  46  47
ATOM     47  C   UNL     1     -10.098   7.392   0.000  1.00  0.00     0.000 C 
BRANCH  47  48
ATOM     48  C   UNL     1     -10.848   8.691   0.000  1.00  0.00     0.000 C 
BRANCH  48  49
ATOM     49  C   UNL     1     -11.225  10.306   0.274  1.00  0.00     0.000 C 
BRANCH  49  50
ATOM     50  C   UNL     1     -12.740  10.954  -0.165  1.00  0.00     0.000 C 
BRANCH  50  51
ATOM     51  C   UNL     1     -13.098  12.588   0.000  1.00  0.00     0.000 C 
BRANCH  51  52
ATOM     52  C   UNL     1     -13.848  13.887   0.000  1.00  0.00    -0.000 C 
BRANCH  52  53
ATOM     53  C   UNL     1     -14.598  15.187   0.000  1.00  0.00    -0.000 C 
BRANCH  53  54
ATOM     54  C   UNL     1     -15.348  16.486   0.000  1.00  0.00    -0.000 C 
BRANCH  54  55
ATOM     55  C   UNL     1     -16.098  17.785   0.000  1.00  0.00    -0.000 C 
BRANCH  55  56
ATOM     56  C   UNL     1     -16.848  19.084   0.000  1.00  0.00    -0.000 C 
BRANCH  56  57
ATOM     57  C   UNL     1     -17.184  20.728   0.094  1.00  0.00    -0.000 C 
BRANCH  57  58
ATOM     58  C   UNL     1     -18.770  21.333  -0.059  1.00  0.00    -0.000 C 
BRANCH  58  59
ATOM     59  C   UNL     1     -19.098  22.981   0.000  1.00  0.00    -0.003 C 
ATOM     60  C   UNL     1     -19.848  24.280   0.000  1.00  0.00     0.004 C 
ENDBRANCH  58  59
ENDBRANCH  57  58
ENDBRANCH  56  57
ENDBRANCH  55  56
ENDBRANCH  54  55
ENDBRANCH  53  54
ENDBRANCH  52  53
ENDBRANCH  51  52
ENDBRANCH  50  51
ENDBRANCH  49  50
ENDBRANCH  48  49
ENDBRANCH  47  48
ENDBRANCH  46  47
ENDBRANCH  45  46
ENDBRANCH  44  45
ENDBRANCH  43  44
ENDBRANCH  42  43
ENDBRANCH  41  42
ENDBRANCH  39  41
ENDBRANCH  38  39
ENDBRANCH  26  38
ENDBRANCH   1  26
TORSDOF 53
