REMARK SMILES COc1ccc(/C=C/[C@]23NC(=O)CN2c2ccc(C)cc2C3(C)C)c(OC)c1
REMARK SMILES IDX 3 1 4 2 5 3 6 4 25 5 28 6 2 7 1 8 26 9 27 10 7 11 8 12 9 13
REMARK SMILES IDX 10 14 14 15 22 16 11 17 13 18 15 19 21 20 12 21 16 22 20 23
REMARK SMILES IDX 17 24 18 25 23 27 24 28 19 29
REMARK H PARENT 10 26
ROOT
ATOM      1  C   UNL     1      -5.471  -0.379  -1.006  1.00  0.00     0.122 A 
ATOM      2  C   UNL     1      -5.246   0.823  -0.321  1.00  0.00     0.047 A 
ATOM      3  C   UNL     1      -3.949   1.232  -0.027  1.00  0.00     0.016 A 
ATOM      4  C   UNL     1      -2.832   0.459  -0.397  1.00  0.00     0.017 A 
ATOM      5  C   UNL     1      -3.050  -0.761  -1.095  1.00  0.00     0.129 A 
ATOM      6  C   UNL     1      -4.375  -1.159  -1.387  1.00  0.00     0.093 A 
ENDROOT
BRANCH   1   7
ATOM      7  O   UNL     1      -6.718  -0.818  -1.321  1.00  0.00    -0.497 OA
ATOM      8  C   UNL     1      -7.898  -0.168  -1.022  1.00  0.00     0.278 C 
ENDBRANCH   1   7
BRANCH   5   9
ATOM      9  O   UNL     1      -1.995  -1.520  -1.488  1.00  0.00    -0.496 OA
ATOM     10  C   UNL     1      -2.050  -2.701  -2.198  1.00  0.00     0.278 C 
ENDBRANCH   5   9
BRANCH   4  11
ATOM     11  C   UNL     1      -1.496   1.021  -0.014  1.00  0.00     0.012 C 
ATOM     12  C   UNL     1      -0.291   0.413  -0.103  1.00  0.00     0.025 C 
BRANCH  12  13
ATOM     13  C   UNL     1       1.027   1.071   0.320  1.00  0.00     0.142 C 
ATOM     14  N   UNL     1       0.860   2.496   0.531  1.00  0.00    -0.328 N 
ATOM     15  N   UNL     1       1.951   0.995  -0.802  1.00  0.00    -0.335 N 
ATOM     16  C   UNL     1       1.752   0.314   1.527  1.00  0.00     0.037 C 
ATOM     17  C   UNL     1       1.470   3.183  -0.451  1.00  0.00     0.241 C 
ATOM     18  C   UNL     1       2.174   2.292  -1.405  1.00  0.00     0.219 C 
ATOM     19  C   UNL     1       3.056   0.203  -0.439  1.00  0.00     0.043 A 
ATOM     20  C   UNL     1       2.991  -0.214   0.864  1.00  0.00    -0.014 A 
ATOM     21  O   UNL     1       1.428   4.399  -0.537  1.00  0.00    -0.273 OA
ATOM     22  C   UNL     1       4.155  -0.103  -1.247  1.00  0.00     0.026 A 
ATOM     23  C   UNL     1       4.019  -0.979   1.429  1.00  0.00     0.010 A 
ATOM     24  C   UNL     1       5.194  -0.875  -0.705  1.00  0.00     0.005 A 
ATOM     25  C   UNL     1       5.131  -1.318   0.635  1.00  0.00    -0.051 A 
ATOM     26  H   UNL     1       0.308   2.933   1.284  1.00  0.00     0.166 HD
ATOM     27  C   UNL     1       2.153   1.270   2.672  1.00  0.00     0.021 C 
ATOM     28  C   UNL     1       0.936  -0.859   2.124  1.00  0.00     0.021 C 
ATOM     29  C   UNL     1       6.241  -2.133   1.230  1.00  0.00     0.044 C 
ENDBRANCH  12  13
ENDBRANCH   4  11
TORSDOF 4
