REMARK SMILES CC1=C(O)C(=O)C=C2C1=CC=C1[C@]2(C)CC[C@@]2(C)[C@H]3C[C@@](C)(C(=O)O)CC[C@@]3(C)CC[C@@]12C
REMARK SMILES IDX 1 1 2 2 3 3 5 4 6 5 7 6 8 7 9 8 10 9 11 10 12 11 13 12 14 13
REMARK SMILES IDX 15 14 16 15 17 16 18 17 19 18 20 19 21 20 22 21 26 22 27 23
REMARK SMILES IDX 28 24 29 25 30 26 31 27 32 28 33 29 4 30 23 32 24 33 25 34
REMARK H PARENT 4 31 25 35
ROOT
ATOM      1  C   UNL     1       4.665   1.128  -3.239  1.00  0.00     0.049 C 
ATOM      2  C   UNL     1       4.413   1.358  -1.757  1.00  0.00     0.002 C 
ATOM      3  C   UNL     1       5.077   2.315  -1.045  1.00  0.00     0.166 C 
ATOM      4  C   UNL     1       4.801   2.480   0.395  1.00  0.00     0.220 C 
ATOM      5  O   UNL     1       5.401   3.330   1.035  1.00  0.00    -0.286 OA
ATOM      6  C   UNL     1       3.854   1.594   1.086  1.00  0.00     0.061 C 
ATOM      7  C   UNL     1       3.144   0.652   0.422  1.00  0.00    -0.026 C 
ATOM      8  C   UNL     1       3.390   0.490  -1.048  1.00  0.00    -0.015 C 
ATOM      9  C   UNL     1       2.699  -0.446  -1.720  1.00  0.00     0.009 C 
ATOM     10  C   UNL     1       1.640  -1.242  -1.093  1.00  0.00     0.001 C 
ATOM     11  C   UNL     1       1.357  -1.197   0.228  1.00  0.00    -0.053 C 
ATOM     12  C   UNL     1       2.277  -0.381   1.195  1.00  0.00     0.015 C 
ATOM     13  C   UNL     1       3.365  -1.292   1.835  1.00  0.00     0.021 C 
ATOM     14  C   UNL     1       1.384   0.240   2.336  1.00  0.00     0.016 C 
ATOM     15  C   UNL     1       0.003   0.594   1.798  1.00  0.00     0.009 C 
ATOM     16  C   UNL     1      -0.886  -0.672   1.419  1.00  0.00    -0.020 C 
ATOM     17  C   UNL     1      -1.532  -1.155   2.762  1.00  0.00     0.012 C 
ATOM     18  C   UNL     1      -2.119  -0.160   0.476  1.00  0.00     0.003 C 
ATOM     19  C   UNL     1      -1.931   1.167  -0.325  1.00  0.00     0.023 C 
ATOM     20  C   UNL     1      -3.299   1.762  -0.844  1.00  0.00     0.065 C 
ATOM     21  C   UNL     1      -3.981   2.647   0.230  1.00  0.00     0.024 C 
ATOM     22  C   UNL     1      -4.317   0.631  -1.203  1.00  0.00     0.019 C 
ATOM     23  C   UNL     1      -3.568  -0.592  -1.690  1.00  0.00     0.008 C 
ATOM     24  C   UNL     1      -2.745  -1.244  -0.511  1.00  0.00    -0.029 C 
ATOM     25  C   UNL     1      -3.720  -2.190   0.252  1.00  0.00     0.011 C 
ATOM     26  C   UNL     1      -1.617  -2.037  -1.199  1.00  0.00     0.008 C 
ATOM     27  C   UNL     1      -0.728  -2.768  -0.203  1.00  0.00     0.012 C 
ATOM     28  C   UNL     1       0.062  -1.858   0.801  1.00  0.00    -0.005 C 
ATOM     29  C   UNL     1       0.535  -2.906   1.864  1.00  0.00     0.017 C 
ENDROOT
BRANCH   3  30
ATOM     30  O   UNL     1       6.008   3.145  -1.580  1.00  0.00    -0.504 OA
ATOM     31  H   UNL     1       6.312   3.164  -2.493  1.00  0.00     0.293 HD
ENDBRANCH   3  30
BRANCH  20  32
ATOM     32  C   UNL     1      -2.975   2.648  -2.050  1.00  0.00     0.309 C 
ATOM     33  O   UNL     1      -3.458   2.409  -3.147  1.00  0.00    -0.252 OA
BRANCH  32  34
ATOM     34  O   UNL     1      -2.147   3.710  -1.932  1.00  0.00    -0.481 OA
ATOM     35  H   UNL     1      -1.729   3.953  -1.095  1.00  0.00     0.296 HD
ENDBRANCH  32  34
ENDBRANCH  20  32
TORSDOF 3
