REMARK SMILES O=C1/C(=C\c2cccnc2)c2ccc(Cl)cc2N1CN1C[C@@H]2C[C@@H](C1)c1cccc(=O)n1C2
REMARK SMILES IDX 1 1 2 2 3 3 4 4 11 5 12 6 13 7 14 8 15 9 16 10 17 11 18 12
REMARK SMILES IDX 19 13 20 14 21 15 25 16 22 17 24 18 23 19 33 20 26 21 32 22
REMARK SMILES IDX 27 23 30 24 28 25 29 26 31 27 5 28 6 29 10 30 7 31 9 32 8 33
REMARK H PARENT
ROOT
ATOM      1  O   UNL     1       2.291   1.230  -0.697  1.00  0.00    -0.269 OA
ATOM      2  C   UNL     1       2.278   0.391   0.188  1.00  0.00     0.260 C 
ATOM      3  C   UNL     1       3.131  -0.821   0.274  1.00  0.00     0.050 C 
ATOM      4  C   UNL     1       4.138  -1.275  -0.511  1.00  0.00     0.024 C 
ATOM      5  C   UNL     1       2.602  -1.523   1.455  1.00  0.00     0.011 A 
ATOM      6  C   UNL     1       2.975  -2.735   2.044  1.00  0.00     0.012 A 
ATOM      7  C   UNL     1       2.286  -3.158   3.192  1.00  0.00     0.021 A 
ATOM      8  C   UNL     1       1.246  -2.374   3.732  1.00  0.00     0.043 A 
ATOM      9  Cl  UNL     1       0.394  -2.920   5.165  1.00  0.00    -0.084 Cl
ATOM     10  C   UNL     1       0.885  -1.157   3.128  1.00  0.00     0.047 A 
ATOM     11  C   UNL     1       1.585  -0.750   1.986  1.00  0.00     0.055 A 
ATOM     12  N   UNL     1       1.385   0.413   1.206  1.00  0.00    -0.294 N 
ENDROOT
BRANCH  12  13
ATOM     13  C   UNL     1       0.376   1.440   1.405  1.00  0.00     0.213 C 
BRANCH  13  14
ATOM     14  N   UNL     1      -0.569   1.452   0.274  1.00  0.00    -0.285 NA
ATOM     15  C   UNL     1      -1.419   2.697   0.288  1.00  0.00     0.091 C 
ATOM     16  C   UNL     1      -1.340   0.176   0.185  1.00  0.00     0.096 C 
ATOM     17  C   UNL     1      -2.803   2.514  -0.443  1.00  0.00     0.024 C 
ATOM     18  C   UNL     1      -2.354   0.190  -1.012  1.00  0.00     0.051 C 
ATOM     19  C   UNL     1      -2.453   1.596  -1.619  1.00  0.00     0.018 C 
ATOM     20  C   UNL     1      -4.332   2.241  -0.207  1.00  0.00     0.130 C 
ATOM     21  C   UNL     1      -3.748  -0.194  -0.525  1.00  0.00     0.025 A 
ATOM     22  N   UNL     1      -4.677   0.780  -0.178  1.00  0.00    -0.312 N 
ATOM     23  C   UNL     1      -4.089  -1.550  -0.453  1.00  0.00     0.022 A 
ATOM     24  C   UNL     1      -5.955   0.404   0.204  1.00  0.00     0.250 A 
ATOM     25  C   UNL     1      -5.368  -1.922  -0.052  1.00  0.00     0.007 A 
ATOM     26  C   UNL     1      -6.306  -0.947   0.271  1.00  0.00     0.072 A 
ATOM     27  O   UNL     1      -6.787   1.246   0.498  1.00  0.00    -0.269 OA
ENDBRANCH  13  14
ENDBRANCH  12  13
BRANCH   4  28
ATOM     28  C   UNL     1       4.784  -0.600  -1.670  1.00  0.00    -0.006 A 
ATOM     29  C   UNL     1       4.899   0.797  -1.793  1.00  0.00     0.011 A 
ATOM     30  C   UNL     1       5.371  -1.397  -2.668  1.00  0.00     0.119 A 
ATOM     31  C   UNL     1       5.546   1.358  -2.895  1.00  0.00     0.021 A 
ATOM     32  N   UNL     1       5.989  -0.826  -3.736  1.00  0.00    -0.264 NA
ATOM     33  C   UNL     1       6.082   0.522  -3.872  1.00  0.00     0.111 A 
ENDBRANCH   4  28
TORSDOF 3
