REMARK SMILES CCCCCC=CCC=CCC=CCC=CCC=CC[C]C(=O)O[C](COC(=O)CC[C]CC[C]CCCC[C]CCCCCCCCCCCC)COC(=O)CCCCC[C]CCCCCCCCCCCCCCCCC
REMARK SMILES IDX 25 1 24 2 22 3 23 4 21 5 20 6 19 7 18 8 17 9 16 10 15 11
REMARK SMILES IDX 14 12 13 13 12 14 11 15 10 16 9 17 8 18 7 19 6 20 5 21 4 22
REMARK SMILES IDX 3 23 2 24 1 25 53 26 54 27 55 28 56 29 57 30 58 31 59 32
REMARK SMILES IDX 60 33 61 34 62 35 63 36 64 37 65 38 66 39 67 40 68 41 69 42
REMARK SMILES IDX 70 43 71 44 72 45 73 46 74 47 75 48 76 49 77 50 78 51 79 52
REMARK SMILES IDX 26 53 27 54 28 55 29 56 30 57 31 58 32 59 33 60 34 61 35 62
REMARK SMILES IDX 36 63 37 64 38 65 39 66 40 67 41 68 42 69 43 70 44 71 45 72
REMARK SMILES IDX 46 73 47 74 48 75 49 76 50 77 51 78 52 79
REMARK H PARENT
ROOT
ATOM      1  C   UNL     1      19.486 -11.250   0.000  1.00  0.00     0.226 C 
ENDROOT
BRANCH   1   2
ATOM      2  O   UNL     1      18.300 -10.422   0.090  1.00  0.00    -0.447 OA
BRANCH   2   3
ATOM      3  C   UNL     1      18.186  -9.000   0.000  1.00  0.00     0.315 C 
ATOM      4  O   UNL     1      18.805  -8.329  -0.830  1.00  0.00    -0.251 OA
BRANCH   3   5
ATOM      5  C   UNL     1      16.887  -8.250   0.000  1.00  0.00     0.107 C 
BRANCH   5   6
ATOM      6  C   UNL     1      15.588  -7.500   0.000  1.00  0.00     0.048 C 
BRANCH   6   7
ATOM      7  C   UNL     1      14.051  -7.064   0.000  1.00  0.00    -0.030 C 
ATOM      8  C   UNL     1      12.923  -7.827   0.006  1.00  0.00    -0.027 C 
BRANCH   8   9
ATOM      9  C   UNL     1      11.373  -7.451   0.006  1.00  0.00     0.054 C 
BRANCH   9  10
ATOM     10  C   UNL     1      10.395  -6.191  -0.000  1.00  0.00    -0.027 C 
ATOM     11  C   UNL     1      10.651  -4.858  -0.010  1.00  0.00    -0.027 C 
BRANCH  11  12
ATOM     12  C   UNL     1       9.678  -3.596  -0.016  1.00  0.00     0.054 C 
BRANCH  12  13
ATOM     13  C   UNL     1       8.278  -2.812  -0.021  1.00  0.00    -0.027 C 
ATOM     14  C   UNL     1       6.899  -3.033  -0.013  1.00  0.00    -0.027 C 
BRANCH  14  15
ATOM     15  C   UNL     1       5.917  -1.769  -0.019  1.00  0.00     0.054 C 
BRANCH  15  16
ATOM     16  C   UNL     1       4.337  -1.854  -0.016  1.00  0.00    -0.027 C 
ATOM     17  C   UNL     1       3.501  -0.725  -0.020  1.00  0.00    -0.027 C 
BRANCH  17  18
ATOM     18  C   UNL     1       1.915  -0.728  -0.016  1.00  0.00     0.054 C 
BRANCH  18  19
ATOM     19  C   UNL     1       1.132   0.655  -0.022  1.00  0.00    -0.027 C 
ATOM     20  C   UNL     1      -0.263   0.790  -0.019  1.00  0.00    -0.031 C 
BRANCH  20  21
ATOM     21  C   UNL     1      -1.081   2.154  -0.025  1.00  0.00     0.027 C 
BRANCH  21  22
ATOM     22  C   UNL     1      -2.688   2.044  -0.018  1.00  0.00     0.004 C 
BRANCH  22  23
ATOM     23  C   UNL     1      -3.635   3.370  -0.015  1.00  0.00     0.000 C 
BRANCH  23  24
ATOM     24  C   UNL     1      -5.196   3.000   0.000  1.00  0.00    -0.003 C 
ATOM     25  C   UNL     1      -6.495   3.750   0.000  1.00  0.00     0.004 C 
ENDBRANCH  23  24
ENDBRANCH  22  23
ENDBRANCH  21  22
ENDBRANCH  20  21
ENDBRANCH  18  19
ENDBRANCH  17  18
ENDBRANCH  15  16
ENDBRANCH  14  15
ENDBRANCH  12  13
ENDBRANCH  11  12
ENDBRANCH   9  10
ENDBRANCH   8   9
ENDBRANCH   6   7
ENDBRANCH   5   6
ENDBRANCH   3   5
ENDBRANCH   2   3
ENDBRANCH   1   2
BRANCH   1  26
ATOM     26  C   UNL     1      20.236  -9.951   0.000  1.00  0.00     0.290 C 
BRANCH  26  27
ATOM     27  O   UNL     1      21.060  -9.009  -0.790  1.00  0.00    -0.461 OA
BRANCH  27  28
ATOM     28  C   UNL     1      22.129  -8.194  -0.248  1.00  0.00     0.305 C 
ATOM     29  O   UNL     1      22.639  -8.575   0.794  1.00  0.00    -0.252 OA
BRANCH  28  30
ATOM     30  C   UNL     1      22.726  -6.774  -0.824  1.00  0.00     0.123 C 
BRANCH  30  31
ATOM     31  C   UNL     1      23.986  -6.054   0.000  1.00  0.00     0.012 C 
BRANCH  31  32
ATOM     32  C   UNL     1      24.736  -4.755   0.000  1.00  0.00     0.001 C 
BRANCH  32  33
ATOM     33  C   UNL     1      25.486  -3.456   0.000  1.00  0.00     0.001 C 
BRANCH  33  34
ATOM     34  C   UNL     1      26.037  -2.145   0.927  1.00  0.00     0.008 C 
BRANCH  34  35
ATOM     35  C   UNL     1      26.957  -0.865   0.248  1.00  0.00    -0.017 C 
BRANCH  35  36
ATOM     36  C   UNL     1      27.826   0.403   1.000  1.00  0.00     0.008 C 
BRANCH  36  37
ATOM     37  C   UNL     1      28.532   1.744   0.209  1.00  0.00     0.001 C 
BRANCH  37  38
ATOM     38  C   UNL     1      29.491   2.986   0.903  1.00  0.00     0.000 C 
BRANCH  38  39
ATOM     39  C   UNL     1      29.986   4.338   0.000  1.00  0.00     0.000 C 
BRANCH  39  40
ATOM     40  C   UNL     1      30.736   5.638   0.000  1.00  0.00     0.000 C 
BRANCH  40  41
ATOM     41  C   UNL     1      31.486   6.936   0.000  1.00  0.00     0.000 C 
BRANCH  41  42
ATOM     42  C   UNL     1      32.236   8.236   0.000  1.00  0.00     0.000 C 
BRANCH  42  43
ATOM     43  C   UNL     1      32.986   9.535   0.000  1.00  0.00     0.000 C 
BRANCH  43  44
ATOM     44  C   UNL     1      33.736  10.834   0.000  1.00  0.00    -0.000 C 
BRANCH  44  45
ATOM     45  C   UNL     1      34.282  12.355   0.463  1.00  0.00    -0.000 C 
BRANCH  45  46
ATOM     46  C   UNL     1      35.443  13.205  -0.454  1.00  0.00    -0.000 C 
BRANCH  46  47
ATOM     47  C   UNL     1      35.986  14.731   0.000  1.00  0.00    -0.000 C 
BRANCH  47  48
ATOM     48  C   UNL     1      36.736  16.030   0.000  1.00  0.00    -0.000 C 
BRANCH  48  49
ATOM     49  C   UNL     1      37.486  17.329   0.000  1.00  0.00    -0.000 C 
BRANCH  49  50
ATOM     50  C   UNL     1      37.508  19.049  -0.107  1.00  0.00    -0.000 C 
BRANCH  50  51
ATOM     51  C   UNL     1      38.986  19.927   0.000  1.00  0.00    -0.003 C 
ATOM     52  C   UNL     1      39.736  21.226   0.000  1.00  0.00     0.004 C 
ENDBRANCH  50  51
ENDBRANCH  49  50
ENDBRANCH  48  49
ENDBRANCH  47  48
ENDBRANCH  46  47
ENDBRANCH  45  46
ENDBRANCH  44  45
ENDBRANCH  43  44
ENDBRANCH  42  43
ENDBRANCH  41  42
ENDBRANCH  40  41
ENDBRANCH  39  40
ENDBRANCH  38  39
ENDBRANCH  37  38
ENDBRANCH  36  37
ENDBRANCH  35  36
ENDBRANCH  34  35
ENDBRANCH  33  34
ENDBRANCH  32  33
ENDBRANCH  31  32
ENDBRANCH  30  31
ENDBRANCH  28  30
ENDBRANCH  27  28
ENDBRANCH  26  27
ENDBRANCH   1  26
BRANCH   1  53
ATOM     53  C   UNL     1      18.736 -12.549   0.000  1.00  0.00     0.290 C 
BRANCH  53  54
ATOM     54  O   UNL     1      17.656 -13.319  -0.637  1.00  0.00    -0.461 OA
BRANCH  54  55
ATOM     55  C   UNL     1      17.055 -14.476   0.004  1.00  0.00     0.305 C 
ATOM     56  O   UNL     1      17.157 -14.540   1.220  1.00  0.00    -0.252 OA
BRANCH  55  57
ATOM     57  C   UNL     1      16.384 -15.829  -0.642  1.00  0.00     0.123 C 
BRANCH  57  58
ATOM     58  C   UNL     1      14.986 -16.446   0.000  1.00  0.00     0.020 C 
BRANCH  58  59
ATOM     59  C   UNL     1      14.236 -17.745   0.000  1.00  0.00    -0.017 C 
BRANCH  59  60
ATOM     60  C   UNL     1      13.486 -19.044   0.000  1.00  0.00     0.009 C 
BRANCH  60  61
ATOM     61  C   UNL     1      12.736 -20.343   0.000  1.00  0.00     0.009 C 
BRANCH  61  62
ATOM     62  C   UNL     1      11.986 -21.642   0.000  1.00  0.00    -0.017 C 
BRANCH  62  63
ATOM     63  C   UNL     1      11.236 -22.941   0.000  1.00  0.00     0.008 C 
BRANCH  63  64
ATOM     64  C   UNL     1      10.905 -24.588   0.020  1.00  0.00     0.001 C 
BRANCH  64  65
ATOM     65  C   UNL     1       9.316 -25.191  -0.020  1.00  0.00     0.001 C 
BRANCH  65  66
ATOM     66  C   UNL     1       8.986 -26.838   0.000  1.00  0.00     0.008 C 
BRANCH  66  67
ATOM     67  C   UNL     1       8.236 -28.137   0.000  1.00  0.00    -0.017 C 
BRANCH  67  68
ATOM     68  C   UNL     1       7.486 -29.436   0.000  1.00  0.00     0.008 C 
BRANCH  68  69
ATOM     69  C   UNL     1       6.207 -30.356  -0.641  1.00  0.00     0.001 C 
BRANCH  69  70
ATOM     70  C   UNL     1       5.866 -31.948  -0.110  1.00  0.00     0.000 C 
BRANCH  70  71
ATOM     71  C   UNL     1       4.586 -32.961  -0.617  1.00  0.00     0.000 C 
BRANCH  71  72
ATOM     72  C   UNL     1       4.333 -34.566  -0.089  1.00  0.00     0.000 C 
BRANCH  72  73
ATOM     73  C   UNL     1       3.025 -35.601  -0.482  1.00  0.00     0.000 C 
BRANCH  73  74
ATOM     74  C   UNL     1       2.986 -37.231   0.000  1.00  0.00    -0.000 C 
BRANCH  74  75
ATOM     75  C   UNL     1       2.236 -38.530   0.000  1.00  0.00    -0.000 C 
BRANCH  75  76
ATOM     76  C   UNL     1       1.486 -39.829   0.000  1.00  0.00    -0.000 C 
BRANCH  76  77
ATOM     77  C   UNL     1       2.188 -40.902  -0.850  1.00  0.00    -0.000 C 
BRANCH  77  78
ATOM     78  C   UNL     1       1.438 -42.238  -0.765  1.00  0.00    -0.003 C 
ATOM     79  C   UNL     1       2.135 -43.318  -1.586  1.00  0.00     0.004 C 
ENDBRANCH  77  78
ENDBRANCH  76  77
ENDBRANCH  75  76
ENDBRANCH  74  75
ENDBRANCH  73  74
ENDBRANCH  72  73
ENDBRANCH  71  72
ENDBRANCH  70  71
ENDBRANCH  69  70
ENDBRANCH  68  69
ENDBRANCH  67  68
ENDBRANCH  66  67
ENDBRANCH  65  66
ENDBRANCH  64  65
ENDBRANCH  63  64
ENDBRANCH  62  63
ENDBRANCH  61  62
ENDBRANCH  60  61
ENDBRANCH  59  60
ENDBRANCH  58  59
ENDBRANCH  57  58
ENDBRANCH  55  57
ENDBRANCH  54  55
ENDBRANCH  53  54
ENDBRANCH   1  53
TORSDOF 67
