REMARK SMILES C=C1C(=O)[C@]23[C@H](O)[C@H]1CC[C@H]2[C@]12CC[C@H](O)C(C)(C)[C@H]1C[C@H]3O[C@@H]2OCC
REMARK SMILES IDX 1 1 2 2 3 3 4 4 5 5 6 6 8 7 9 8 10 9 11 10 12 11 13 12 14 13
REMARK SMILES IDX 15 14 17 15 18 16 19 17 20 18 21 19 22 20 23 21 24 22 7 23
REMARK SMILES IDX 25 25 26 26 27 27 16 28
REMARK H PARENT 7 24 16 29
ROOT
ATOM      1  C   UNL     1       3.998  -3.174  -0.044  1.00  0.00     0.017 C 
ATOM      2  C   UNL     1       3.422  -1.995  -0.301  1.00  0.00    -0.006 C 
ATOM      3  C   UNL     1       2.219  -1.788  -1.109  1.00  0.00     0.170 C 
ATOM      4  O   UNL     1       1.539  -2.688  -1.578  1.00  0.00    -0.294 OA
ATOM      5  C   UNL     1       1.748  -0.390  -0.831  1.00  0.00     0.089 C 
ATOM      6  C   UNL     1       3.136   0.317  -0.675  1.00  0.00     0.139 C 
ATOM      7  C   UNL     1       3.856  -0.667   0.277  1.00  0.00     0.052 C 
ATOM      8  C   UNL     1       3.271  -0.522   1.716  1.00  0.00     0.011 C 
ATOM      9  C   UNL     1       1.845   0.102   1.726  1.00  0.00     0.006 C 
ATOM     10  C   UNL     1       0.960  -0.427   0.557  1.00  0.00     0.020 C 
ATOM     11  C   UNL     1      -0.465   0.238   0.328  1.00  0.00     0.029 C 
ATOM     12  C   UNL     1      -1.341   0.317   1.621  1.00  0.00     0.015 C 
ATOM     13  C   UNL     1      -2.062  -1.002   1.866  1.00  0.00     0.033 C 
ATOM     14  C   UNL     1      -3.120  -1.278   0.749  1.00  0.00     0.120 C 
ATOM     15  C   UNL     1      -2.706  -0.794  -0.712  1.00  0.00    -0.006 C 
ATOM     16  C   UNL     1      -3.406   0.556  -1.036  1.00  0.00     0.014 C 
ATOM     17  C   UNL     1      -3.211  -1.796  -1.785  1.00  0.00     0.014 C 
ATOM     18  C   UNL     1      -1.145  -0.687  -0.766  1.00  0.00     0.011 C 
ATOM     19  C   UNL     1      -0.488  -0.410  -2.142  1.00  0.00     0.038 C 
ATOM     20  C   UNL     1       0.869   0.304  -1.910  1.00  0.00     0.138 C 
ATOM     21  O   UNL     1       0.608   1.631  -1.455  1.00  0.00    -0.348 OA
ATOM     22  C   UNL     1      -0.230   1.665  -0.291  1.00  0.00     0.257 C 
ENDROOT
BRANCH   6  23
ATOM     23  O   UNL     1       3.805   0.445  -1.916  1.00  0.00    -0.391 OA
ATOM     24  H   UNL     1       4.073  -0.444  -2.260  1.00  0.00     0.211 HD
ENDBRANCH   6  23
BRANCH  22  25
ATOM     25  O   UNL     1       0.357   2.511   0.682  1.00  0.00    -0.352 OA
BRANCH  25  26
ATOM     26  C   UNL     1      -0.096   3.846   0.577  1.00  0.00     0.160 C 
ATOM     27  C   UNL     1      -1.377   4.045   1.383  1.00  0.00     0.035 C 
ENDBRANCH  25  26
ENDBRANCH  22  25
BRANCH  14  28
ATOM     28  O   UNL     1      -3.480  -2.638   0.798  1.00  0.00    -0.393 OA
ATOM     29  H   UNL     1      -2.659  -3.172   0.634  1.00  0.00     0.210 HD
ENDBRANCH  14  28
TORSDOF 4
