REMARK SMILES CO/C(=C1/NC(=O)[C@@H](Cc2ccc(O)c(Br)c2)N(C)C(=O)[C@H](C)NC(=O)C[C@H](O)C/C=C(/C)CC[C@H](C)OC1=O)c1ccccc1
REMARK SMILES IDX 18 1 19 2 8 3 6 4 5 5 7 6 4 8 3 9 2 10 1 11 41 12 42 13
REMARK SMILES IDX 46 14 43 15 45 16 44 17 39 18 40 19 38 20 36 21 37 22 35 23
REMARK SMILES IDX 34 24 9 26 10 27 11 28 17 29 12 30 15 31 13 32 16 33 14 34
REMARK SMILES IDX 20 36 21 37 22 38 23 39 24 40 25 41 26 42 27 44 28 45 29 46
REMARK SMILES IDX 30 48 31 49 32 50 33 51
REMARK H PARENT 5 7 14 35 24 43 29 47
REMARK Flexibility Score:  116.900
ROOT
ATOM      1  N   UNL     1      -2.111  -1.536   0.024  1.00  0.00    -0.332 N 
ATOM      2  C   UNL     1      -3.165  -2.425   0.496  1.00  0.00     0.147 C 
ENDROOT
BRANCH   1   3
ATOM      3  C   UNL     1      -2.407  -0.082  -0.029  1.00  0.00     0.178 C 
BRANCH   3   4
ATOM      4  C   UNL     1      -1.403   0.692   0.821  1.00  0.00     0.247 C 
ATOM      5  N   UNL     1      -1.343   2.062   0.831  1.00  0.00    -0.315 N 
ATOM      6  O   UNL     1      -0.710   0.038   1.578  1.00  0.00    -0.272 OA
ATOM      7  H   UNL     1      -2.075   2.527   0.287  1.00  0.00     0.170 HD
BRANCH   5   8
ATOM      8  C   UNL     1      -0.399   2.870   1.597  1.00  0.00     0.170 C 
ATOM      9  C   UNL     1      -0.669   4.194   1.878  1.00  0.00     0.157 C 
BRANCH   9  10
ATOM     10  O   UNL     1       0.240   4.886   2.629  1.00  0.00    -0.494 OA
ATOM     11  C   UNL     1       0.332   6.253   2.801  1.00  0.00     0.278 C 
ENDBRANCH   9  10
BRANCH   9  12
ATOM     12  C   UNL     1      -1.891   4.915   1.394  1.00  0.00     0.019 A 
ATOM     13  C   UNL     1      -2.701   5.605   2.315  1.00  0.00     0.012 A 
ATOM     14  C   UNL     1      -2.229   4.967   0.027  1.00  0.00     0.012 A 
ATOM     15  C   UNL     1      -3.823   6.318   1.886  1.00  0.00     0.001 A 
ATOM     16  C   UNL     1      -3.352   5.685  -0.398  1.00  0.00     0.001 A 
ATOM     17  C   UNL     1      -4.148   6.359   0.530  1.00  0.00     0.000 A 
ENDBRANCH   9  12
BRANCH   8  18
ATOM     18  C   UNL     1       0.907   2.274   2.111  1.00  0.00     0.359 C 
ATOM     19  O   UNL     1       1.551   2.834   2.988  1.00  0.00    -0.244 OA
BRANCH  18  20
ATOM     20  O   UNL     1       1.409   1.145   1.554  1.00  0.00    -0.458 OA
BRANCH  20  21
ATOM     21  C   UNL     1       2.480   0.393   2.011  1.00  0.00     0.174 C 
ATOM     22  C   UNL     1       1.946  -1.001   2.375  1.00  0.00     0.053 C 
BRANCH  21  23
ATOM     23  C   UNL     1       3.537   0.342   0.894  1.00  0.00     0.049 C 
BRANCH  23  24
ATOM     24  C   UNL     1       4.745  -0.553   1.242  1.00  0.00     0.034 CG0
ATOM     25  G   UNL     1       5.723  -0.670   0.094  1.00  0.00     0.000 G0
ENDBRANCH  23  24
ENDBRANCH  21  23
ENDBRANCH  20  21
ENDBRANCH  18  20
ENDBRANCH   8  18
ENDBRANCH   5   8
ENDBRANCH   3   4
BRANCH   3  26
ATOM     26  C   UNL     1      -2.502   0.354  -1.517  1.00  0.00     0.070 C 
BRANCH  26  27
ATOM     27  C   UNL     1      -3.601  -0.451  -2.181  1.00  0.00    -0.044 A 
ATOM     28  C   UNL     1      -4.948  -0.206  -1.860  1.00  0.00     0.008 A 
ATOM     29  C   UNL     1      -3.289  -1.489  -3.076  1.00  0.00     0.023 A 
ATOM     30  C   UNL     1      -5.963  -0.985  -2.422  1.00  0.00     0.047 A 
ATOM     31  C   UNL     1      -4.306  -2.280  -3.627  1.00  0.00     0.060 A 
ATOM     32  C   UNL     1      -5.647  -2.030  -3.302  1.00  0.00     0.129 A 
ATOM     33  Br  UNL     1      -3.840  -3.717  -4.800  1.00  0.00    -0.047 Br
BRANCH  32  34
ATOM     34  O   UNL     1      -6.623  -2.799  -3.828  1.00  0.00    -0.507 OA
ATOM     35  H   UNL     1      -7.558  -2.661  -3.618  1.00  0.00     0.293 HD
ENDBRANCH  32  34
ENDBRANCH  26  27
ENDBRANCH   3  26
ENDBRANCH   1   3
BRANCH   1  36
ATOM     36  C   UNL     1      -0.887  -2.022  -0.430  1.00  0.00     0.245 C 
ATOM     37  O   UNL     1      -0.047  -1.225  -0.832  1.00  0.00    -0.272 OA
BRANCH  36  38
ATOM     38  C   UNL     1      -0.506  -3.511  -0.535  1.00  0.00     0.168 C 
ATOM     39  C   UNL     1      -0.379  -4.189   0.842  1.00  0.00     0.041 C 
BRANCH  38  40
ATOM     40  N   UNL     1       0.708  -3.640  -1.371  1.00  0.00    -0.345 N 
ATOM     41  C   UNL     1       1.921  -4.208  -1.056  1.00  0.00     0.223 C 
ATOM     42  O   UNL     1       2.128  -4.708   0.037  1.00  0.00    -0.275 OA
ATOM     43  H   UNL     1       0.617  -3.252  -2.323  1.00  0.00     0.164 HD
BRANCH  41  44
ATOM     44  C   UNL     1       3.039  -4.250  -2.086  1.00  0.00     0.132 C 
BRANCH  44  45
ATOM     45  C   UNL     1       4.348  -3.542  -1.651  1.00  0.00     0.127 C 
BRANCH  45  46
ATOM     46  O   UNL     1       4.939  -4.202  -0.554  1.00  0.00    -0.392 OA
ATOM     47  H   UNL     1       4.486  -3.903   0.276  1.00  0.00     0.210 HD
ENDBRANCH  45  46
BRANCH  45  48
ATOM     48  C   UNL     1       4.130  -2.045  -1.367  1.00  0.00     0.059 C 
BRANCH  48  49
ATOM     49  C   UNL     1       5.435  -1.331  -1.059  1.00  0.00    -0.025 C 
ATOM     50  C   UNL     1       5.723  -0.670   0.094  1.00  0.00    -0.077 CG0
ATOM     51  C   UNL     1       7.082  -0.043   0.278  1.00  0.00     0.039 C 
ATOM     52  G   UNL     1       4.745  -0.553   1.242  1.00  0.00     0.000 G0
ENDBRANCH  48  49
ENDBRANCH  45  48
ENDBRANCH  44  45
ENDBRANCH  41  44
ENDBRANCH  38  40
ENDBRANCH  36  38
ENDBRANCH   1  36
TORSDOF 6
