REMARK SMILES COc1ccc(/C=C/C(=O)O[C@H]2[C@H](O[C@H]3O[C@@H](C)[C@H](O)[C@H](O)[C@@H]3O)[C@@H](O)[C@@H](OCCc3ccc(O)c(O)c3)O[C@H]2CO[C@@H]2O[C@H](CO)[C@H](O)[C@@H](O)[C@@H]2O)cc1OC
REMARK SMILES IDX 12 1 13 2 25 3 27 4 39 5 40 6 11 7 9 8 10 9 8 10 7 11 6 12
REMARK SMILES IDX 3 13 4 14 55 15 5 16 54 17 2 18 1 19 56 20 57 21 14 22 15 23
REMARK SMILES IDX 16 24 23 25 17 26 21 27 19 28 18 29 24 30 22 32 20 34 41 36
REMARK SMILES IDX 42 37 43 38 44 39 52 40 45 41 50 42 48 43 53 44 46 46 47 47
REMARK SMILES IDX 51 49 49 51 26 53 28 55 29 56 30 57 31 58 32 59 38 60 33 61
REMARK SMILES IDX 36 62 34 63 37 64 35 66
REMARK H PARENT 24 31 22 33 20 35 53 45 47 48 51 50 49 52 26 54 37 65 35 67
ROOT
ATOM      1  C   UNL     1      -7.042   1.972  -0.107  1.00  0.00     0.240 C 
ATOM      2  C   UNL     1      -6.944   3.442  -0.587  1.00  0.00     0.199 C 
ATOM      3  C   UNL     1      -8.330   4.155  -0.756  1.00  0.00     0.203 C 
ATOM      4  C   UNL     1      -9.450   3.139  -1.046  1.00  0.00     0.282 C 
ATOM      5  O   UNL     1      -8.883   2.069  -1.780  1.00  0.00    -0.340 OA
ATOM      6  C   UNL     1      -8.205   1.217  -0.863  1.00  0.00     0.191 C 
ENDROOT
BRANCH   1   7
ATOM      7  O   UNL     1      -5.798   1.435  -0.380  1.00  0.00    -0.453 OA
BRANCH   7   8
ATOM      8  C   UNL     1      -4.990   0.766   0.469  1.00  0.00     0.331 C 
ATOM      9  O   UNL     1      -5.458   0.042   1.337  1.00  0.00    -0.247 OA
BRANCH   8  10
ATOM     10  C   UNL     1      -3.529   0.903   0.283  1.00  0.00     0.094 C 
ATOM     11  C   UNL     1      -2.651   0.035   0.805  1.00  0.00     0.016 C 
BRANCH  11  12
ATOM     12  C   UNL     1      -1.181   0.126   0.606  1.00  0.00    -0.021 A 
ATOM     13  C   UNL     1       1.636   0.101   0.211  1.00  0.00     0.160 A 
ATOM     14  C   UNL     1       0.914  -1.077   0.490  1.00  0.00     0.051 A 
ATOM     15  C   UNL     1       0.904   1.364   0.172  1.00  0.00     0.161 A 
ATOM     16  C   UNL     1      -0.455  -1.059   0.702  1.00  0.00     0.012 A 
ATOM     17  C   UNL     1      -0.496   1.333   0.339  1.00  0.00     0.058 A 
BRANCH  13  18
ATOM     18  O   UNL     1       3.000   0.000   0.000  1.00  0.00    -0.493 OA
ATOM     19  C   UNL     1       3.750  -1.299   0.000  1.00  0.00     0.278 C 
ENDBRANCH  13  18
BRANCH  15  20
ATOM     20  O   UNL     1       1.500   2.598   0.000  1.00  0.00    -0.493 OA
ATOM     21  C   UNL     1       3.000   2.598   0.000  1.00  0.00     0.278 C 
ENDBRANCH  15  20
ENDBRANCH  11  12
ENDBRANCH   8  10
ENDBRANCH   7   8
ENDBRANCH   1   7
BRANCH   2  22
ATOM     22  O   UNL     1      -6.077   4.184   0.285  1.00  0.00    -0.340 OA
BRANCH  22  23
ATOM     23  C   UNL     1      -4.895   4.688  -0.341  1.00  0.00     0.282 C 
ATOM     24  O   UNL     1      -5.142   5.956  -0.931  1.00  0.00    -0.344 OA
ATOM     25  C   UNL     1      -3.712   4.797   0.679  1.00  0.00     0.202 C 
ATOM     26  C   UNL     1      -5.569   6.968   0.000  1.00  0.00     0.150 C 
ATOM     27  C   UNL     1      -3.552   6.225   1.278  1.00  0.00     0.179 C 
ATOM     28  C   UNL     1      -4.949   6.820   1.436  1.00  0.00     0.174 C 
ATOM     29  C   UNL     1      -7.069   6.968   0.000  1.00  0.00     0.041 C 
BRANCH  25  30
ATOM     30  O   UNL     1      -2.490   4.378   0.126  1.00  0.00    -0.385 OA
ATOM     31  H   UNL     1      -2.372   4.848  -0.741  1.00  0.00     0.211 HD
ENDBRANCH  25  30
BRANCH  27  32
ATOM     32  O   UNL     1      -2.793   7.037   0.414  1.00  0.00    -0.387 OA
ATOM     33  H   UNL     1      -2.464   7.803   0.953  1.00  0.00     0.211 HD
ENDBRANCH  27  32
BRANCH  28  34
ATOM     34  O   UNL     1      -4.919   8.072   2.071  1.00  0.00    -0.388 OA
ATOM     35  H   UNL     1      -4.704   7.904   3.025  1.00  0.00     0.211 HD
ENDBRANCH  28  34
ENDBRANCH  22  23
ENDBRANCH   2  22
BRANCH   6  36
ATOM     36  C   UNL     1      -7.854  -0.108  -1.563  1.00  0.00     0.199 C 
BRANCH  36  37
ATOM     37  O   UNL     1      -7.732  -1.169  -0.619  1.00  0.00    -0.347 OA
BRANCH  37  38
ATOM     38  C   UNL     1      -8.924  -1.957  -0.594  1.00  0.00     0.282 C 
ATOM     39  O   UNL     1     -10.056  -1.170  -0.267  1.00  0.00    -0.341 OA
ATOM     40  C   UNL     1      -8.794  -3.125   0.419  1.00  0.00     0.202 C 
ATOM     41  C   UNL     1     -11.293  -1.856  -0.488  1.00  0.00     0.178 C 
ATOM     42  C   UNL     1     -10.188  -3.738   0.751  1.00  0.00     0.179 C 
ATOM     43  C   UNL     1     -11.172  -3.423  -0.384  1.00  0.00     0.177 C 
BRANCH  40  44
ATOM     44  O   UNL     1      -8.185  -2.687   1.606  1.00  0.00    -0.385 OA
ATOM     45  H   UNL     1      -7.879  -3.502   2.083  1.00  0.00     0.211 HD
ENDBRANCH  40  44
BRANCH  41  46
ATOM     46  C   UNL     1     -12.303  -1.285   0.529  1.00  0.00     0.191 C 
BRANCH  46  47
ATOM     47  O   UNL     1     -12.410   0.101   0.351  1.00  0.00    -0.394 OA
ATOM     48  H   UNL     1     -13.067   0.417   1.026  1.00  0.00     0.210 HD
ENDBRANCH  46  47
ENDBRANCH  41  46
BRANCH  42  49
ATOM     49  O   UNL     1     -10.056  -5.120   0.962  1.00  0.00    -0.387 OA
ATOM     50  H   UNL     1     -10.860  -5.412   1.468  1.00  0.00     0.211 HD
ENDBRANCH  42  49
BRANCH  43  51
ATOM     51  O   UNL     1     -12.421  -4.027  -0.162  1.00  0.00    -0.387 OA
ATOM     52  H   UNL     1     -12.930  -3.941  -1.010  1.00  0.00     0.211 HD
ENDBRANCH  43  51
ENDBRANCH  37  38
ENDBRANCH  36  37
ENDBRANCH   6  36
BRANCH   3  53
ATOM     53  O   UNL     1      -8.299   5.093  -1.815  1.00  0.00    -0.385 OA
ATOM     54  H   UNL     1      -7.368   5.349  -2.033  1.00  0.00     0.211 HD
ENDBRANCH   3  53
BRANCH   4  55
ATOM     55  O   UNL     1     -10.534   3.691  -1.781  1.00  0.00    -0.350 OA
BRANCH  55  56
ATOM     56  C   UNL     1     -11.200   4.723  -1.066  1.00  0.00     0.168 C 
BRANCH  56  57
ATOM     57  C   UNL     1     -12.715   4.558  -1.220  1.00  0.00     0.064 C 
BRANCH  57  58
ATOM     58  C   UNL     1     -13.555   5.650  -0.577  1.00  0.00    -0.042 A 
ATOM     59  C   UNL     1     -13.004   6.763   0.094  1.00  0.00     0.008 A 
ATOM     60  C   UNL     1     -14.953   5.543  -0.667  1.00  0.00     0.054 A 
ATOM     61  C   UNL     1     -13.836   7.736   0.654  1.00  0.00     0.050 A 
ATOM     62  C   UNL     1     -15.790   6.515  -0.105  1.00  0.00     0.157 A 
ATOM     63  C   UNL     1     -15.229   7.620   0.558  1.00  0.00     0.157 A 
BRANCH  62  64
ATOM     64  O   UNL     1     -17.127   6.370  -0.215  1.00  0.00    -0.504 OA
ATOM     65  H   UNL     1     -17.755   7.008   0.154  1.00  0.00     0.293 HD
ENDBRANCH  62  64
BRANCH  63  66
ATOM     66  O   UNL     1     -16.029   8.564   1.098  1.00  0.00    -0.504 OA
ATOM     67  H   UNL     1     -15.675   9.340   1.557  1.00  0.00     0.293 HD
ENDBRANCH  63  66
ENDBRANCH  57  58
ENDBRANCH  56  57
ENDBRANCH  55  56
ENDBRANCH   4  55
TORSDOF 26
