REMARK SMILES NCCC(=O)c1cc(O)ccc1N
REMARK SMILES IDX 4 1 5 2 3 3 2 4 1 5 6 8 7 9 12 10 8 11 11 12 10 13 13 14
REMARK SMILES IDX 9 17
REMARK H PARENT 1 6 1 7 13 15 13 16 9 18
ROOT
ATOM      1  C   UNL     1      -0.845  -0.427  -0.307  1.00  0.00     0.166 C 
ATOM      2  O   UNL     1      -1.321  -1.549  -0.341  1.00  0.00    -0.294 OA
ENDROOT
BRANCH   1   3
ATOM      3  C   UNL     1      -1.784   0.752  -0.509  1.00  0.00     0.096 C 
BRANCH   3   4
ATOM      4  C   UNL     1      -3.255   0.356  -0.720  1.00  0.00     0.086 C 
BRANCH   4   5
ATOM      5  N   UNL     1      -3.780  -0.352   0.445  1.00  0.00    -0.330 NA
ATOM      6  H   UNL     1      -4.774  -0.613   0.254  1.00  0.00     0.118 HD
ATOM      7  H   UNL     1      -3.769   0.290   1.271  1.00  0.00     0.118 HD
ENDBRANCH   4   5
ENDBRANCH   3   4
ENDBRANCH   1   3
BRANCH   1   8
ATOM      8  C   UNL     1       0.633  -0.225  -0.074  1.00  0.00     0.044 A 
ATOM      9  C   UNL     1       1.136   1.100  -0.095  1.00  0.00     0.060 A 
ATOM     10  C   UNL     1       1.569  -1.289   0.168  1.00  0.00     0.043 A 
ATOM     11  C   UNL     1       2.493   1.376   0.110  1.00  0.00     0.116 A 
ATOM     12  C   UNL     1       2.926  -0.978   0.371  1.00  0.00     0.030 A 
ATOM     13  C   UNL     1       3.382   0.335   0.343  1.00  0.00     0.048 A 
BRANCH  10  14
ATOM     14  N   UNL     1       1.215  -2.668   0.226  1.00  0.00    -0.398 N 
ATOM     15  H   UNL     1       1.942  -3.377   0.406  1.00  0.00     0.156 HD
ATOM     16  H   UNL     1       0.267  -3.032   0.110  1.00  0.00     0.156 HD
ENDBRANCH  10  14
BRANCH  11  17
ATOM     17  O   UNL     1       2.953   2.644   0.085  1.00  0.00    -0.508 OA
ATOM     18  H   UNL     1       2.371   3.401  -0.074  1.00  0.00     0.293 HD
ENDBRANCH  11  17
ENDBRANCH   1   8
TORSDOF 6
