REMARK SMILES C[C@@H](Cc1ccsc1)NC(=O)NC[C@H](Cc1ccc(O)cc1)N(C)C
REMARK SMILES IDX 13 1 12 2 9 3 10 4 11 5 2 8 1 9 3 10 4 11 8 12 5 13 7 14
REMARK SMILES IDX 6 15 14 16 15 17 16 18 17 19 22 20 18 21 21 22 19 23 20 24
REMARK SMILES IDX 23 26 24 27 25 28
REMARK H PARENT 9 6 12 7 20 25
ROOT
ATOM      1  C   UNL     1      -0.969   2.475  -0.394  1.00  0.00     0.137 C 
ENDROOT
BRANCH   1   2
ATOM      2  N   UNL     1       0.284   1.924  -0.887  1.00  0.00    -0.337 N 
ATOM      3  N   UNL     1       2.273   0.673  -0.676  1.00  0.00    -0.335 N 
ATOM      4  C   UNL     1       1.137   1.188  -0.121  1.00  0.00     0.315 C 
ATOM      5  O   UNL     1       0.892   0.995   1.060  1.00  0.00    -0.249 OA
ATOM      6  H   UNL     1       2.459   0.841  -1.677  1.00  0.00     0.165 HD
ATOM      7  H   UNL     1       0.563   2.159  -1.852  1.00  0.00     0.165 HD
BRANCH   3   8
ATOM      8  C   UNL     1       3.220  -0.146   0.067  1.00  0.00     0.085 C 
ATOM      9  C   UNL     1       3.214  -1.557  -0.531  1.00  0.00     0.031 C 
BRANCH   8  10
ATOM     10  C   UNL     1       4.613   0.512   0.016  1.00  0.00     0.061 C 
BRANCH  10  11
ATOM     11  C   UNL     1       5.633  -0.246   0.821  1.00  0.00    -0.035 A 
ATOM     12  C   UNL     1       6.406  -1.280   0.300  1.00  0.00     0.068 A 
ATOM     13  C   UNL     1       5.898   0.020   2.173  1.00  0.00     0.015 A 
ATOM     14  S   UNL     1       7.403  -1.859   1.522  1.00  0.00    -0.152 S 
ATOM     15  C   UNL     1       6.871  -0.805   2.718  1.00  0.00     0.065 A 
ENDBRANCH  10  11
ENDBRANCH   8  10
ENDBRANCH   3   8
ENDBRANCH   1   2
BRANCH   1  16
ATOM     16  C   UNL     1      -2.139   1.443  -0.272  1.00  0.00     0.079 C 
BRANCH  16  17
ATOM     17  C   UNL     1      -1.879   0.291   0.729  1.00  0.00     0.056 C 
BRANCH  17  18
ATOM     18  C   UNL     1      -3.112  -0.562   0.904  1.00  0.00    -0.046 A 
ATOM     19  C   UNL     1      -3.163  -1.857   0.362  1.00  0.00     0.007 A 
ATOM     20  C   UNL     1      -4.226  -0.065   1.601  1.00  0.00     0.007 A 
ATOM     21  C   UNL     1      -4.315  -2.635   0.501  1.00  0.00     0.046 A 
ATOM     22  C   UNL     1      -5.372  -0.851   1.752  1.00  0.00     0.046 A 
ATOM     23  C   UNL     1      -5.424  -2.135   1.198  1.00  0.00     0.115 A 
BRANCH  23  24
ATOM     24  O   UNL     1      -6.541  -2.875   1.339  1.00  0.00    -0.508 OA
ATOM     25  H   UNL     1      -6.621  -3.762   0.961  1.00  0.00     0.293 HD
ENDBRANCH  23  24
ENDBRANCH  17  18
ENDBRANCH  16  17
BRANCH  16  26
ATOM     26  N   UNL     1      -2.622   0.893  -1.575  1.00  0.00    -0.304 NA
ATOM     27  C   UNL     1      -3.308   1.891  -2.412  1.00  0.00     0.105 C 
ATOM     28  C   UNL     1      -1.647   0.131  -2.377  1.00  0.00     0.105 C 
ENDBRANCH  16  26
ENDBRANCH   1  16
TORSDOF 9
