REMARK SMILES C[C@@H]1CCCC(C)(C)[C@H]1CCO
REMARK SMILES IDX 10 1 9 2 2 3 3 4 4 5 6 6 5 7 1 8 7 9 8 10 11 11 12 12
REMARK H PARENT 12 13
ROOT
ATOM      1  C   UNL     1       1.730   0.578   0.614  1.00  0.00     0.032 C 
ENDROOT
BRANCH   1   2
ATOM      2  C   UNL     1       0.485  -0.052  -0.105  1.00  0.00    -0.000 C 
ATOM      3  C   UNL     1       0.167  -1.475   0.513  1.00  0.00    -0.011 C 
ATOM      4  C   UNL     1      -0.920  -2.180  -0.322  1.00  0.00     0.003 C 
ATOM      5  C   UNL     1      -2.208  -1.370  -0.331  1.00  0.00     0.001 C 
ATOM      6  C   UNL     1      -0.852   0.821  -0.149  1.00  0.00    -0.032 C 
ATOM      7  C   UNL     1      -1.948   0.016  -0.915  1.00  0.00     0.007 C 
ATOM      8  C   UNL     1       1.376  -2.429   0.608  1.00  0.00     0.008 C 
ATOM      9  C   UNL     1      -0.707   2.142  -0.942  1.00  0.00     0.011 C 
ATOM     10  C   UNL     1      -1.347   1.190   1.274  1.00  0.00     0.011 C 
ENDBRANCH   1   2
BRANCH   1  11
ATOM     11  C   UNL     1       2.387   1.822  -0.005  1.00  0.00     0.156 C 
BRANCH  11  12
ATOM     12  O   UNL     1       2.608   1.648  -1.380  1.00  0.00    -0.396 OA
ATOM     13  H   UNL     1       3.393   1.048  -1.471  1.00  0.00     0.210 HD
ENDBRANCH  11  12
ENDBRANCH   1  11
TORSDOF 3
