REMARK SMILES COC[C@@H](CCO)c1c(CO)c2ccc3c(c2oc1=O)[C@H]1OC(=O)C[C@@H]2C[C@@H](c4cccc(Cc5ccccc5)c4)C=C[C@H]2c2ccc(cc2)CC/C(=C(\C)CO)C(=O)O[C@@H]1[C@@]1(CCC[C@@H]2CCC[C@H]21)O3
REMARK SMILES IDX 25 1 23 2 24 3 22 4 21 5 8 6 9 7 19 8 12 9 18 10 20 11 13 12
REMARK SMILES IDX 17 13 14 14 16 15 15 16 71 17 61 18 62 19 63 20 70 21 64 22
REMARK SMILES IDX 69 23 66 24 65 25 68 26 67 27 4 28 3 29 2 30 1 31 5 32 6 33
REMARK SMILES IDX 7 34 10 36 11 37 60 39 58 40 59 41 26 43 27 44 44 45 28 46
REMARK SMILES IDX 43 47 42 48 45 49 46 50 50 51 47 52 49 53 48 54 51 55 52 56
REMARK SMILES IDX 53 57 54 58 55 59 56 61 57 62 29 64 30 65 41 66 31 67 33 68
REMARK SMILES IDX 32 69 34 70 35 71 36 72 40 73 37 74 39 75 38 76
REMARK H PARENT 7 35 11 38 57 63
REMARK Flexibility Score:  248.900
ROOT
ATOM      1  C   UNL     1       0.548   0.555   1.595  1.00  0.00     0.127 C 
ENDROOT
BRANCH   1   2
ATOM      2  C   UNL     1      -0.226   0.134   0.380  1.00  0.00     0.306 C 
ATOM      3  O   UNL     1       0.037   0.634  -0.707  1.00  0.00    -0.252 OA
BRANCH   2   4
ATOM      4  O   UNL     1      -1.229  -0.795   0.497  1.00  0.00    -0.453 OA
BRANCH   4   5
ATOM      5  C   UNL     1      -1.852  -1.372  -0.601  1.00  0.00     0.259 C 
ATOM      6  C   UNL     1      -3.479   3.582  -0.465  1.00  0.00     0.049 A 
ATOM      7  C   UNL     1      -4.256   3.004  -1.519  1.00  0.00    -0.001 A 
ATOM      8  C   UNL     1      -2.572   2.744   0.215  1.00  0.00     0.340 A 
ATOM      9  C   UNL     1      -4.074   1.616  -1.825  1.00  0.00     0.024 A 
ATOM     10  O   UNL     1      -2.448   1.478  -0.117  1.00  0.00    -0.422 OA
ATOM     11  O   UNL     1      -1.884   3.165   1.128  1.00  0.00    -0.246 OA
ATOM     12  C   UNL     1      -4.785   0.933  -2.842  1.00  0.00     0.016 A 
ATOM     13  C   UNL     1      -3.120   0.880  -1.076  1.00  0.00     0.149 A 
ATOM     14  C   UNL     1      -4.582  -0.424  -3.072  1.00  0.00     0.048 A 
ATOM     15  C   UNL     1      -2.872  -0.487  -1.346  1.00  0.00     0.082 A 
ATOM     16  C   UNL     1      -3.655  -1.143  -2.326  1.00  0.00     0.131 A 
ATOM     17  O   UNL     1      -3.556  -2.489  -2.524  1.00  0.00    -0.482 OA
ATOM     18  C   UNL     1      -2.626  -2.665  -0.286  1.00  0.00     0.266 C 
ATOM     19  C   UNL     1      -2.917  -3.393  -1.665  1.00  0.00     0.153 C 
ATOM     20  C   UNL     1      -3.903  -4.604  -1.422  1.00  0.00     0.053 C 
ATOM     21  C   UNL     1      -1.616  -3.905  -2.411  1.00  0.00     0.040 C 
ATOM     22  C   UNL     1      -3.136  -5.930  -1.236  1.00  0.00     0.005 C 
ATOM     23  C   UNL     1      -0.815  -2.942  -3.340  1.00  0.00     0.008 C 
ATOM     24  C   UNL     1      -1.969  -5.063  -3.330  1.00  0.00    -0.004 C 
ATOM     25  C   UNL     1      -2.339  -6.316  -2.516  1.00  0.00     0.004 C 
ATOM     26  C   UNL     1      -0.670  -3.687  -4.672  1.00  0.00     0.001 C 
ATOM     27  C   UNL     1      -0.785  -5.153  -4.280  1.00  0.00     0.004 C 
BRANCH   6  28
ATOM     28  C   UNL     1      -3.612   5.055  -0.029  1.00  0.00     0.055 C 
BRANCH  28  29
ATOM     29  C   UNL     1      -4.107   5.155   1.437  1.00  0.00     0.168 C 
BRANCH  29  30
ATOM     30  O   UNL     1      -5.383   4.551   1.586  1.00  0.00    -0.384 OA
ATOM     31  C   UNL     1      -5.299   3.277   2.193  1.00  0.00     0.194 C 
ENDBRANCH  29  30
ENDBRANCH  28  29
BRANCH  28  32
ATOM     32  C   UNL     1      -2.275   5.800  -0.310  1.00  0.00     0.039 C 
BRANCH  32  33
ATOM     33  C   UNL     1      -2.318   7.321  -0.111  1.00  0.00     0.157 C 
BRANCH  33  34
ATOM     34  O   UNL     1      -2.442   7.646   1.246  1.00  0.00    -0.396 OA
ATOM     35  H   UNL     1      -2.833   8.558   1.282  1.00  0.00     0.210 HD
ENDBRANCH  33  34
ENDBRANCH  32  33
ENDBRANCH  28  32
ENDBRANCH   6  28
BRANCH   7  36
ATOM     36  C   UNL     1      -5.238   3.872  -2.295  1.00  0.00     0.193 C 
BRANCH  36  37
ATOM     37  O   UNL     1      -4.522   4.758  -3.117  1.00  0.00    -0.392 OA
ATOM     38  H   UNL     1      -4.676   5.680  -2.789  1.00  0.00     0.211 HD
ENDBRANCH  36  37
ENDBRANCH   7  36
BRANCH  18  39
ATOM     39  O   UNL     1      -2.054  -3.469   0.711  1.00  0.00    -0.450 OA
BRANCH  39  40
ATOM     40  C   UNL     1      -2.518  -3.416   2.011  1.00  0.00     0.334 CG0
ATOM     41  O   UNL     1      -3.190  -2.453   2.336  1.00  0.00    -0.247 OA
ATOM     42  G   UNL     1      -2.225  -4.498   3.041  1.00  0.00     0.000 G0
ENDBRANCH  39  40
ENDBRANCH  18  39
ENDBRANCH   4   5
ENDBRANCH   2   4
ENDBRANCH   1   2
BRANCH   1  43
ATOM     43  C   UNL     1       2.085   0.451   1.415  1.00  0.00     0.012 C 
ATOM     44  C   UNL     1       2.697   1.666   0.616  1.00  0.00     0.017 C 
ATOM     45  C   UNL     1       2.608  -0.902   0.841  1.00  0.00     0.045 C 
ATOM     46  C   UNL     1       3.880   1.241  -0.299  1.00  0.00     0.042 C 
ATOM     47  C   UNL     1       4.120  -0.854   0.937  1.00  0.00    -0.022 C 
ATOM     48  C   UNL     1       4.743   0.209   0.396  1.00  0.00    -0.022 C 
BRANCH  45  49
ATOM     49  C   UNL     1       2.019  -2.133   1.481  1.00  0.00    -0.041 A 
ATOM     50  C   UNL     1       1.472  -3.111   0.639  1.00  0.00     0.004 A 
ATOM     51  C   UNL     1       1.979  -2.321   2.874  1.00  0.00     0.004 A 
ATOM     52  C   UNL     1       0.886  -4.247   1.167  1.00  0.00     0.004 A 
ATOM     53  C   UNL     1       1.353  -3.455   3.408  1.00  0.00     0.004 A 
ATOM     54  C   UNL     1       0.792  -4.421   2.554  1.00  0.00    -0.048 A 
BRANCH  54  55
ATOM     55  C   UNL     1       0.074  -5.630   3.095  1.00  0.00     0.040 C 
BRANCH  55  56
ATOM     56  C   UNL     1      -1.379  -5.675   2.566  1.00  0.00     0.048 C 
BRANCH  56  57
ATOM     57  C   UNL     1      -2.225  -4.498   3.041  1.00  0.00     0.039 CG0
ATOM     58  C   UNL     1      -2.714  -4.490   4.345  1.00  0.00    -0.038 C 
ATOM     59  C   UNL     1      -2.442  -5.620   5.333  1.00  0.00     0.042 C 
ATOM     60  G   UNL     1      -2.518  -3.416   2.011  1.00  0.00     0.000 G0
BRANCH  58  61
ATOM     61  C   UNL     1      -3.599  -3.412   4.978  1.00  0.00     0.187 C 
BRANCH  61  62
ATOM     62  O   UNL     1      -4.830  -3.963   5.361  1.00  0.00    -0.392 OA
ATOM     63  H   UNL     1      -5.343  -4.113   4.524  1.00  0.00     0.211 HD
ENDBRANCH  61  62
ENDBRANCH  58  61
ENDBRANCH  56  57
ENDBRANCH  55  56
ENDBRANCH  54  55
ENDBRANCH  45  49
BRANCH  46  64
ATOM     64  C   UNL     1       4.674   2.402  -0.853  1.00  0.00    -0.041 A 
ATOM     65  C   UNL     1       4.616   2.688  -2.230  1.00  0.00     0.004 A 
ATOM     66  C   UNL     1       5.495   3.188  -0.023  1.00  0.00     0.008 A 
ATOM     67  C   UNL     1       5.361   3.735  -2.769  1.00  0.00     0.001 A 
ATOM     68  C   UNL     1       6.267   4.227  -0.571  1.00  0.00    -0.043 A 
ATOM     69  C   UNL     1       6.187   4.498  -1.947  1.00  0.00     0.004 A 
BRANCH  68  70
ATOM     70  C   UNL     1       7.203   5.041   0.283  1.00  0.00     0.071 C 
BRANCH  70  71
ATOM     71  C   UNL     1       8.622   4.801  -0.171  1.00  0.00    -0.044 A 
ATOM     72  C   UNL     1       9.198   3.525  -0.024  1.00  0.00     0.004 A 
ATOM     73  C   UNL     1       9.376   5.830  -0.759  1.00  0.00     0.004 A 
ATOM     74  C   UNL     1      10.504   3.285  -0.461  1.00  0.00     0.000 A 
ATOM     75  C   UNL     1      10.680   5.583  -1.202  1.00  0.00     0.000 A 
ATOM     76  C   UNL     1      11.243   4.313  -1.052  1.00  0.00     0.000 A 
ENDBRANCH  70  71
ENDBRANCH  68  70
ENDBRANCH  46  64
ENDBRANCH   1  43
TORSDOF 13
