REMARK SMILES CC[C@H](O)CCCC/C=C\C=C\C(=O)N[C@@H](C(=O)N[C@H]1C[C@H](O)CCNC(=O)/C=C\[C@@H](C)NC1=O)[C@@H](C)O
REMARK SMILES IDX 17 1 18 2 19 3 16 5 15 6 13 7 14 8 12 10 11 11 10 12 9 13
REMARK SMILES IDX 8 14 7 15 6 16 5 17 3 18 2 19 1 20 4 21 36 23 37 24 38 25
REMARK SMILES IDX 20 27 21 28 34 30 33 31 35 32 31 34 32 35 30 36 29 37 27 38
REMARK SMILES IDX 26 39 28 40 25 42 24 43 22 44 23 46
REMARK H PARENT 19 4 15 9 4 22 38 26 33 33 26 41 23 47
REMARK Flexibility Score:  137.900
ROOT
ATOM      1  C   UNL     1      -2.339   0.093   0.928  1.00  0.00     0.245 C 
ATOM      2  O   UNL     1      -2.273  -0.940   0.273  1.00  0.00    -0.273 OA
ATOM      3  N   UNL     1      -3.497   0.819   0.927  1.00  0.00    -0.342 N 
ATOM      4  H   UNL     1      -3.579   1.669   1.500  1.00  0.00     0.164 HD
ENDROOT
BRANCH   1   5
ATOM      5  C   UNL     1      -1.106   0.519   1.721  1.00  0.00     0.200 C 
BRANCH   5   6
ATOM      6  N   UNL     1      -0.074  -0.498   1.545  1.00  0.00    -0.338 N 
ATOM      7  C   UNL     1       1.148  -0.262   1.000  1.00  0.00     0.244 C 
ATOM      8  O   UNL     1       1.455   0.861   0.621  1.00  0.00    -0.270 OA
ATOM      9  H   UNL     1      -0.288  -1.454   1.874  1.00  0.00     0.164 HD
BRANCH   7  10
ATOM     10  C   UNL     1       2.120  -1.377   0.903  1.00  0.00     0.071 C 
ATOM     11  C   UNL     1       3.385  -1.192   0.504  1.00  0.00     0.005 C 
BRANCH  11  12
ATOM     12  C   UNL     1       4.336  -2.330   0.470  1.00  0.00    -0.004 C 
ATOM     13  C   UNL     1       5.659  -2.229   0.239  1.00  0.00    -0.027 C 
BRANCH  13  14
ATOM     14  C   UNL     1       6.417  -0.945  -0.019  1.00  0.00     0.027 C 
BRANCH  14  15
ATOM     15  C   UNL     1       7.162  -0.960  -1.363  1.00  0.00     0.004 C 
BRANCH  15  16
ATOM     16  C   UNL     1       8.250  -2.046  -1.484  1.00  0.00     0.003 C 
BRANCH  16  17
ATOM     17  C   UNL     1       9.328  -2.100  -0.371  1.00  0.00     0.032 C 
BRANCH  17  18
ATOM     18  C   UNL     1      10.363  -0.950  -0.256  1.00  0.00     0.114 C 
BRANCH  18  19
ATOM     19  C   UNL     1       9.826   0.404   0.261  1.00  0.00     0.028 C 
ATOM     20  C   UNL     1      10.961   1.380   0.569  1.00  0.00     0.006 C 
ENDBRANCH  18  19
BRANCH  18  21
ATOM     21  O   UNL     1      11.079  -0.796  -1.456  1.00  0.00    -0.393 OA
ATOM     22  H   UNL     1      10.469  -0.373  -2.114  1.00  0.00     0.210 HD
ENDBRANCH  18  21
ENDBRANCH  17  18
ENDBRANCH  16  17
ENDBRANCH  15  16
ENDBRANCH  14  15
ENDBRANCH  13  14
ENDBRANCH  11  12
ENDBRANCH   7  10
ENDBRANCH   5   6
BRANCH   5  23
ATOM     23  C   UNL     1      -1.371   0.681   3.245  1.00  0.00     0.143 C 
ATOM     24  C   UNL     1      -0.081   1.025   4.011  1.00  0.00     0.041 C 
BRANCH  23  25
ATOM     25  O   UNL     1      -2.335   1.669   3.506  1.00  0.00    -0.391 OA
ATOM     26  H   UNL     1      -1.978   2.533   3.169  1.00  0.00     0.211 HD
ENDBRANCH  23  25
ENDBRANCH   5  23
ENDBRANCH   1   5
BRANCH   3  27
ATOM     27  C   UNL     1      -4.661   0.413   0.149  1.00  0.00     0.174 C 
BRANCH  27  28
ATOM     28  C   UNL     1      -5.665  -0.311   1.096  1.00  0.00     0.067 CG0
ATOM     29  G   UNL     1      -6.936  -0.932   0.451  1.00  0.00     0.000 G0
ENDBRANCH  27  28
BRANCH  27  30
ATOM     30  C   UNL     1      -5.117   1.581  -0.730  1.00  0.00     0.243 C 
ATOM     31  N   UNL     1      -6.383   2.101  -0.729  1.00  0.00    -0.348 N 
ATOM     32  O   UNL     1      -4.287   2.032  -1.508  1.00  0.00    -0.273 OA
ATOM     33  H   UNL     1      -7.070   1.793  -0.039  1.00  0.00     0.164 HD
BRANCH  31  34
ATOM     34  C   UNL     1      -6.815   3.134  -1.665  1.00  0.00     0.102 C 
ATOM     35  C   UNL     1      -8.286   3.523  -1.473  1.00  0.00     0.035 C 
BRANCH  34  36
ATOM     36  C   UNL     1      -6.533   2.794  -3.125  1.00  0.00     0.003 C 
ATOM     37  C   UNL     1      -6.395   1.594  -3.742  1.00  0.00     0.069 C 
BRANCH  37  38
ATOM     38  C   UNL     1      -6.618   0.209  -3.234  1.00  0.00     0.243 C 
ATOM     39  N   UNL     1      -7.598  -0.110  -2.340  1.00  0.00    -0.352 N 
ATOM     40  O   UNL     1      -5.942  -0.681  -3.730  1.00  0.00    -0.270 OA
ATOM     41  H   UNL     1      -8.256   0.615  -2.032  1.00  0.00     0.163 HD
BRANCH  39  42
ATOM     42  C   UNL     1      -7.803  -1.477  -1.859  1.00  0.00     0.119 C 
BRANCH  42  43
ATOM     43  C   UNL     1      -6.728  -1.820  -0.813  1.00  0.00     0.053 C 
BRANCH  43  44
ATOM     44  C   UNL     1      -6.936  -0.932   0.451  1.00  0.00     0.118 CG0
ATOM     45  G   UNL     1      -5.665  -0.311   1.096  1.00  0.00     0.000 G0
BRANCH  44  46
ATOM     46  O   UNL     1      -7.694  -1.624   1.411  1.00  0.00    -0.393 OA
ATOM     47  H   UNL     1      -7.132  -2.369   1.749  1.00  0.00     0.210 HD
ENDBRANCH  44  46
ENDBRANCH  43  44
ENDBRANCH  42  43
ENDBRANCH  39  42
ENDBRANCH  37  38
ENDBRANCH  34  36
ENDBRANCH  31  34
ENDBRANCH  27  30
ENDBRANCH   3  27
TORSDOF 15
