REMARK SMILES CC(C)=C1C[C@@H]2C[C@@H]3[C@@H](CC[C@H](C)O)[C@]3(C)C[C@@H]2CC1=O
REMARK SMILES IDX 11 1 10 2 9 3 2 4 4 5 5 6 20 7 6 8 19 9 21 10 7 11 18 12
REMARK SMILES IDX 8 13 17 14 15 15 1 16 3 17 16 18 12 19 13 20 14 21
REMARK H PARENT 14 22
ROOT
ATOM      1  C   UNL     1      -4.298   0.233   1.238  1.00  0.00     0.032 C 
ENDROOT
BRANCH   1   2
ATOM      2  C   UNL     1      -3.567  -0.355   0.024  1.00  0.00     0.007 C 
BRANCH   2   3
ATOM      3  C   UNL     1      -2.107  -0.667   0.382  1.00  0.00    -0.001 C 
ATOM      4  C   UNL     1       5.086   0.718  -0.004  1.00  0.00    -0.070 C 
ATOM      5  C   UNL     1       3.987  -0.084   0.159  1.00  0.00    -0.006 C 
ATOM      6  C   UNL     1       2.769   0.333   0.978  1.00  0.00     0.043 C 
ATOM      7  C   UNL     1       3.834  -1.442  -0.459  1.00  0.00     0.159 C 
ATOM      8  C   UNL     1       1.478   0.202   0.128  1.00  0.00    -0.003 C 
ATOM      9  C   UNL     1       2.523  -2.151  -0.258  1.00  0.00     0.084 C 
ATOM     10  O   UNL     1       4.688  -1.948  -1.172  1.00  0.00    -0.295 OA
ATOM     11  C   UNL     1       0.225   0.460   1.002  1.00  0.00     0.008 C 
ATOM     12  C   UNL     1       1.393  -1.177  -0.650  1.00  0.00     0.001 C 
ATOM     13  C   UNL     1      -1.061   0.440   0.140  1.00  0.00    -0.001 C 
ATOM     14  C   UNL     1       0.025  -1.858  -0.470  1.00  0.00     0.011 C 
ATOM     15  C   UNL     1      -1.105  -0.844  -0.748  1.00  0.00    -0.026 C 
ATOM     16  C   UNL     1       6.280   0.279  -0.825  1.00  0.00     0.039 C 
ATOM     17  C   UNL     1       5.156   2.086   0.638  1.00  0.00     0.039 C 
ATOM     18  C   UNL     1      -1.430  -0.553  -2.228  1.00  0.00     0.012 C 
ENDBRANCH   2   3
ENDBRANCH   1   2
BRANCH   1  19
ATOM     19  C   UNL     1      -5.822   0.376   1.022  1.00  0.00     0.111 C 
ATOM     20  C   UNL     1      -6.202   1.304  -0.141  1.00  0.00     0.038 C 
BRANCH  19  21
ATOM     21  O   UNL     1      -6.432   0.822   2.207  1.00  0.00    -0.393 OA
ATOM     22  H   UNL     1      -6.072   1.726   2.409  1.00  0.00     0.210 HD
ENDBRANCH  19  21
ENDBRANCH   1  19
TORSDOF 4
