REMARK SMILES CCCC[C]CC[C]CCCCCCCCCCCCC(=O)OC[C@H](COC(=O)CCCCCCCC[C]CC[C]CCCCC)OC(=O)CCCCCCCCC(C)C
REMARK SMILES IDX 23 1 21 2 22 3 20 4 19 5 18 6 17 7 16 8 15 9 14 10 13 11
REMARK SMILES IDX 12 12 11 13 10 14 9 15 8 16 7 17 6 18 5 19 4 20 3 21 2 22
REMARK SMILES IDX 1 23 24 24 25 25 26 26 27 27 28 28 29 29 30 30 31 31 32 32
REMARK SMILES IDX 33 33 34 34 35 35 36 36 37 37 38 38 39 39 40 40 41 41 42 42
REMARK SMILES IDX 43 43 44 44 45 45 46 46 47 47 48 48 49 49 50 50 51 51 52 52
REMARK SMILES IDX 53 53 54 54 55 55 56 56 57 57 58 58 59 59 60 60
REMARK H PARENT
ROOT
ATOM      1  O   UNL     1      -1.063  -0.564   0.170  1.00  0.00    -0.462 OA
ENDROOT
BRANCH   1   2
ATOM      2  C   UNL     1       0.342  -0.226   0.011  1.00  0.00     0.305 C 
ATOM      3  O   UNL     1       1.110  -1.144  -0.244  1.00  0.00    -0.252 OA
BRANCH   2   4
ATOM      4  C   UNL     1       1.049   1.264   0.138  1.00  0.00     0.123 C 
BRANCH   4   5
ATOM      5  C   UNL     1       2.709   1.498  -0.004  1.00  0.00     0.012 C 
BRANCH   5   6
ATOM      6  C   UNL     1       3.522   2.981   0.054  1.00  0.00     0.001 C 
BRANCH   6   7
ATOM      7  C   UNL     1       5.196   3.000   0.000  1.00  0.00     0.000 C 
BRANCH   7   8
ATOM      8  C   UNL     1       6.495   3.750   0.000  1.00  0.00     0.000 C 
BRANCH   8   9
ATOM      9  C   UNL     1       7.794   4.500   0.000  1.00  0.00     0.000 C 
BRANCH   9  10
ATOM     10  C   UNL     1       9.093   5.250   0.000  1.00  0.00     0.000 C 
BRANCH  10  11
ATOM     11  C   UNL     1      10.392   6.000   0.000  1.00  0.00     0.000 C 
BRANCH  11  12
ATOM     12  C   UNL     1      11.691   6.750   0.000  1.00  0.00     0.000 C 
BRANCH  12  13
ATOM     13  C   UNL     1      13.341   7.065   0.049  1.00  0.00     0.000 C 
BRANCH  13  14
ATOM     14  C   UNL     1      13.945   8.652  -0.052  1.00  0.00     0.001 C 
BRANCH  14  15
ATOM     15  C   UNL     1      15.588   9.000   0.000  1.00  0.00     0.008 C 
BRANCH  15  16
ATOM     16  C   UNL     1      16.887   9.750   0.000  1.00  0.00    -0.017 C 
BRANCH  16  17
ATOM     17  C   UNL     1      18.186  10.500   0.000  1.00  0.00     0.009 C 
BRANCH  17  18
ATOM     18  C   UNL     1      19.486  11.250   0.000  1.00  0.00     0.009 C 
BRANCH  18  19
ATOM     19  C   UNL     1      20.785  12.000   0.000  1.00  0.00    -0.017 C 
BRANCH  19  20
ATOM     20  C   UNL     1      22.084  12.750   0.000  1.00  0.00     0.008 C 
BRANCH  20  21
ATOM     21  C   UNL     1      23.775  12.823   0.319  1.00  0.00     0.000 C 
BRANCH  21  22
ATOM     22  C   UNL     1      24.682  14.250   0.000  1.00  0.00    -0.003 C 
ATOM     23  C   UNL     1      25.981  15.000   0.000  1.00  0.00     0.004 C 
ENDBRANCH  21  22
ENDBRANCH  20  21
ENDBRANCH  19  20
ENDBRANCH  18  19
ENDBRANCH  17  18
ENDBRANCH  16  17
ENDBRANCH  15  16
ENDBRANCH  14  15
ENDBRANCH  13  14
ENDBRANCH  12  13
ENDBRANCH  11  12
ENDBRANCH  10  11
ENDBRANCH   9  10
ENDBRANCH   8   9
ENDBRANCH   7   8
ENDBRANCH   6   7
ENDBRANCH   5   6
ENDBRANCH   4   5
ENDBRANCH   2   4
ENDBRANCH   1   2
BRANCH   1  24
ATOM     24  C   UNL     1      -1.686  -1.883  -0.066  1.00  0.00     0.281 C 
BRANCH  24  25
ATOM     25  C   UNL     1      -3.300  -2.288   0.252  1.00  0.00     0.251 C 
BRANCH  25  26
ATOM     26  C   UNL     1      -3.671  -3.897  -0.091  1.00  0.00     0.281 C 
BRANCH  26  27
ATOM     27  O   UNL     1      -4.966  -4.575   0.146  1.00  0.00    -0.462 OA
BRANCH  27  28
ATOM     28  C   UNL     1      -5.196  -6.000   0.000  1.00  0.00     0.305 C 
ATOM     29  O   UNL     1      -4.186  -6.673  -0.209  1.00  0.00    -0.252 OA
BRANCH  28  30
ATOM     30  C   UNL     1      -6.495  -6.750   0.000  1.00  0.00     0.123 C 
BRANCH  30  31
ATOM     31  C   UNL     1      -7.794  -7.500   0.000  1.00  0.00     0.012 C 
BRANCH  31  32
ATOM     32  C   UNL     1      -9.093  -8.250   0.000  1.00  0.00     0.001 C 
BRANCH  32  33
ATOM     33  C   UNL     1     -10.392  -9.000   0.000  1.00  0.00     0.000 C 
BRANCH  33  34
ATOM     34  C   UNL     1     -11.691  -9.750   0.000  1.00  0.00     0.000 C 
BRANCH  34  35
ATOM     35  C   UNL     1     -13.339 -10.067   0.073  1.00  0.00     0.000 C 
BRANCH  35  36
ATOM     36  C   UNL     1     -13.946 -11.650  -0.071  1.00  0.00     0.001 C 
BRANCH  36  37
ATOM     37  C   UNL     1     -15.588 -12.000   0.000  1.00  0.00     0.008 C 
BRANCH  37  38
ATOM     38  C   UNL     1     -16.887 -12.750   0.000  1.00  0.00    -0.017 C 
BRANCH  38  39
ATOM     39  C   UNL     1     -18.186 -13.500   0.000  1.00  0.00     0.009 C 
BRANCH  39  40
ATOM     40  C   UNL     1     -19.486 -14.250   0.000  1.00  0.00     0.009 C 
BRANCH  40  41
ATOM     41  C   UNL     1     -20.785 -15.000   0.000  1.00  0.00    -0.017 C 
BRANCH  41  42
ATOM     42  C   UNL     1     -22.084 -15.750   0.000  1.00  0.00     0.008 C 
BRANCH  42  43
ATOM     43  C   UNL     1     -23.728 -16.097   0.013  1.00  0.00     0.001 C 
BRANCH  43  44
ATOM     44  C   UNL     1     -24.330 -17.689  -0.022  1.00  0.00    -0.000 C 
BRANCH  44  45
ATOM     45  C   UNL     1     -25.981 -18.000   0.000  1.00  0.00    -0.003 C 
ATOM     46  C   UNL     1     -27.280 -18.750   0.000  1.00  0.00     0.004 C 
ENDBRANCH  44  45
ENDBRANCH  43  44
ENDBRANCH  42  43
ENDBRANCH  41  42
ENDBRANCH  40  41
ENDBRANCH  39  40
ENDBRANCH  38  39
ENDBRANCH  37  38
ENDBRANCH  36  37
ENDBRANCH  35  36
ENDBRANCH  34  35
ENDBRANCH  33  34
ENDBRANCH  32  33
ENDBRANCH  31  32
ENDBRANCH  30  31
ENDBRANCH  28  30
ENDBRANCH  27  28
ENDBRANCH  26  27
ENDBRANCH  25  26
BRANCH  25  47
ATOM     47  O   UNL     1      -4.160  -1.402  -0.431  1.00  0.00    -0.455 OA
BRANCH  47  48
ATOM     48  C   UNL     1      -5.161  -0.613   0.114  1.00  0.00     0.306 C 
ATOM     49  O   UNL     1      -5.592  -0.855   1.232  1.00  0.00    -0.252 OA
BRANCH  48  50
ATOM     50  C   UNL     1      -5.706   0.597  -0.669  1.00  0.00     0.123 C 
BRANCH  50  51
ATOM     51  C   UNL     1      -6.821   1.500   0.004  1.00  0.00     0.012 C 
BRANCH  51  52
ATOM     52  C   UNL     1      -7.045   2.829  -0.810  1.00  0.00     0.001 C 
BRANCH  52  53
ATOM     53  C   UNL     1      -7.779   4.061  -0.138  1.00  0.00     0.000 C 
BRANCH  53  54
ATOM     54  C   UNL     1      -9.197   4.640  -0.613  1.00  0.00     0.000 C 
BRANCH  54  55
ATOM     55  C   UNL     1      -9.348   6.093   0.000  1.00  0.00     0.000 C 
BRANCH  55  56
ATOM     56  C   UNL     1     -10.098   7.392   0.000  1.00  0.00     0.000 C 
BRANCH  56  57
ATOM     57  C   UNL     1     -10.848   8.691   0.000  1.00  0.00     0.003 C 
BRANCH  57  58
ATOM     58  C   UNL     1     -11.598   9.990   0.000  1.00  0.00    -0.017 C 
ATOM     59  C   UNL     1     -11.364  11.003   1.146  1.00  0.00     0.007 C 
ATOM     60  C   UNL     1     -12.897   9.240   0.000  1.00  0.00     0.007 C 
ENDBRANCH  57  58
ENDBRANCH  56  57
ENDBRANCH  55  56
ENDBRANCH  54  55
ENDBRANCH  53  54
ENDBRANCH  52  53
ENDBRANCH  51  52
ENDBRANCH  50  51
ENDBRANCH  48  50
ENDBRANCH  47  48
ENDBRANCH  25  47
ENDBRANCH  24  25
ENDBRANCH   1  24
TORSDOF 52
