REMARK SMILES CCCCCCC[C@H]1CCC(=O)c2[nH]c(C)c(OC)c(=O)c21
REMARK SMILES IDX 5 1 4 2 3 3 2 4 1 5 6 6 7 7 8 8 9 9 22 10 10 11 13 12 20 13
REMARK SMILES IDX 11 14 14 15 21 16 17 17 12 18 15 19 16 21 18 22 19 23
REMARK H PARENT 14 20
ROOT
ATOM      1  C   UNL     1       2.120   1.009   1.270  1.00  0.00     0.000 C 
ENDROOT
BRANCH   1   2
ATOM      2  C   UNL     1       3.298   0.023   1.188  1.00  0.00    -0.000 C 
BRANCH   2   3
ATOM      3  C   UNL     1       4.354   0.452   0.151  1.00  0.00    -0.000 C 
BRANCH   3   4
ATOM      4  C   UNL     1       3.815   0.482  -1.290  1.00  0.00    -0.003 C 
ATOM      5  C   UNL     1       4.909   0.869  -2.281  1.00  0.00     0.004 C 
ENDBRANCH   3   4
ENDBRANCH   2   3
ENDBRANCH   1   2
BRANCH   1   6
ATOM      6  C   UNL     1       1.074   0.662   2.345  1.00  0.00     0.001 C 
BRANCH   6   7
ATOM      7  C   UNL     1       0.406  -0.738   2.219  1.00  0.00     0.008 C 
BRANCH   7   8
ATOM      8  C   UNL     1      -0.110  -1.157   0.810  1.00  0.00     0.026 C 
ATOM      9  C   UNL     1      -0.346  -2.672   0.740  1.00  0.00     0.017 C 
ATOM     10  C   UNL     1      -1.350  -0.472   0.192  1.00  0.00     0.034 A 
ATOM     11  C   UNL     1      -0.340  -3.113  -0.738  1.00  0.00     0.083 C 
ATOM     12  C   UNL     1      -1.785  -0.972  -1.062  1.00  0.00     0.090 A 
ATOM     13  C   UNL     1      -2.083   0.601   0.754  1.00  0.00     0.227 A 
ATOM     14  C   UNL     1      -1.172  -2.210  -1.615  1.00  0.00     0.179 C 
ATOM     15  N   UNL     1      -2.792  -0.356  -1.745  1.00  0.00    -0.353 N 
ATOM     16  O   UNL     1      -1.828   1.026   1.862  1.00  0.00    -0.285 OA
ATOM     17  C   UNL     1      -3.131   1.199   0.033  1.00  0.00     0.185 A 
ATOM     18  O   UNL     1      -1.368  -2.529  -2.778  1.00  0.00    -0.293 OA
ATOM     19  C   UNL     1      -3.456   0.719  -1.244  1.00  0.00     0.059 A 
ATOM     20  H   UNL     1      -3.084  -0.729  -2.678  1.00  0.00     0.166 HD
ATOM     21  C   UNL     1      -4.553   1.341  -2.064  1.00  0.00     0.068 C 
BRANCH  17  22
ATOM     22  O   UNL     1      -3.817   2.240   0.559  1.00  0.00    -0.491 OA
ATOM     23  C   UNL     1      -4.821   2.062   1.486  1.00  0.00     0.278 C 
ENDBRANCH  17  22
ENDBRANCH   7   8
ENDBRANCH   6   7
ENDBRANCH   1   6
TORSDOF 7
