REMARK SMILES CC1=CC(=O)C[C@@H]2O[C@H]3C=C(C)[C@@]45Oc6c(C)c(C)oc(=O)c6[C@@H]4O[C@H](O)[C@]54CC[C@@H]1[C@@]2(C)[C@@H]34
REMARK SMILES IDX 7 1 8 2 9 3 10 4 11 5 12 6 13 7 14 8 15 9 23 10 21 11 22 12
REMARK SMILES IDX 20 13 18 14 19 15 16 16 17 17 24 18 25 19 26 20 28 21 29 22
REMARK SMILES IDX 30 23 31 24 32 25 33 26 34 27 2 28 3 29 1 30 6 32 4 33 5 34
REMARK SMILES IDX 27 36
REMARK H PARENT 27 37
REMARK Flexibility Score:    7.900
ROOT
ATOM      1  C   UNL     1      -3.115   1.539   0.456  1.00  0.00     0.133 C 
ATOM      2  O   UNL     1      -2.407   2.235   1.487  1.00  0.00    -0.369 OA
ATOM      3  C   UNL     1      -1.042   1.929   1.303  1.00  0.00     0.146 C 
ATOM      4  C   UNL     1      -0.159   1.910   2.501  1.00  0.00     0.008 C 
ATOM      5  C   UNL     1       1.023   1.239   2.469  1.00  0.00    -0.028 C 
ATOM      6  C   UNL     1       1.922   1.357   3.681  1.00  0.00     0.044 C 
ATOM      7  C   UNL     1       1.402   0.334   1.242  1.00  0.00     0.171 C 
ATOM      8  O   UNL     1       2.055   0.993   0.209  1.00  0.00    -0.478 OA
ATOM      9  C   UNL     1       3.041   0.202  -0.262  1.00  0.00     0.140 A 
ATOM     10  C   UNL     1       3.221  -0.911   0.506  1.00  0.00     0.113 A 
ATOM     11  C   UNL     1       4.205  -1.837   0.182  1.00  0.00     0.345 A 
ATOM     12  O   UNL     1       4.396  -2.816   0.880  1.00  0.00    -0.246 OA
ATOM     13  O   UNL     1       4.944  -1.635  -0.908  1.00  0.00    -0.427 OA
ATOM     14  C   UNL     1       4.798  -0.567  -1.704  1.00  0.00     0.111 A 
ATOM     15  C   UNL     1       5.696  -0.460  -2.899  1.00  0.00     0.088 C 
ATOM     16  C   UNL     1       3.817   0.420  -1.403  1.00  0.00     0.030 A 
ATOM     17  C   UNL     1       3.579   1.649  -2.238  1.00  0.00     0.052 C 
ATOM     18  C   UNL     1       2.311  -0.836   1.669  1.00  0.00     0.212 C 
ATOM     19  O   UNL     1       1.506  -1.971   1.890  1.00  0.00    -0.339 OA
ATOM     20  C   UNL     1       0.159  -1.524   1.813  1.00  0.00     0.258 C 
ATOM     21  C   UNL     1       0.147  -0.420   0.708  1.00  0.00     0.074 C 
ATOM     22  C   UNL     1       0.207  -1.127  -0.710  1.00  0.00     0.018 C 
ATOM     23  C   UNL     1      -1.218  -1.583  -1.228  1.00  0.00     0.009 C 
ATOM     24  C   UNL     1      -2.278  -0.410  -1.222  1.00  0.00     0.024 C 
ATOM     25  C   UNL     1      -2.369   0.203   0.224  1.00  0.00     0.007 C 
ATOM     26  C   UNL     1      -2.998  -0.772   1.256  1.00  0.00     0.015 C 
ATOM     27  C   UNL     1      -0.952   0.658   0.496  1.00  0.00     0.047 C 
ENDROOT
BRANCH  24  28
ATOM     28  C   UNL     1      -3.633  -0.705  -1.827  1.00  0.00    -0.066 C 
ATOM     29  C   UNL     1      -4.539   0.287  -2.029  1.00  0.00     0.046 CG0
ATOM     30  C   UNL     1      -3.974  -2.110  -2.267  1.00  0.00     0.040 C 
ATOM     31  G   UNL     1      -4.417   1.736  -1.655  1.00  0.00     0.000 G0
ENDBRANCH  24  28
BRANCH   1  32
ATOM     32  C   UNL     1      -3.288   2.351  -0.834  1.00  0.00     0.113 C 
BRANCH  32  33
ATOM     33  C   UNL     1      -4.417   1.736  -1.655  1.00  0.00     0.158 CG0
ATOM     34  O   UNL     1      -5.357   2.461  -1.943  1.00  0.00    -0.295 OA
ATOM     35  G   UNL     1      -4.539   0.287  -2.029  1.00  0.00     0.000 G0
ENDBRANCH  32  33
ENDBRANCH   1  32
BRANCH  20  36
ATOM     36  O   UNL     1      -0.663  -2.631   1.570  1.00  0.00    -0.367 OA
ATOM     37  H   UNL     1      -0.149  -3.304   1.052  1.00  0.00     0.213 HD
ENDBRANCH  20  36
TORSDOF 1
