REMARK SMILES CC(C)(CO[P@@](=O)(O)O[P@@](=O)(O)OC[C@H]1O[C@H](n2cnc3c(N)ncnc32)[C@H](O)[C@@H]1OP(=O)(O)O)[C@H](O)C(=O)NCCC(=O)NCCSC(=O)C[C@@]1(O)C=CC=C[C@@H]1O
REMARK SMILES IDX 1 1 2 2 3 3 4 4 5 5 6 6 7 7 8 8 9 10 10 11 11 12 12 13 13 15
REMARK SMILES IDX 14 16 15 17 16 18 30 19 17 20 28 21 31 22 32 23 33 24 34 25
REMARK SMILES IDX 35 27 18 29 19 30 27 31 20 32 26 33 21 34 25 35 22 36 24 37
REMARK SMILES IDX 23 38 29 41 36 43 37 44 38 46 39 47 40 48 41 50 42 51 43 52
REMARK SMILES IDX 44 53 45 54 46 56 47 57 48 58 49 59 50 60 51 61 52 62 54 63
REMARK SMILES IDX 58 64 55 65 57 66 56 67 53 68 59 70
REMARK H PARENT 8 9 12 14 34 26 35 28 23 39 23 40 29 42 37 45 40 49 45 55
REMARK H PARENT 53 69 59 71
ROOT
ATOM      1  C   UNL     1       1.547  -1.583   0.914  1.00  0.00     0.017 C 
ATOM      2  C   UNL     1       0.966  -0.205   1.311  1.00  0.00     0.024 C 
ATOM      3  C   UNL     1       0.958  -0.126   2.857  1.00  0.00     0.017 C 
ENDROOT
BRANCH   2   4
ATOM      4  C   UNL     1      -0.512  -0.119   0.851  1.00  0.00     0.183 C 
BRANCH   4   5
ATOM      5  O   UNL     1      -0.619  -0.267  -0.545  1.00  0.00    -0.286 OA
BRANCH   5   6
ATOM      6  P   UNL     1      -2.312  -0.408  -0.948  1.00  0.00     0.481 P 
ATOM      7  O   UNL     1      -2.995   0.971  -0.722  1.00  0.00    -0.228 OA
BRANCH   6   8
ATOM      8  O   UNL     1      -2.473  -0.763  -2.639  1.00  0.00    -0.302 OA
ATOM      9  H   UNL     1      -1.853  -0.134  -3.087  1.00  0.00     0.223 HD
ENDBRANCH   6   8
BRANCH   6  10
ATOM     10  O   UNL     1      -3.072  -1.671  -0.002  1.00  0.00    -0.185 OA
BRANCH  10  11
ATOM     11  P   UNL     1      -4.104  -0.930   1.193  1.00  0.00     0.481 P 
ATOM     12  O   UNL     1      -4.407  -2.031   2.245  1.00  0.00    -0.228 OA
BRANCH  11  13
ATOM     13  O   UNL     1      -3.356   0.389   2.048  1.00  0.00    -0.302 OA
ATOM     14  H   UNL     1      -2.920  -0.025   2.835  1.00  0.00     0.223 HD
ENDBRANCH  11  13
BRANCH  11  15
ATOM     15  O   UNL     1      -5.641  -0.519   0.487  1.00  0.00    -0.284 OA
BRANCH  15  16
ATOM     16  C   UNL     1      -6.058   0.739   0.960  1.00  0.00     0.208 C 
BRANCH  16  17
ATOM     17  C   UNL     1      -7.538   0.865   0.621  1.00  0.00     0.180 C 
ATOM     18  O   UNL     1      -8.098   2.092   1.097  1.00  0.00    -0.347 OA
ATOM     19  C   UNL     1      -7.793   0.763  -0.899  1.00  0.00     0.195 C 
ATOM     20  C   UNL     1      -9.067   2.437   0.128  1.00  0.00     0.253 C 
ATOM     21  C   UNL     1      -8.332   2.139  -1.173  1.00  0.00     0.196 C 
BRANCH  19  22
ATOM     22  O   UNL     1      -8.804  -0.197  -1.149  1.00  0.00    -0.278 OA
BRANCH  22  23
ATOM     23  P   UNL     1      -8.312  -1.391  -2.345  1.00  0.00     0.470 P 
ATOM     24  O   UNL     1      -7.019  -0.977  -3.103  1.00  0.00    -0.228 OA
BRANCH  23  25
ATOM     25  O   UNL     1      -8.000  -2.926  -1.599  1.00  0.00    -0.303 OA
ATOM     26  H   UNL     1      -7.376  -2.719  -0.857  1.00  0.00     0.223 HD
ENDBRANCH  23  25
BRANCH  23  27
ATOM     27  O   UNL     1      -9.546  -1.571  -3.553  1.00  0.00    -0.303 OA
ATOM     28  H   UNL     1      -9.527  -0.718  -4.058  1.00  0.00     0.223 HD
ENDBRANCH  23  27
ENDBRANCH  22  23
ENDBRANCH  19  22
BRANCH  20  29
ATOM     29  N   UNL     1     -10.294   1.634   0.373  1.00  0.00    -0.285 N 
ATOM     30  C   UNL     1     -10.564   0.941   1.516  1.00  0.00     0.204 A 
ATOM     31  C   UNL     1     -11.364   1.397  -0.406  1.00  0.00     0.167 A 
ATOM     32  N   UNL     1     -11.740   0.268   1.465  1.00  0.00    -0.231 NA
ATOM     33  N   UNL     1     -11.608   1.832  -1.664  1.00  0.00    -0.216 NA
ATOM     34  C   UNL     1     -12.215   0.562   0.244  1.00  0.00     0.150 A 
ATOM     35  C   UNL     1     -12.747   1.403  -2.288  1.00  0.00     0.226 A 
ATOM     36  C   UNL     1     -13.374   0.120  -0.376  1.00  0.00     0.155 A 
ATOM     37  N   UNL     1     -13.615   0.554  -1.648  1.00  0.00    -0.217 NA
BRANCH  36  38
ATOM     38  N   UNL     1     -14.267  -0.768   0.269  1.00  0.00    -0.382 N 
ATOM     39  H   UNL     1     -14.081  -1.102   1.226  1.00  0.00     0.158 HD
ATOM     40  H   UNL     1     -15.109  -1.103  -0.221  1.00  0.00     0.158 HD
ENDBRANCH  36  38
ENDBRANCH  20  29
BRANCH  21  41
ATOM     41  O   UNL     1      -9.112   2.243  -2.333  1.00  0.00    -0.386 OA
ATOM     42  H   UNL     1      -8.590   1.839  -3.072  1.00  0.00     0.211 HD
ENDBRANCH  21  41
ENDBRANCH  16  17
ENDBRANCH  15  16
ENDBRANCH  11  15
ENDBRANCH  10  11
ENDBRANCH   6  10
ENDBRANCH   5   6
ENDBRANCH   4   5
ENDBRANCH   2   4
BRANCH   2  43
ATOM     43  C   UNL     1       1.790   0.980   0.666  1.00  0.00     0.211 C 
BRANCH  43  44
ATOM     44  O   UNL     1       1.632   1.009  -0.735  1.00  0.00    -0.383 OA
ATOM     45  H   UNL     1       2.058   0.201  -1.120  1.00  0.00     0.211 HD
ENDBRANCH  43  44
BRANCH  43  46
ATOM     46  C   UNL     1       3.276   1.028   1.011  1.00  0.00     0.249 C 
ATOM     47  O   UNL     1       4.095   0.879   0.117  1.00  0.00    -0.272 OA
ATOM     48  N   UNL     1       3.690   1.314   2.275  1.00  0.00    -0.353 N 
ATOM     49  H   UNL     1       2.986   1.542   2.989  1.00  0.00     0.163 HD
BRANCH  48  50
ATOM     50  C   UNL     1       5.080   1.441   2.678  1.00  0.00     0.126 C 
BRANCH  50  51
ATOM     51  C   UNL     1       5.871   0.118   2.691  1.00  0.00     0.121 C 
BRANCH  51  52
ATOM     52  C   UNL     1       6.257  -0.426   1.337  1.00  0.00     0.221 C 
ATOM     53  O   UNL     1       6.767   0.326   0.523  1.00  0.00    -0.275 OA
ATOM     54  N   UNL     1       6.146  -1.764   1.081  1.00  0.00    -0.355 N 
ATOM     55  H   UNL     1       5.758  -2.374   1.815  1.00  0.00     0.163 HD
BRANCH  54  56
ATOM     56  C   UNL     1       6.629  -2.415  -0.131  1.00  0.00     0.127 C 
BRANCH  56  57
ATOM     57  C   UNL     1       8.116  -2.122  -0.409  1.00  0.00     0.099 C 
BRANCH  57  58
ATOM     58  S   UNL     1       9.123  -2.259   1.108  1.00  0.00    -0.086 SA
BRANCH  58  59
ATOM     59  C   UNL     1      10.741  -2.632   0.393  1.00  0.00     0.192 C 
ATOM     60  O   UNL     1      11.206  -3.720   0.694  1.00  0.00    -0.287 OA
BRANCH  59  61
ATOM     61  C   UNL     1      11.673  -1.678  -0.350  1.00  0.00     0.130 C 
BRANCH  61  62
ATOM     62  C   UNL     1      11.171  -0.351  -1.016  1.00  0.00     0.120 C 
ATOM     63  C   UNL     1      10.561   0.595   0.009  1.00  0.00     0.011 C 
ATOM     64  C   UNL     1      12.399   0.298  -1.779  1.00  0.00     0.173 C 
ATOM     65  C   UNL     1      10.864   1.896   0.089  1.00  0.00    -0.001 C 
ATOM     66  C   UNL     1      12.555   1.796  -1.666  1.00  0.00     0.007 C 
ATOM     67  C   UNL     1      11.850   2.521  -0.799  1.00  0.00    -0.002 C 
BRANCH  62  68
ATOM     68  O   UNL     1      10.152  -0.624  -1.949  1.00  0.00    -0.382 OA
ATOM     69  H   UNL     1      10.398  -1.437  -2.465  1.00  0.00     0.211 HD
ENDBRANCH  62  68
BRANCH  64  70
ATOM     70  O   UNL     1      12.433  -0.103  -3.127  1.00  0.00    -0.386 OA
ATOM     71  H   UNL     1      11.748   0.430  -3.612  1.00  0.00     0.211 HD
ENDBRANCH  64  70
ENDBRANCH  61  62
ENDBRANCH  59  61
ENDBRANCH  58  59
ENDBRANCH  57  58
ENDBRANCH  56  57
ENDBRANCH  54  56
ENDBRANCH  51  52
ENDBRANCH  50  51
ENDBRANCH  48  50
ENDBRANCH  43  46
ENDBRANCH   2  43
TORSDOF 31
