REMARK SMILES CC[C@@H](C)[C@@H]1OC(=O)\C=C/C=C\C=C/C=C\[C@H]2O[C@H](C[C@H](O)C[C@H](O)C[C@H](O)C[C@H](O)C[C@H](O)C[C@@H](O)C[C@@H](O)/C=C\[C@@H]1C)C[C@@H]2O
REMARK SMILES IDX 11 1 12 2 10 3 9 4 7 5 8 6 6 7 5 8 3 9 4 10 2 11 1 12 43 13
REMARK SMILES IDX 44 14 42 15 41 16 39 17 38 18 36 19 35 20 33 21 32 22 34 24
REMARK SMILES IDX 37 26 40 28 13 30 14 31 15 32 16 33 17 34 18 35 46 36 19 37
REMARK SMILES IDX 45 38 47 39 20 41 21 42 22 43 23 45 24 46 25 47 26 49 27 50
REMARK SMILES IDX 28 51 29 53 30 54 31 56
REMARK H PARENT 34 25 37 27 40 29 47 40 22 44 25 48 28 52 31 57
REMARK Flexibility Score:  184.900
ROOT
ATOM      1  C   UNL     1       0.983   0.962   2.333  1.00  0.00     0.000 C 
ATOM      2  C   UNL     1       1.148   0.222   1.207  1.00  0.00     0.000 C 
ENDROOT
BRANCH   1   3
ATOM      3  C   UNL     1       0.258   2.119   2.945  1.00  0.00     0.007 C 
ATOM      4  C   UNL     1      -0.879   2.822   2.800  1.00  0.00     0.093 C 
BRANCH   4   5
ATOM      5  C   UNL     1      -2.052   2.764   1.912  1.00  0.00     0.331 C 
ATOM      6  O   UNL     1      -2.988   3.491   2.235  1.00  0.00    -0.247 OA
BRANCH   5   7
ATOM      7  O   UNL     1      -2.187   1.961   0.817  1.00  0.00    -0.458 OA
BRANCH   7   8
ATOM      8  C   UNL     1      -3.446   1.584   0.333  1.00  0.00     0.186 C 
BRANCH   8   9
ATOM      9  C   UNL     1      -3.843   2.481  -0.898  1.00  0.00     0.027 C 
ATOM     10  C   UNL     1      -3.651   3.984  -0.578  1.00  0.00     0.011 C 
BRANCH   9  11
ATOM     11  C   UNL     1      -5.294   2.231  -1.380  1.00  0.00     0.004 C 
ATOM     12  C   UNL     1      -5.636   2.999  -2.667  1.00  0.00     0.004 C 
ENDBRANCH   9  11
ENDBRANCH   8   9
BRANCH   8  13
ATOM     13  C   UNL     1      -3.490   0.018   0.134  1.00  0.00     0.050 C 
ATOM     14  C   UNL     1      -3.048  -0.459  -1.258  1.00  0.00     0.016 C 
BRANCH  13  15
ATOM     15  C   UNL     1      -2.566  -0.627   1.171  1.00  0.00    -0.022 C 
ATOM     16  C   UNL     1      -2.785  -1.635   2.027  1.00  0.00     0.000 C 
BRANCH  16  17
ATOM     17  C   UNL     1      -4.014  -2.485   2.139  1.00  0.00     0.139 C 
BRANCH  17  18
ATOM     18  C   UNL     1      -3.661  -3.991   1.951  1.00  0.00     0.068 C 
BRANCH  18  19
ATOM     19  C   UNL     1      -3.279  -4.421   0.503  1.00  0.00     0.119 C 
BRANCH  19  20
ATOM     20  C   UNL     1      -1.944  -3.898  -0.103  1.00  0.00     0.063 C 
BRANCH  20  21
ATOM     21  C   UNL     1      -0.608  -4.616   0.256  1.00  0.00     0.119 C 
BRANCH  21  22
ATOM     22  C   UNL     1       0.561  -3.829  -0.415  1.00  0.00     0.063 CG0
ATOM     23  G   UNL     1       1.921  -4.555  -0.598  1.00  0.00     0.000 G0
ENDBRANCH  21  22
BRANCH  21  24
ATOM     24  O   UNL     1      -0.647  -5.953  -0.182  1.00  0.00    -0.393 OA
ATOM     25  H   UNL     1      -0.837  -5.951  -1.156  1.00  0.00     0.210 HD
ENDBRANCH  21  24
ENDBRANCH  20  21
ENDBRANCH  19  20
BRANCH  19  26
ATOM     26  O   UNL     1      -3.356  -5.818   0.368  1.00  0.00    -0.393 OA
ATOM     27  H   UNL     1      -2.834  -6.219   1.112  1.00  0.00     0.210 HD
ENDBRANCH  19  26
ENDBRANCH  18  19
ENDBRANCH  17  18
BRANCH  17  28
ATOM     28  O   UNL     1      -4.598  -2.282   3.402  1.00  0.00    -0.389 OA
ATOM     29  H   UNL     1      -3.945  -2.570   4.093  1.00  0.00     0.211 HD
ENDBRANCH  17  28
ENDBRANCH  16  17
ENDBRANCH  13  15
ENDBRANCH   8  13
ENDBRANCH   7   8
ENDBRANCH   5   7
ENDBRANCH   4   5
ENDBRANCH   1   3
BRANCH   2  30
ATOM     30  C   UNL     1       0.779   0.061  -0.238  1.00  0.00    -0.000 C 
ATOM     31  C   UNL     1       0.213   0.722  -1.269  1.00  0.00    -0.000 C 
BRANCH  31  32
ATOM     32  C   UNL     1      -0.346   2.071  -1.496  1.00  0.00    -0.002 C 
ATOM     33  C   UNL     1      -0.026   3.242  -0.954  1.00  0.00     0.007 C 
BRANCH  33  34
ATOM     34  C   UNL     1       1.140   3.512  -0.037  1.00  0.00     0.170 C 
ATOM     35  O   UNL     1       2.136   2.520  -0.209  1.00  0.00    -0.368 OA
ATOM     36  C   UNL     1       1.812   4.860  -0.387  1.00  0.00     0.149 C 
ATOM     37  C   UNL     1       2.872   2.972  -1.320  1.00  0.00     0.124 C 
ATOM     38  C   UNL     1       3.108   4.448  -1.060  1.00  0.00     0.067 C 
BRANCH  36  39
ATOM     39  O   UNL     1       2.077   5.640   0.758  1.00  0.00    -0.390 OA
ATOM     40  H   UNL     1       2.509   5.053   1.435  1.00  0.00     0.211 HD
ENDBRANCH  36  39
BRANCH  37  41
ATOM     41  C   UNL     1       4.160   2.157  -1.533  1.00  0.00     0.064 C 
BRANCH  41  42
ATOM     42  C   UNL     1       4.981   1.907  -0.232  1.00  0.00     0.119 C 
BRANCH  42  43
ATOM     43  O   UNL     1       6.331   2.301  -0.359  1.00  0.00    -0.393 OA
ATOM     44  H   UNL     1       6.630   2.192  -1.295  1.00  0.00     0.210 HD
ENDBRANCH  42  43
BRANCH  42  45
ATOM     45  C   UNL     1       4.893   0.457   0.345  1.00  0.00     0.063 C 
BRANCH  45  46
ATOM     46  C   UNL     1       5.522  -0.713  -0.482  1.00  0.00     0.119 C 
BRANCH  46  47
ATOM     47  O   UNL     1       6.567  -0.253  -1.300  1.00  0.00    -0.393 OA
ATOM     48  H   UNL     1       6.158   0.092  -2.137  1.00  0.00     0.210 HD
ENDBRANCH  46  47
BRANCH  46  49
ATOM     49  C   UNL     1       4.567  -1.648  -1.289  1.00  0.00     0.063 C 
BRANCH  49  50
ATOM     50  C   UNL     1       3.666  -2.586  -0.427  1.00  0.00     0.119 C 
BRANCH  50  51
ATOM     51  O   UNL     1       4.424  -3.250   0.555  1.00  0.00    -0.393 OA
ATOM     52  H   UNL     1       5.149  -3.749   0.090  1.00  0.00     0.210 HD
ENDBRANCH  50  51
BRANCH  50  53
ATOM     53  C   UNL     1       2.960  -3.640  -1.320  1.00  0.00     0.063 C 
BRANCH  53  54
ATOM     54  C   UNL     1       1.921  -4.555  -0.598  1.00  0.00     0.119 CG0
ATOM     55  G   UNL     1       0.561  -3.829  -0.415  1.00  0.00     0.000 G0
BRANCH  54  56
ATOM     56  O   UNL     1       1.734  -5.713  -1.376  1.00  0.00    -0.393 OA
ATOM     57  H   UNL     1       1.408  -5.432  -2.272  1.00  0.00     0.210 HD
ENDBRANCH  54  56
ENDBRANCH  53  54
ENDBRANCH  50  53
ENDBRANCH  49  50
ENDBRANCH  46  49
ENDBRANCH  45  46
ENDBRANCH  42  45
ENDBRANCH  41  42
ENDBRANCH  37  41
ENDBRANCH  33  34
ENDBRANCH  31  32
ENDBRANCH   2  30
TORSDOF 10
