REMARK SMILES CC1(C)[C@@H](O)CC[C@]2(C)[C@H]3CC=C4[C@@H]5C[C@](C)(C(=O)O)CC[C@]5(C)CC[C@@]4(C)[C@@H]3CC[C@@H]12
REMARK SMILES IDX 1 1 2 2 3 3 4 4 6 5 7 6 8 7 9 8 10 9 11 10 12 11 13 12 14 13
REMARK SMILES IDX 15 14 16 15 17 16 21 17 22 18 23 19 24 20 25 21 26 22 27 23
REMARK SMILES IDX 28 24 29 25 30 26 31 27 32 28 5 29 18 31 19 32 20 33
REMARK H PARENT 5 30 20 34
ROOT
ATOM      1  C   UNL     1       5.806  -1.415   0.903  1.00  0.00     0.014 C 
ATOM      2  C   UNL     1       5.204  -0.014   0.602  1.00  0.00    -0.006 C 
ATOM      3  C   UNL     1       5.702   0.914   1.750  1.00  0.00     0.014 C 
ATOM      4  C   UNL     1       5.792   0.534  -0.758  1.00  0.00     0.120 C 
ATOM      5  C   UNL     1       4.847   1.577  -1.353  1.00  0.00     0.033 C 
ATOM      6  C   UNL     1       3.498   0.944  -1.769  1.00  0.00     0.010 C 
ATOM      7  C   UNL     1       2.893  -0.116  -0.765  1.00  0.00    -0.026 C 
ATOM      8  C   UNL     1       3.111  -1.563  -1.326  1.00  0.00     0.012 C 
ATOM      9  C   UNL     1       1.337   0.187  -0.583  1.00  0.00     0.003 C 
ATOM     10  C   UNL     1       0.559   0.008  -1.911  1.00  0.00     0.031 C 
ATOM     11  C   UNL     1      -0.926   0.066  -1.779  1.00  0.00    -0.027 C 
ATOM     12  C   UNL     1      -1.605  -0.002  -0.616  1.00  0.00    -0.064 C 
ATOM     13  C   UNL     1      -3.149   0.011  -0.715  1.00  0.00     0.022 C 
ATOM     14  C   UNL     1      -3.803   1.333  -0.213  1.00  0.00     0.027 C 
ATOM     15  C   UNL     1      -5.354   1.329  -0.275  1.00  0.00     0.066 C 
ATOM     16  C   UNL     1      -5.844   1.298  -1.751  1.00  0.00     0.024 C 
ATOM     17  C   UNL     1      -5.873   0.095   0.515  1.00  0.00     0.019 C 
ATOM     18  C   UNL     1      -5.276  -1.221  -0.009  1.00  0.00     0.008 C 
ATOM     19  C   UNL     1      -3.715  -1.251   0.001  1.00  0.00    -0.026 C 
ATOM     20  C   UNL     1      -3.305  -2.530  -0.784  1.00  0.00     0.012 C 
ATOM     21  C   UNL     1      -3.147  -1.305   1.461  1.00  0.00     0.008 C 
ATOM     22  C   UNL     1      -1.598  -1.390   1.491  1.00  0.00     0.012 C 
ATOM     23  C   UNL     1      -0.877  -0.218   0.746  1.00  0.00    -0.008 C 
ATOM     24  C   UNL     1      -0.964   1.074   1.615  1.00  0.00     0.016 C 
ATOM     25  C   UNL     1       0.657  -0.646   0.534  1.00  0.00     0.003 C 
ATOM     26  C   UNL     1       1.485  -0.553   1.853  1.00  0.00     0.005 C 
ATOM     27  C   UNL     1       2.965  -0.884   1.689  1.00  0.00     0.005 C 
ATOM     28  C   UNL     1       3.603   0.040   0.624  1.00  0.00     0.003 C 
ENDROOT
BRANCH   4  29
ATOM     29  O   UNL     1       5.994  -0.487  -1.702  1.00  0.00    -0.393 OA
ATOM     30  H   UNL     1       6.606  -0.128  -2.398  1.00  0.00     0.210 HD
ENDBRANCH   4  29
BRANCH  15  31
ATOM     31  C   UNL     1      -5.890   2.604   0.398  1.00  0.00     0.309 C 
ATOM     32  O   UNL     1      -6.576   3.398  -0.227  1.00  0.00    -0.252 OA
BRANCH  31  33
ATOM     33  O   UNL     1      -5.622   2.880   1.697  1.00  0.00    -0.481 OA
ATOM     34  H   UNL     1      -5.096   2.304   2.266  1.00  0.00     0.296 HD
ENDBRANCH  31  33
ENDBRANCH  15  31
TORSDOF 3
