REMARK SMILES C[C@H]1CCC[C@H](NCCc2ccccc2)CCC/C=C/c2cc(O)cc(O)c2C(=O)O1
REMARK SMILES IDX 18 1 19 2 20 3 21 4 28 5 26 6 25 7 22 8 23 9 29 10 30 11
REMARK SMILES IDX 31 12 2 13 1 14 3 15 27 17 24 19 17 21 16 22 6 23 5 24 4 25
REMARK SMILES IDX 7 27 8 29 9 30 10 31 11 32 15 33 12 34 14 35 13 36
REMARK H PARENT 27 18 24 20 7 28
REMARK Flexibility Score:  244.900
ROOT
ATOM      1  C   UNL     1      -0.448   1.866   0.876  1.00  0.00     0.027 C 
ENDROOT
BRANCH   1   2
ATOM      2  C   UNL     1      -1.808   1.170   0.883  1.00  0.00    -0.026 C 
ATOM      3  C   UNL     1      -2.937   1.876   0.714  1.00  0.00     0.005 C 
BRANCH   3   4
ATOM      4  C   UNL     1      -4.288   1.328   1.013  1.00  0.00    -0.004 A 
ATOM      5  C   UNL     1      -4.943   0.178   0.444  1.00  0.00     0.109 A 
ATOM      6  C   UNL     1      -6.219  -0.181   0.987  1.00  0.00     0.134 A 
ATOM      7  C   UNL     1      -6.798   0.554   2.030  1.00  0.00     0.093 A 
ATOM      8  C   UNL     1      -4.923   2.050   2.042  1.00  0.00     0.055 A 
ATOM      9  C   UNL     1      -6.158   1.664   2.554  1.00  0.00     0.119 A 
BRANCH   5  10
ATOM     10  C   UNL     1      -4.418  -0.636  -0.720  1.00  0.00     0.342 C 
ATOM     11  O   UNL     1      -5.036  -1.634  -1.067  1.00  0.00    -0.246 OA
BRANCH  10  12
ATOM     12  O   UNL     1      -3.320  -0.280  -1.442  1.00  0.00    -0.459 OA
BRANCH  12  13
ATOM     13  C   UNL     1      -2.960  -0.876  -2.661  1.00  0.00     0.173 C 
ATOM     14  C   UNL     1      -2.706   0.215  -3.705  1.00  0.00     0.053 C 
BRANCH  13  15
ATOM     15  C   UNL     1      -1.749  -1.822  -2.463  1.00  0.00     0.045 CG0
ATOM     16  G   UNL     1      -0.566  -1.068  -1.876  1.00  0.00     0.000 G0
ENDBRANCH  13  15
ENDBRANCH  12  13
ENDBRANCH  10  12
ENDBRANCH   5  10
BRANCH   6  17
ATOM     17  O   UNL     1      -6.913  -1.237   0.504  1.00  0.00    -0.507 OA
ATOM     18  H   UNL     1      -7.781  -1.495   0.845  1.00  0.00     0.293 HD
ENDBRANCH   6  17
BRANCH   9  19
ATOM     19  O   UNL     1      -6.734   2.348   3.563  1.00  0.00    -0.508 OA
ATOM     20  H   UNL     1      -6.303   3.109   3.981  1.00  0.00     0.293 HD
ENDBRANCH   9  19
ENDBRANCH   3   4
ENDBRANCH   1   2
BRANCH   1  21
ATOM     21  C   UNL     1       0.570   1.195  -0.046  1.00  0.00     0.006 C 
BRANCH  21  22
ATOM     22  C   UNL     1       1.001  -0.195   0.505  1.00  0.00     0.019 C 
BRANCH  22  23
ATOM     23  C   UNL     1       1.666  -1.115  -0.561  1.00  0.00     0.053 C 
BRANCH  23  24
ATOM     24  C   UNL     1       0.570  -1.936  -1.330  1.00  0.00     0.019 C 
BRANCH  24  25
ATOM     25  C   UNL     1      -0.566  -1.068  -1.876  1.00  0.00     0.005 CG0
ATOM     26  G   UNL     1      -1.749  -1.822  -2.463  1.00  0.00     0.000 G0
ENDBRANCH  24  25
ENDBRANCH  23  24
BRANCH  23  27
ATOM     27  N   UNL     1       2.580  -2.058   0.132  1.00  0.00    -0.314 NA
ATOM     28  H   UNL     1       2.576  -2.988  -0.351  1.00  0.00     0.122 HD
BRANCH  27  29
ATOM     29  C   UNL     1       3.998  -1.641   0.161  1.00  0.00     0.086 C 
BRANCH  29  30
ATOM     30  C   UNL     1       4.236  -0.282   0.842  1.00  0.00     0.051 C 
BRANCH  30  31
ATOM     31  C   UNL     1       5.705   0.039   0.935  1.00  0.00    -0.047 A 
ATOM     32  C   UNL     1       6.535  -0.690   1.805  1.00  0.00     0.004 A 
ATOM     33  C   UNL     1       6.258   1.079   0.169  1.00  0.00     0.004 A 
ATOM     34  C   UNL     1       7.895  -0.381   1.906  1.00  0.00     0.000 A 
ATOM     35  C   UNL     1       7.621   1.377   0.265  1.00  0.00     0.000 A 
ATOM     36  C   UNL     1       8.438   0.650   1.135  1.00  0.00     0.000 A 
ENDBRANCH  30  31
ENDBRANCH  29  30
ENDBRANCH  27  29
ENDBRANCH  23  27
ENDBRANCH  22  23
ENDBRANCH  21  22
ENDBRANCH   1  21
TORSDOF 6
