REMARK SMILES C/C=C/C1=C(Cl)C(=O)[C@@H](O)[C@@]1(O)C(=O)OC
REMARK SMILES IDX 4 1 5 2 6 3 7 4 8 5 9 6 11 7 3 8 2 9 1 10 12 11 13 13 14 14
REMARK SMILES IDX 15 15 16 16 10 17
REMARK H PARENT 12 12 10 18
ROOT
ATOM      1  C   UNL     1       0.592  -0.614   0.068  1.00  0.00     0.020 C 
ATOM      2  C   UNL     1       0.874  -1.233   1.229  1.00  0.00     0.093 C 
ATOM      3  Cl  UNL     1       2.356  -1.201   2.180  1.00  0.00    -0.080 Cl
ATOM      4  C   UNL     1      -0.270  -2.020   1.647  1.00  0.00     0.206 C 
ATOM      5  O   UNL     1      -0.295  -2.722   2.646  1.00  0.00    -0.290 OA
ATOM      6  C   UNL     1      -1.376  -1.932   0.655  1.00  0.00     0.235 C 
ATOM      7  C   UNL     1      -0.828  -0.913  -0.393  1.00  0.00     0.222 C 
ENDROOT
BRANCH   1   8
ATOM      8  C   UNL     1       1.465   0.284  -0.756  1.00  0.00     0.004 C 
ATOM      9  C   UNL     1       2.744   0.614  -0.512  1.00  0.00    -0.030 C 
ATOM     10  C   UNL     1       3.489   1.519  -1.446  1.00  0.00     0.035 C 
ENDBRANCH   1   8
BRANCH   7  11
ATOM     11  O   UNL     1      -0.775  -1.513  -1.666  1.00  0.00    -0.372 OA
ATOM     12  H   UNL     1      -1.698  -1.796  -1.901  1.00  0.00     0.212 HD
ENDBRANCH   7  11
BRANCH   7  13
ATOM     13  C   UNL     1      -1.617   0.389  -0.443  1.00  0.00     0.345 C 
ATOM     14  O   UNL     1      -2.132   0.752  -1.492  1.00  0.00    -0.248 OA
BRANCH  13  15
ATOM     15  O   UNL     1      -1.743   1.143   0.681  1.00  0.00    -0.467 OA
ATOM     16  C   UNL     1      -2.488   2.302   0.747  1.00  0.00     0.282 C 
ENDBRANCH  13  15
ENDBRANCH   7  13
BRANCH   6  17
ATOM     17  O   UNL     1      -2.609  -1.551   1.224  1.00  0.00    -0.381 OA
ATOM     18  H   UNL     1      -2.434  -0.939   1.987  1.00  0.00     0.211 HD
ENDBRANCH   6  17
TORSDOF 5
