REMARK SMILES O=C(O)c1ccc[n+]([C@@H]2O[C@H](COP(=O)(O)O)[C@@H](O)[C@H]2O)c1
REMARK SMILES IDX 9 1 10 2 11 3 18 4 20 5 8 6 4 7 5 8 22 9 6 10 7 11 2 12 1 13
REMARK SMILES IDX 3 14 21 16 12 18 13 19 14 20 15 21 16 22 17 24 19 26
REMARK H PARENT 3 15 21 17 16 23 17 25 19 27
ROOT
ATOM      1  C   UNL     1      -0.653  -0.708   1.473  1.00  0.00     0.438 C 
ATOM      2  O   UNL     1       0.353   0.276   1.226  1.00  0.00    -0.310 OA
ATOM      3  C   UNL     1       1.503  -0.444   0.835  1.00  0.00     0.183 C 
ATOM      4  C   UNL     1       0.961  -1.578  -0.021  1.00  0.00     0.184 C 
ATOM      5  C   UNL     1      -0.188  -2.047   0.837  1.00  0.00     0.245 C 
ENDROOT
BRANCH   1   6
ATOM      6  N   UNL     1      -1.985  -0.307   0.968  1.00  0.00    -0.174 N 
ATOM      7  C   UNL     1      -3.494   1.214  -0.167  1.00  0.00     0.123 A 
ATOM      8  C   UNL     1      -4.559   0.356   0.152  1.00  0.00     0.028 A 
ATOM      9  C   UNL     1      -2.196   0.853   0.262  1.00  0.00     0.326 A 
ATOM     10  C   UNL     1      -4.332  -0.813   0.866  1.00  0.00     0.072 A 
ATOM     11  C   UNL     1      -3.039  -1.128   1.268  1.00  0.00     0.311 A 
BRANCH   7  12
ATOM     12  C   UNL     1      -3.776   2.468  -0.935  1.00  0.00     0.341 C 
ATOM     13  O   UNL     1      -4.924   2.722  -1.268  1.00  0.00    -0.246 OA
BRANCH  12  14
ATOM     14  O   UNL     1      -2.810   3.346  -1.283  1.00  0.00    -0.477 OA
ATOM     15  H   UNL     1      -1.875   3.239  -1.073  1.00  0.00     0.297 HD
ENDBRANCH  12  14
ENDBRANCH   7  12
ENDBRANCH   1   6
BRANCH   5  16
ATOM     16  O   UNL     1       0.229  -2.971   1.821  1.00  0.00    -0.381 OA
ATOM     17  H   UNL     1       0.814  -2.520   2.481  1.00  0.00     0.211 HD
ENDBRANCH   5  16
BRANCH   3  18
ATOM     18  C   UNL     1       2.516   0.440   0.100  1.00  0.00     0.208 C 
BRANCH  18  19
ATOM     19  O   UNL     1       3.657  -0.333  -0.193  1.00  0.00    -0.284 OA
BRANCH  19  20
ATOM     20  P   UNL     1       4.938   0.741  -0.697  1.00  0.00     0.469 P 
ATOM     21  O   UNL     1       6.180  -0.140  -1.002  1.00  0.00    -0.228 OA
BRANCH  20  22
ATOM     22  O   UNL     1       5.413   1.842   0.561  1.00  0.00    -0.303 OA
ATOM     23  H   UNL     1       5.913   1.287   1.212  1.00  0.00     0.223 HD
ENDBRANCH  20  22
BRANCH  20  24
ATOM     24  O   UNL     1       4.553   1.576  -2.169  1.00  0.00    -0.303 OA
ATOM     25  H   UNL     1       4.494   0.862  -2.853  1.00  0.00     0.223 HD
ENDBRANCH  20  24
ENDBRANCH  19  20
ENDBRANCH  18  19
ENDBRANCH   3  18
BRANCH   4  26
ATOM     26  O   UNL     1       1.883  -2.587  -0.352  1.00  0.00    -0.387 OA
ATOM     27  H   UNL     1       2.405  -2.803   0.465  1.00  0.00     0.211 HD
ENDBRANCH   4  26
TORSDOF 10
