REMARK SMILES C[C][C][C][C][C][C][C][C][C][C][C][C][C][C][C][C][C][C][C][C]C(=O)OC[C@H](CO[P@@](=O)(O)O[C][C](O)[C]O[P@@](=O)(O)OC[C@H](COC(=O)CCCCCCC/C=C\C/C=C\C/C=C\CC)OC(=O)CC[C]CC[C]C/C=C\[C]/C=C\C/C=C\[C]C)OC(=O)[C]CCCCCCCCCCCCCCCCC[C]CC
REMARK SMILES IDX 29 1 30 2 32 3 33 4 34 5 36 6 37 7 38 8 39 9 41 10 42 11
REMARK SMILES IDX 43 12 44 13 45 14 46 15 47 16 48 17 49 18 50 19 51 20 52 21
REMARK SMILES IDX 53 22 54 23 55 24 56 25 57 26 58 27 59 28 60 29 61 30 62 31
REMARK SMILES IDX 63 32 64 33 65 34 66 35 67 36 68 37 69 38 70 39 71 40 72 41
REMARK SMILES IDX 73 42 74 43 75 44 76 45 77 46 78 47 79 48 80 49 81 50 82 51
REMARK SMILES IDX 83 52 84 53 40 54 35 56 31 58 28 60 27 61 26 62 25 63 24 64
REMARK SMILES IDX 22 65 23 66 21 67 20 68 19 69 18 70 17 71 16 72 15 73 14 74
REMARK SMILES IDX 13 75 12 76 11 77 10 78 9 79 8 80 7 81 6 82 5 83 4 84 3 85
REMARK SMILES IDX 2 86 1 87 85 88 86 89 87 90 88 91 89 92 90 93 91 94 92 95
REMARK SMILES IDX 93 96 94 97 95 98 96 99 97 100 98 101 99 102 100 103 101 104
REMARK SMILES IDX 102 105 103 106 104 107 105 108 106 109 107 110 108 111
REMARK H PARENT 40 55 35 57 31 59
ROOT
ATOM      1  P   UNL     1       5.457  -9.913   0.944  1.00  0.00     0.473 P 
ATOM      2  O   UNL     1       6.662  -9.236   1.660  1.00  0.00    -0.228 OA
ENDROOT
BRANCH   1   3
ATOM      3  O   UNL     1       6.054 -11.289   0.000  1.00  0.00    -0.270 OA
BRANCH   3   4
ATOM      4  C   UNL     1       7.554 -11.289   0.000  1.00  0.00     0.186 C 
BRANCH   4   5
ATOM      5  C   UNL     1       9.054 -11.289   0.000  1.00  0.00     0.171 C 
BRANCH   5   6
ATOM      6  C   UNL     1       9.054 -12.789   0.000  1.00  0.00     0.186 C 
BRANCH   6   7
ATOM      7  O   UNL     1       9.054 -14.289   0.000  1.00  0.00    -0.270 OA
BRANCH   7   8
ATOM      8  P   UNL     1      10.354 -15.077  -0.959  1.00  0.00     0.473 P 
ATOM      9  O   UNL     1      10.265 -16.564  -0.523  1.00  0.00    -0.228 OA
BRANCH   8  10
ATOM     10  O   UNL     1      12.122 -14.807  -1.151  1.00  0.00    -0.283 OA
BRANCH  10  11
ATOM     11  C   UNL     1      12.951 -15.039   0.000  1.00  0.00     0.222 C 
BRANCH  11  12
ATOM     12  C   UNL     1      14.250 -14.289   0.000  1.00  0.00     0.240 C 
BRANCH  12  13
ATOM     13  C   UNL     1      13.609 -12.788  -0.578  1.00  0.00     0.280 C 
BRANCH  13  14
ATOM     14  O   UNL     1      12.762 -11.856   0.130  1.00  0.00    -0.462 OA
BRANCH  14  15
ATOM     15  C   UNL     1      12.914 -10.438   0.099  1.00  0.00     0.305 C 
ATOM     16  O   UNL     1      14.040  -9.976  -0.017  1.00  0.00    -0.252 OA
BRANCH  15  17
ATOM     17  C   UNL     1      11.706  -9.386   0.118  1.00  0.00     0.123 C 
BRANCH  17  18
ATOM     18  C   UNL     1      12.000  -7.794   0.000  1.00  0.00     0.012 C 
BRANCH  18  19
ATOM     19  C   UNL     1      11.250  -6.495   0.000  1.00  0.00     0.001 C 
BRANCH  19  20
ATOM     20  C   UNL     1      10.500  -5.196   0.000  1.00  0.00     0.000 C 
BRANCH  20  21
ATOM     21  C   UNL     1      11.061  -4.504   1.398  1.00  0.00     0.000 C 
BRANCH  21  22
ATOM     22  C   UNL     1      10.197  -4.631   2.728  1.00  0.00     0.004 C 
BRANCH  22  23
ATOM     23  C   UNL     1       8.749  -4.031   3.018  1.00  0.00     0.027 C 
BRANCH  23  24
ATOM     24  C   UNL     1       8.538  -2.519   2.938  1.00  0.00    -0.031 C 
ATOM     25  C   UNL     1       7.444  -1.803   2.501  1.00  0.00    -0.027 C 
BRANCH  25  26
ATOM     26  C   UNL     1       6.074  -2.243   1.933  1.00  0.00     0.054 C 
BRANCH  26  27
ATOM     27  C   UNL     1       4.892  -1.689   2.755  1.00  0.00    -0.027 C 
ATOM     28  C   UNL     1       3.540  -1.660   2.473  1.00  0.00    -0.027 C 
BRANCH  28  29
ATOM     29  C   UNL     1       2.778  -2.112   1.218  1.00  0.00     0.054 C 
BRANCH  29  30
ATOM     30  C   UNL     1       2.000  -0.966   0.591  1.00  0.00    -0.027 C 
ATOM     31  C   UNL     1       0.701  -0.738   0.180  1.00  0.00    -0.031 C 
BRANCH  31  32
ATOM     32  C   UNL     1      -0.750  -1.299   0.000  1.00  0.00     0.023 C 
ATOM     33  C   UNL     1      -1.500  -2.598  -0.000  1.00  0.00     0.008 C 
ENDBRANCH  31  32
ENDBRANCH  29  30
ENDBRANCH  28  29
ENDBRANCH  26  27
ENDBRANCH  25  26
ENDBRANCH  23  24
ENDBRANCH  22  23
ENDBRANCH  21  22
ENDBRANCH  20  21
ENDBRANCH  19  20
ENDBRANCH  18  19
ENDBRANCH  17  18
ENDBRANCH  15  17
ENDBRANCH  14  15
ENDBRANCH  13  14
ENDBRANCH  12  13
BRANCH  12  34
ATOM     34  O   UNL     1      15.549 -13.539   0.000  1.00  0.00    -0.456 OA
BRANCH  34  35
ATOM     35  C   UNL     1      16.924 -13.708   0.064  1.00  0.00     0.306 C 
ATOM     36  O   UNL     1      17.386 -14.835   0.136  1.00  0.00    -0.252 OA
BRANCH  35  37
ATOM     37  C   UNL     1      17.900 -12.443   0.004  1.00  0.00     0.123 C 
BRANCH  37  38
ATOM     38  C   UNL     1      19.446 -12.789   0.000  1.00  0.00     0.020 C 
BRANCH  38  39
ATOM     39  C   UNL     1      20.745 -12.039   0.000  1.00  0.00    -0.017 C 
BRANCH  39  40
ATOM     40  C   UNL     1      22.044 -11.289   0.000  1.00  0.00     0.009 C 
BRANCH  40  41
ATOM     41  C   UNL     1      23.343 -10.539   0.000  1.00  0.00     0.009 C 
BRANCH  41  42
ATOM     42  C   UNL     1      24.642  -9.789   0.000  1.00  0.00    -0.013 C 
BRANCH  42  43
ATOM     43  C   UNL     1      25.941  -9.039   0.000  1.00  0.00     0.035 C 
BRANCH  43  44
ATOM     44  C   UNL     1      27.354  -8.416  -0.000  1.00  0.00    -0.030 C 
ATOM     45  C   UNL     1      28.539  -9.039   0.000  1.00  0.00    -0.018 C 
BRANCH  45  46
ATOM     46  C   UNL     1      28.539 -10.539   0.000  1.00  0.00     0.034 C 
BRANCH  46  47
ATOM     47  C   UNL     1      28.539 -12.039   0.000  1.00  0.00    -0.018 C 
ATOM     48  C   UNL     1      29.838 -12.789   0.000  1.00  0.00    -0.026 C 
BRANCH  48  49
ATOM     49  C   UNL     1      31.137 -12.039   0.000  1.00  0.00     0.054 C 
BRANCH  49  50
ATOM     50  C   UNL     1      32.437 -11.289   0.000  1.00  0.00    -0.027 C 
ATOM     51  C   UNL     1      33.736 -12.039   0.000  1.00  0.00    -0.023 C 
BRANCH  51  52
ATOM     52  C   UNL     1      33.736 -13.539   0.000  1.00  0.00     0.005 C 
ATOM     53  C   UNL     1      33.736 -15.039   0.000  1.00  0.00     0.018 C 
ENDBRANCH  51  52
ENDBRANCH  49  50
ENDBRANCH  48  49
ENDBRANCH  46  47
ENDBRANCH  45  46
ENDBRANCH  43  44
ENDBRANCH  42  43
ENDBRANCH  41  42
ENDBRANCH  40  41
ENDBRANCH  39  40
ENDBRANCH  38  39
ENDBRANCH  37  38
ENDBRANCH  35  37
ENDBRANCH  34  35
ENDBRANCH  12  34
ENDBRANCH  11  12
ENDBRANCH  10  11
ENDBRANCH   8  10
BRANCH   8  54
ATOM     54  O   UNL     1       9.727 -15.219  -2.570  1.00  0.00    -0.302 OA
ATOM     55  H   UNL     1       9.749 -14.295  -2.927  1.00  0.00     0.223 HD
ENDBRANCH   8  54
ENDBRANCH   7   8
ENDBRANCH   6   7
ENDBRANCH   5   6
BRANCH   5  56
ATOM     56  O   UNL     1       9.054  -9.789   0.000  1.00  0.00    -0.380 OA
ATOM     57  H   UNL     1       8.982  -9.506  -0.952  1.00  0.00     0.211 HD
ENDBRANCH   5  56
ENDBRANCH   4   5
ENDBRANCH   3   4
ENDBRANCH   1   3
BRANCH   1  58
ATOM     58  O   UNL     1       4.460 -10.498   2.241  1.00  0.00    -0.302 OA
ATOM     59  H   UNL     1       4.296 -11.450   2.026  1.00  0.00     0.223 HD
ENDBRANCH   1  58
BRANCH   1  60
ATOM     60  O   UNL     1       4.554  -8.691   0.000  1.00  0.00    -0.283 OA
BRANCH  60  61
ATOM     61  C   UNL     1       5.304  -7.392   0.000  1.00  0.00     0.222 C 
BRANCH  61  62
ATOM     62  C   UNL     1       6.054  -6.093   0.000  1.00  0.00     0.240 C 
BRANCH  62  63
ATOM     63  C   UNL     1       4.755  -5.343   0.000  1.00  0.00     0.280 C 
BRANCH  63  64
ATOM     64  O   UNL     1       3.456  -4.593   0.000  1.00  0.00    -0.461 OA
BRANCH  64  65
ATOM     65  C   UNL     1       2.157  -5.343   0.000  1.00  0.00     0.315 C 
ATOM     66  O   UNL     1       1.099  -4.738  -0.035  1.00  0.00    -0.252 OA
BRANCH  65  67
ATOM     67  C   UNL     1       2.157  -6.843   0.000  1.00  0.00     0.111 C 
BRANCH  67  68
ATOM     68  C   UNL     1       2.157  -8.343   0.000  1.00  0.00     0.012 C 
BRANCH  68  69
ATOM     69  C   UNL     1       2.157  -9.843   0.000  1.00  0.00     0.001 C 
BRANCH  69  70
ATOM     70  C   UNL     1       2.157 -11.343   0.000  1.00  0.00     0.000 C 
BRANCH  70  71
ATOM     71  C   UNL     1       2.157 -12.843   0.000  1.00  0.00     0.000 C 
BRANCH  71  72
ATOM     72  C   UNL     1       2.157 -14.343   0.000  1.00  0.00     0.000 C 
BRANCH  72  73
ATOM     73  C   UNL     1       2.157 -15.843   0.000  1.00  0.00     0.000 C 
BRANCH  73  74
ATOM     74  C   UNL     1       2.157 -17.343   0.000  1.00  0.00     0.000 C 
BRANCH  74  75
ATOM     75  C   UNL     1       2.157 -18.843   0.000  1.00  0.00     0.000 C 
BRANCH  75  76
ATOM     76  C   UNL     1       2.157 -20.343   0.000  1.00  0.00     0.000 C 
BRANCH  76  77
ATOM     77  C   UNL     1       2.157 -21.843   0.000  1.00  0.00     0.000 C 
BRANCH  77  78
ATOM     78  C   UNL     1       2.157 -23.343   0.000  1.00  0.00     0.000 C 
BRANCH  78  79
ATOM     79  C   UNL     1       2.157 -24.843   0.000  1.00  0.00    -0.000 C 
BRANCH  79  80
ATOM     80  C   UNL     1       2.157 -26.343   0.000  1.00  0.00    -0.000 C 
BRANCH  80  81
ATOM     81  C   UNL     1       2.157 -27.843   0.000  1.00  0.00    -0.000 C 
BRANCH  81  82
ATOM     82  C   UNL     1       2.157 -29.343   0.000  1.00  0.00    -0.000 C 
BRANCH  82  83
ATOM     83  C   UNL     1       2.157 -30.843   0.000  1.00  0.00    -0.000 C 
BRANCH  83  84
ATOM     84  C   UNL     1       2.157 -32.343   0.000  1.00  0.00    -0.000 C 
BRANCH  84  85
ATOM     85  C   UNL     1       2.157 -33.843   0.000  1.00  0.00    -0.001 C 
BRANCH  85  86
ATOM     86  C   UNL     1       2.157 -35.343   0.000  1.00  0.00    -0.012 C 
ATOM     87  C   UNL     1       2.157 -36.843   0.000  1.00  0.00     0.013 C 
ENDBRANCH  85  86
ENDBRANCH  84  85
ENDBRANCH  83  84
ENDBRANCH  82  83
ENDBRANCH  81  82
ENDBRANCH  80  81
ENDBRANCH  79  80
ENDBRANCH  78  79
ENDBRANCH  77  78
ENDBRANCH  76  77
ENDBRANCH  75  76
ENDBRANCH  74  75
ENDBRANCH  73  74
ENDBRANCH  72  73
ENDBRANCH  71  72
ENDBRANCH  70  71
ENDBRANCH  69  70
ENDBRANCH  68  69
ENDBRANCH  67  68
ENDBRANCH  65  67
ENDBRANCH  64  65
ENDBRANCH  63  64
ENDBRANCH  62  63
BRANCH  62  88
ATOM     88  O   UNL     1       7.096  -5.205   0.575  1.00  0.00    -0.456 OA
BRANCH  88  89
ATOM     89  C   UNL     1       8.304  -4.794  -0.000  1.00  0.00     0.314 C 
ATOM     90  O   UNL     1       8.367  -5.293  -1.130  1.00  0.00    -0.252 OA
BRANCH  89  91
ATOM     91  C   UNL     1       9.054  -3.495   0.000  1.00  0.00     0.102 C 
BRANCH  91  92
ATOM     92  C   UNL     1       9.804  -2.196  -0.000  1.00  0.00     0.021 C 
BRANCH  92  93
ATOM     93  C   UNL     1      10.353  -0.680   0.480  1.00  0.00     0.001 C 
BRANCH  93  94
ATOM     94  C   UNL     1      11.698   0.075  -0.241  1.00  0.00     0.000 C 
BRANCH  94  95
ATOM     95  C   UNL     1      12.054   1.701   0.000  1.00  0.00     0.000 C 
BRANCH  95  96
ATOM     96  C   UNL     1      12.804   3.000  -0.000  1.00  0.00     0.000 C 
BRANCH  96  97
ATOM     97  C   UNL     1      13.554   4.299   0.000  1.00  0.00     0.000 C 
BRANCH  97  98
ATOM     98  C   UNL     1      14.209   5.758   0.520  1.00  0.00     0.000 C 
BRANCH  98  99
ATOM     99  C   UNL     1      15.197   6.709  -0.497  1.00  0.00     0.000 C 
BRANCH  99 100
ATOM    100  C   UNL     1      15.804   8.196   0.000  1.00  0.00     0.000 C 
BRANCH 100 101
ATOM    101  C   UNL     1      16.554   9.495   0.000  1.00  0.00     0.000 C 
BRANCH 101 102
ATOM    102  C   UNL     1      17.304  10.794   0.000  1.00  0.00     0.000 C 
BRANCH 102 103
ATOM    103  C   UNL     1      18.054  12.093   0.000  1.00  0.00     0.000 C 
BRANCH 103 104
ATOM    104  C   UNL     1      18.804  13.392   0.000  1.00  0.00     0.000 C 
BRANCH 104 105
ATOM    105  C   UNL     1      19.554  14.691   0.000  1.00  0.00     0.000 C 
BRANCH 105 106
ATOM    106  C   UNL     1      19.971  16.282  -0.344  1.00  0.00     0.000 C 
BRANCH 106 107
ATOM    107  C   UNL     1      21.366  16.997   0.318  1.00  0.00     0.001 C 
BRANCH 107 108
ATOM    108  C   UNL     1      21.804  18.588   0.000  1.00  0.00     0.008 C 
BRANCH 108 109
ATOM    109  C   UNL     1      22.554  19.887   0.000  1.00  0.00    -0.018 C 
BRANCH 109 110
ATOM    110  C   UNL     1      23.304  21.186   0.000  1.00  0.00     0.005 C 
ATOM    111  C   UNL     1      24.054  22.486   0.000  1.00  0.00     0.004 C 
ENDBRANCH 109 110
ENDBRANCH 108 109
ENDBRANCH 107 108
ENDBRANCH 106 107
ENDBRANCH 105 106
ENDBRANCH 104 105
ENDBRANCH 103 104
ENDBRANCH 102 103
ENDBRANCH 101 102
ENDBRANCH 100 101
ENDBRANCH  99 100
ENDBRANCH  98  99
ENDBRANCH  97  98
ENDBRANCH  96  97
ENDBRANCH  95  96
ENDBRANCH  94  95
ENDBRANCH  93  94
ENDBRANCH  92  93
ENDBRANCH  91  92
ENDBRANCH  89  91
ENDBRANCH  88  89
ENDBRANCH  62  88
ENDBRANCH  61  62
ENDBRANCH  60  61
ENDBRANCH   1  60
TORSDOF 91
