REMARK SMILES COc1c(O)cc2c(c1OC)-c1ccc(OC)c(=O)cc1[C@@H](NC(=O)CO)CC2
REMARK SMILES IDX 22 1 21 2 12 3 13 4 14 5 20 6 15 7 18 8 19 9 8 10 3 11 4 12
REMARK SMILES IDX 9 13 6 14 7 15 2 16 1 17 5 18 10 20 11 21 29 22 16 24 17 25
REMARK SMILES IDX 28 26 23 28 24 29 25 30 26 32 27 33
REMARK H PARENT 5 19 23 31 27 34
REMARK Flexibility Score:   35.900
ROOT
ATOM      1  C   UNL     1       2.018  -0.345   0.671  1.00  0.00     0.113 C 
ENDROOT
BRANCH   1   2
ATOM      2  C   UNL     1       1.083   0.676  -0.017  1.00  0.00    -0.014 A 
ATOM      3  C   UNL     1      -0.338   0.524   0.120  1.00  0.00    -0.009 A 
ATOM      4  C   UNL     1      -1.262   1.503  -0.326  1.00  0.00     0.013 A 
ATOM      5  C   UNL     1      -1.143   2.691  -1.029  1.00  0.00     0.051 A 
ATOM      6  C   UNL     1       1.730   1.733  -0.724  1.00  0.00     0.062 A 
ATOM      7  C   UNL     1      -0.021   3.319  -1.554  1.00  0.00     0.166 A 
ATOM      8  C   UNL     1       1.283   2.866  -1.410  1.00  0.00     0.220 A 
ATOM      9  O   UNL     1       2.152   3.552  -1.931  1.00  0.00    -0.286 OA
BRANCH   3  10
ATOM     10  C   UNL     1      -1.025  -0.712   0.762  1.00  0.00     0.031 A 
ATOM     11  C   UNL     1      -3.030  -2.227   0.796  1.00  0.00     0.203 A 
ATOM     12  C   UNL     1      -2.500  -2.905   1.889  1.00  0.00     0.161 A 
ATOM     13  C   UNL     1      -2.289  -1.173   0.205  1.00  0.00     0.172 A 
ATOM     14  C   UNL     1      -1.276  -2.535   2.402  1.00  0.00     0.054 A 
ATOM     15  C   UNL     1      -0.526  -1.466   1.880  1.00  0.00    -0.032 A 
BRANCH  11  16
ATOM     16  O   UNL     1      -4.255  -2.640   0.359  1.00  0.00    -0.490 OA
ATOM     17  C   UNL     1      -5.205  -1.912  -0.330  1.00  0.00     0.278 C 
ENDBRANCH  11  16
BRANCH  12  18
ATOM     18  O   UNL     1      -3.159  -3.934   2.469  1.00  0.00    -0.504 OA
ATOM     19  H   UNL     1      -4.017  -4.257   2.160  1.00  0.00     0.293 HD
ENDBRANCH  12  18
BRANCH  13  20
ATOM     20  O   UNL     1      -2.786  -0.655  -0.943  1.00  0.00    -0.492 OA
ATOM     21  C   UNL     1      -2.197  -0.868  -2.176  1.00  0.00     0.278 C 
ENDBRANCH  13  20
BRANCH  15  22
ATOM     22  C   UNL     1       0.767  -1.294   2.632  1.00  0.00     0.039 CG0
ATOM     23  G   UNL     1       1.749  -0.255   2.177  1.00  0.00     0.000 G0
ENDBRANCH  15  22
ENDBRANCH   3  10
BRANCH   7  24
ATOM     24  O   UNL     1      -0.162   4.478  -2.267  1.00  0.00    -0.493 OA
ATOM     25  C   UNL     1      -1.332   5.130  -2.601  1.00  0.00     0.278 C 
ENDBRANCH   7  24
ENDBRANCH   1   2
BRANCH   1  26
ATOM     26  C   UNL     1       1.749  -0.255   2.177  1.00  0.00     0.034 CG0
ATOM     27  G   UNL     1       0.767  -1.294   2.632  1.00  0.00     0.000 G0
ENDBRANCH   1  26
BRANCH   1  28
ATOM     28  N   UNL     1       3.445  -0.065   0.496  1.00  0.00    -0.347 N 
ATOM     29  C   UNL     1       4.323  -0.907  -0.107  1.00  0.00     0.246 C 
ATOM     30  O   UNL     1       3.946  -1.977  -0.575  1.00  0.00    -0.272 OA
ATOM     31  H   UNL     1       3.818   0.818   0.889  1.00  0.00     0.164 HD
BRANCH  29  32
ATOM     32  C   UNL     1       5.775  -0.520  -0.199  1.00  0.00     0.255 C 
BRANCH  32  33
ATOM     33  O   UNL     1       6.528  -1.499  -0.866  1.00  0.00    -0.387 OA
ATOM     34  H   UNL     1       6.748  -2.196  -0.194  1.00  0.00     0.211 HD
ENDBRANCH  32  33
ENDBRANCH  29  32
ENDBRANCH   1  28
TORSDOF 7
