REMARK SMILES CN(C(=O)c1ccccc1C=Cc1ccccc1C(=O)N(C)c1ccccc1)c1ccccc1
REMARK SMILES IDX 11 1 12 2 10 3 5 4 6 5 7 6 9 7 8 8 3 9 4 10 2 11 1 12 29 13
REMARK SMILES IDX 30 14 34 15 31 16 33 17 32 18 13 19 14 20 18 21 15 22 17 23
REMARK SMILES IDX 16 24 19 25 20 26 21 27 22 28 23 29 24 30 28 31 25 32 27 33
REMARK SMILES IDX 26 34
REMARK H PARENT
ROOT
ATOM      1  C   UNL     1       0.574   0.656   0.869  1.00  0.00     0.009 C 
ATOM      2  C   UNL     1      -0.718   0.571   1.272  1.00  0.00     0.009 C 
ENDROOT
BRANCH   1   3
ATOM      3  C   UNL     1       1.470   1.847   0.654  1.00  0.00    -0.013 A 
ATOM      4  C   UNL     1       2.887   1.677   0.553  1.00  0.00     0.047 A 
ATOM      5  C   UNL     1       3.717   2.807   0.445  1.00  0.00     0.014 A 
ATOM      6  C   UNL     1       3.174   4.086   0.362  1.00  0.00     0.001 A 
ATOM      7  C   UNL     1       0.953   3.155   0.524  1.00  0.00     0.009 A 
ATOM      8  C   UNL     1       1.795   4.257   0.383  1.00  0.00     0.001 A 
BRANCH   4   9
ATOM      9  C   UNL     1       3.566   0.345   0.593  1.00  0.00     0.258 C 
ATOM     10  O   UNL     1       4.383   0.203   1.488  1.00  0.00    -0.269 OA
BRANCH   9  11
ATOM     11  N   UNL     1       3.304  -0.681  -0.311  1.00  0.00    -0.311 N 
ATOM     12  C   UNL     1       2.422  -0.434  -1.459  1.00  0.00     0.153 C 
BRANCH  11  13
ATOM     13  C   UNL     1       3.919  -2.002  -0.222  1.00  0.00     0.044 A 
ATOM     14  C   UNL     1       5.138  -2.253   0.468  1.00  0.00     0.026 A 
ATOM     15  C   UNL     1       3.312  -3.117  -0.862  1.00  0.00     0.026 A 
ATOM     16  C   UNL     1       5.692  -3.536   0.521  1.00  0.00     0.002 A 
ATOM     17  C   UNL     1       3.871  -4.395  -0.794  1.00  0.00     0.002 A 
ATOM     18  C   UNL     1       5.059  -4.605  -0.103  1.00  0.00     0.000 A 
ENDBRANCH  11  13
ENDBRANCH   9  11
ENDBRANCH   4   9
ENDBRANCH   1   3
BRANCH   2  19
ATOM     19  C   UNL     1      -1.651   1.611   1.791  1.00  0.00    -0.013 A 
ATOM     20  C   UNL     1      -1.167   2.638   2.628  1.00  0.00     0.009 A 
ATOM     21  C   UNL     1      -3.059   1.499   1.580  1.00  0.00     0.047 A 
ATOM     22  C   UNL     1      -2.038   3.547   3.225  1.00  0.00     0.001 A 
ATOM     23  C   UNL     1      -3.917   2.414   2.223  1.00  0.00     0.014 A 
ATOM     24  C   UNL     1      -3.409   3.435   3.025  1.00  0.00     0.001 A 
BRANCH  21  25
ATOM     25  C   UNL     1      -3.704   0.424   0.745  1.00  0.00     0.258 C 
ATOM     26  O   UNL     1      -4.665  -0.113   1.267  1.00  0.00    -0.269 OA
BRANCH  25  27
ATOM     27  N   UNL     1      -3.268   0.029  -0.518  1.00  0.00    -0.311 N 
ATOM     28  C   UNL     1      -2.252   0.824  -1.216  1.00  0.00     0.153 C 
BRANCH  27  29
ATOM     29  C   UNL     1      -3.827  -1.107  -1.258  1.00  0.00     0.044 A 
ATOM     30  C   UNL     1      -3.133  -1.635  -2.384  1.00  0.00     0.026 A 
ATOM     31  C   UNL     1      -5.063  -1.742  -0.931  1.00  0.00     0.026 A 
ATOM     32  C   UNL     1      -3.627  -2.717  -3.115  1.00  0.00     0.002 A 
ATOM     33  C   UNL     1      -5.548  -2.822  -1.676  1.00  0.00     0.002 A 
ATOM     34  C   UNL     1      -4.832  -3.311  -2.761  1.00  0.00     0.000 A 
ENDBRANCH  27  29
ENDBRANCH  25  27
ENDBRANCH  21  25
ENDBRANCH   2  19
TORSDOF 8
