REMARK SMILES CC1=C(C(=O)NCCCN(CC(C)C)CC(C)C)C2(CCN(S(C)(=O)=O)CC2)OC1=O
REMARK SMILES IDX 8 1 7 2 6 3 4 4 5 5 3 7 2 8 30 9 19 10 29 11 31 12 20 13
REMARK SMILES IDX 28 14 21 15 27 16 22 17 1 18 23 19 25 20 26 21 24 22 9 23
REMARK SMILES IDX 10 24 11 25 12 26 13 27 14 28 15 29 16 30 17 31 18 32
REMARK H PARENT 6 6
ROOT
ATOM      1  C   UNL     1      -1.810   1.347  -0.867  1.00  0.00     0.037 C 
ENDROOT
BRANCH   1   2
ATOM      2  C   UNL     1      -0.321   1.659  -0.676  1.00  0.00     0.117 C 
BRANCH   2   3
ATOM      3  N   UNL     1       0.443   0.467  -0.348  1.00  0.00    -0.352 N 
ATOM      4  C   UNL     1       1.785   0.523  -0.127  1.00  0.00     0.251 C 
ATOM      5  O   UNL     1       2.352   1.601  -0.249  1.00  0.00    -0.270 OA
ATOM      6  H   UNL     1      -0.048  -0.426  -0.339  1.00  0.00     0.163 HD
BRANCH   4   7
ATOM      7  C   UNL     1       2.634  -0.676   0.212  1.00  0.00     0.071 C 
ATOM      8  C   UNL     1       2.290  -1.919   0.627  1.00  0.00     0.047 C 
ATOM      9  C   UNL     1       3.533  -2.648   0.768  1.00  0.00     0.335 C 
ATOM     10  C   UNL     1       4.167  -0.609   0.121  1.00  0.00     0.146 C 
ATOM     11  O   UNL     1       4.587  -1.878   0.479  1.00  0.00    -0.450 OA
ATOM     12  O   UNL     1       3.633  -3.810   1.126  1.00  0.00    -0.247 OA
ATOM     13  C   UNL     1       4.644  -0.334  -1.323  1.00  0.00     0.071 C 
ATOM     14  C   UNL     1       4.772   0.420   1.127  1.00  0.00     0.071 C 
ATOM     15  C   UNL     1       6.184  -0.289  -1.335  1.00  0.00     0.106 C 
ATOM     16  C   UNL     1       5.749   1.403   0.455  1.00  0.00     0.106 C 
ATOM     17  N   UNL     1       6.743   0.725  -0.404  1.00  0.00    -0.202 NA
ATOM     18  C   UNL     1       0.971  -2.568   0.965  1.00  0.00     0.053 C 
BRANCH  17  19
ATOM     19  S   UNL     1       8.144   0.078   0.495  1.00  0.00     0.211 S 
ATOM     20  O   UNL     1       7.591  -0.993   1.448  1.00  0.00    -0.213 OA
ATOM     21  O   UNL     1       8.565   1.194   1.464  1.00  0.00    -0.213 OA
ATOM     22  C   UNL     1       9.546  -0.511  -0.493  1.00  0.00     0.176 C 
ENDBRANCH  17  19
ENDBRANCH   4   7
ENDBRANCH   2   3
ENDBRANCH   1   2
BRANCH   1  23
ATOM     23  C   UNL     1      -2.499   0.905   0.454  1.00  0.00     0.086 C 
BRANCH  23  24
ATOM     24  N   UNL     1      -3.938   0.555   0.285  1.00  0.00    -0.303 NA
BRANCH  24  25
ATOM     25  C   UNL     1      -4.058  -0.659  -0.577  1.00  0.00     0.087 C 
BRANCH  25  26
ATOM     26  C   UNL     1      -5.256  -1.577  -0.239  1.00  0.00    -0.003 C 
ATOM     27  C   UNL     1      -5.214  -2.061   1.217  1.00  0.00     0.009 C 
ATOM     28  C   UNL     1      -5.244  -2.792  -1.179  1.00  0.00     0.009 C 
ENDBRANCH  25  26
ENDBRANCH  24  25
BRANCH  24  29
ATOM     29  C   UNL     1      -4.690   1.742  -0.217  1.00  0.00     0.087 C 
BRANCH  29  30
ATOM     30  C   UNL     1      -6.177   1.800   0.200  1.00  0.00    -0.003 C 
ATOM     31  C   UNL     1      -6.340   1.798   1.726  1.00  0.00     0.009 C 
ATOM     32  C   UNL     1      -6.819   3.070  -0.378  1.00  0.00     0.009 C 
ENDBRANCH  29  30
ENDBRANCH  24  29
ENDBRANCH  23  24
ENDBRANCH   1  23
TORSDOF 10
