REMARK SMILES CSC(Cl)=NS(=O)(=O)c1ccc(C)cc1
REMARK SMILES IDX 6 1 7 2 8 3 5 4 3 5 4 6 2 7 1 8 9 9 10 10 15 11 11 12 14 13
REMARK SMILES IDX 12 14 13 15
REMARK H PARENT
ROOT
ATOM      1  S   UNL     1       0.993  -0.969  -0.346  1.00  0.00     0.284 S 
ATOM      2  O   UNL     1       1.332  -1.122  -1.837  1.00  0.00    -0.199 OA
ATOM      3  O   UNL     1       1.348  -2.353   0.218  1.00  0.00    -0.199 OA
ENDROOT
BRANCH   1   4
ATOM      4  N   UNL     1       2.201   0.137   0.304  1.00  0.00    -0.140 NA
ATOM      5  C   UNL     1       3.470  -0.094   0.336  1.00  0.00     0.175 C 
ATOM      6  Cl  UNL     1       4.181  -1.593  -0.272  1.00  0.00    -0.054 Cl
BRANCH   5   7
ATOM      7  S   UNL     1       4.549   1.134   1.081  1.00  0.00    -0.097 SA
ATOM      8  C   UNL     1       5.589   1.363  -0.396  1.00  0.00     0.093 C 
ENDBRANCH   5   7
ENDBRANCH   1   4
BRANCH   1   9
ATOM      9  C   UNL     1      -0.729  -0.561  -0.049  1.00  0.00     0.089 A 
ATOM     10  C   UNL     1      -1.494   0.068  -1.038  1.00  0.00     0.022 A 
ATOM     11  C   UNL     1      -1.314  -0.882   1.182  1.00  0.00     0.022 A 
ATOM     12  C   UNL     1      -2.839   0.373  -0.799  1.00  0.00     0.005 A 
ATOM     13  C   UNL     1      -2.657  -0.578   1.423  1.00  0.00     0.005 A 
ATOM     14  C   UNL     1      -3.429   0.050   0.435  1.00  0.00    -0.051 A 
ATOM     15  C   UNL     1      -4.870   0.366   0.707  1.00  0.00     0.044 C 
ENDBRANCH   1   9
TORSDOF 3
