REMARK SMILES c1cc2ccc3ccc4ccc5ccc6ccc1c1c2c3c4c5c61
REMARK SMILES IDX 8 1 7 2 6 3 5 4 4 5 3 6 2 7 1 8 18 9 17 10 16 11 15 12 14 13
REMARK SMILES IDX 13 14 12 15 11 16 10 17 9 18 22 19 21 20 20 21 19 22 24 23
REMARK SMILES IDX 23 24
REMARK H PARENT
ROOT
ATOM      1  C   UNL     1      -3.646  -0.735   0.046  1.00  0.00     0.009 A 
ATOM      2  C   UNL     1      -3.119  -2.028  -0.057  1.00  0.00     0.009 A 
ATOM      3  C   UNL     1      -1.731  -2.228  -0.108  1.00  0.00    -0.017 A 
ATOM      4  C   UNL     1      -1.192  -3.520  -0.211  1.00  0.00     0.009 A 
ATOM      5  C   UNL     1       0.194  -3.709  -0.261  1.00  0.00     0.009 A 
ATOM      6  C   UNL     1       1.064  -2.609  -0.208  1.00  0.00    -0.017 A 
ATOM      7  C   UNL     1       2.456  -2.787  -0.257  1.00  0.00     0.009 A 
ATOM      8  C   UNL     1       3.315  -1.683  -0.204  1.00  0.00     0.009 A 
ATOM      9  C   UNL     1       2.796  -0.383  -0.101  1.00  0.00    -0.017 A 
ATOM     10  C   UNL     1       3.649   0.731  -0.046  1.00  0.00     0.009 A 
ATOM     11  C   UNL     1       3.122   2.024   0.057  1.00  0.00     0.009 A 
ATOM     12  C   UNL     1       1.734   2.224   0.107  1.00  0.00    -0.017 A 
ATOM     13  C   UNL     1       1.195   3.516   0.211  1.00  0.00     0.009 A 
ATOM     14  C   UNL     1      -0.191   3.705   0.261  1.00  0.00     0.009 A 
ATOM     15  C   UNL     1      -1.061   2.604   0.208  1.00  0.00    -0.017 A 
ATOM     16  C   UNL     1      -2.453   2.783   0.257  1.00  0.00     0.009 A 
ATOM     17  C   UNL     1      -3.312   1.679   0.204  1.00  0.00     0.009 A 
ATOM     18  C   UNL     1      -2.793   0.379   0.100  1.00  0.00    -0.017 A 
ATOM     19  C   UNL     1      -1.395   0.188   0.050  1.00  0.00    -0.001 A 
ATOM     20  C   UNL     1      -0.864  -1.115  -0.054  1.00  0.00    -0.001 A 
ATOM     21  C   UNL     1       0.533  -1.305  -0.104  1.00  0.00    -0.001 A 
ATOM     22  C   UNL     1       1.399  -0.192  -0.050  1.00  0.00    -0.001 A 
ATOM     23  C   UNL     1       0.867   1.111   0.053  1.00  0.00    -0.001 A 
ATOM     24  C   UNL     1      -0.530   1.301   0.104  1.00  0.00    -0.001 A 
ENDROOT
TORSDOF 0
