REMARK SMILES COc1cc([C@H]2[C@H](C(C)=O)N3c4cc(C)ccc4C=C[C@@H]3C23C(=O)c2ccccc2C3=O)cc(OC)c1OC
REMARK SMILES IDX 6 1 7 2 11 3 12 4 13 5 14 6 15 7 16 8 17 9 18 10 19 11 20 12
REMARK SMILES IDX 21 13 22 14 23 15 24 16 25 17 26 18 27 19 28 20 29 21 30 22
REMARK SMILES IDX 31 23 32 24 5 25 3 26 4 27 37 28 34 29 33 30 2 31 1 32 38 33
REMARK SMILES IDX 39 34 35 35 36 36 8 37 10 38 9 39
REMARK H PARENT
ROOT
ATOM      1  C   UNL     1      -0.203  -0.013  -0.350  1.00  0.00     0.074 C 
ATOM      2  C   UNL     1      -1.179  -0.563   0.690  1.00  0.00     0.158 C 
ATOM      3  N   UNL     1      -2.400   0.214   0.457  1.00  0.00    -0.352 N 
ATOM      4  C   UNL     1      -3.715  -0.347   0.297  1.00  0.00     0.045 A 
ATOM      5  C   UNL     1      -4.146  -1.472   1.032  1.00  0.00     0.030 A 
ATOM      6  C   UNL     1      -5.440  -1.992   0.856  1.00  0.00    -0.049 A 
ATOM      7  C   UNL     1      -5.909  -3.181   1.641  1.00  0.00     0.044 C 
ATOM      8  C   UNL     1      -6.310  -1.387  -0.058  1.00  0.00     0.004 A 
ATOM      9  C   UNL     1      -5.898  -0.273  -0.787  1.00  0.00     0.010 A 
ATOM     10  C   UNL     1      -4.611   0.251  -0.610  1.00  0.00    -0.002 A 
ATOM     11  C   UNL     1      -4.195   1.431  -1.383  1.00  0.00     0.008 C 
ATOM     12  C   UNL     1      -3.024   2.028  -1.150  1.00  0.00    -0.000 C 
ATOM     13  C   UNL     1      -2.069   1.538  -0.084  1.00  0.00     0.129 C 
ATOM     14  C   UNL     1      -0.561   1.479  -0.476  1.00  0.00     0.130 C 
ATOM     15  C   UNL     1      -0.200   1.992  -1.865  1.00  0.00     0.180 C 
ATOM     16  O   UNL     1      -0.640   1.540  -2.912  1.00  0.00    -0.293 OA
ATOM     17  C   UNL     1       0.775   3.064  -1.789  1.00  0.00     0.030 A 
ATOM     18  C   UNL     1       1.392   3.762  -2.827  1.00  0.00     0.012 A 
ATOM     19  C   UNL     1       2.325   4.757  -2.497  1.00  0.00     0.001 A 
ATOM     20  C   UNL     1       2.616   5.034  -1.145  1.00  0.00     0.001 A 
ATOM     21  C   UNL     1       1.975   4.316  -0.117  1.00  0.00     0.012 A 
ATOM     22  C   UNL     1       1.056   3.329  -0.473  1.00  0.00     0.030 A 
ATOM     23  C   UNL     1       0.271   2.432   0.377  1.00  0.00     0.180 C 
ATOM     24  O   UNL     1       0.287   2.457   1.599  1.00  0.00    -0.293 OA
ENDROOT
BRANCH   1  25
ATOM     25  C   UNL     1       1.269  -0.341  -0.097  1.00  0.00    -0.033 A 
ATOM     26  C   UNL     1       3.215  -0.396   1.394  1.00  0.00     0.164 A 
ATOM     27  C   UNL     1       1.861  -0.109   1.160  1.00  0.00     0.054 A 
ATOM     28  C   UNL     1       3.992  -0.918   0.353  1.00  0.00     0.203 A 
ATOM     29  C   UNL     1       3.426  -1.160  -0.910  1.00  0.00     0.164 A 
ATOM     30  C   UNL     1       2.059  -0.878  -1.124  1.00  0.00     0.054 A 
BRANCH  26  31
ATOM     31  O   UNL     1       3.804  -0.187   2.603  1.00  0.00    -0.493 OA
ATOM     32  C   UNL     1       3.177   0.286   3.739  1.00  0.00     0.278 C 
ENDBRANCH  26  31
BRANCH  28  33
ATOM     33  O   UNL     1       5.300  -1.179   0.571  1.00  0.00    -0.490 OA
ATOM     34  C   UNL     1       5.743  -2.424   0.957  1.00  0.00     0.278 C 
ENDBRANCH  28  33
BRANCH  29  35
ATOM     35  O   UNL     1       4.228  -1.652  -1.890  1.00  0.00    -0.493 OA
ATOM     36  C   UNL     1       3.853  -1.895  -3.195  1.00  0.00     0.278 C 
ENDBRANCH  29  35
ENDBRANCH   1  25
BRANCH   2  37
ATOM     37  C   UNL     1      -1.272  -2.071   0.510  1.00  0.00     0.152 C 
ATOM     38  O   UNL     1      -1.719  -2.537  -0.529  1.00  0.00    -0.298 OA
ATOM     39  C   UNL     1      -0.743  -3.011   1.551  1.00  0.00     0.090 C 
ENDBRANCH   2  37
TORSDOF 5
