REMARK SMILES CC=C1C[C@@H](C)[C@@](C)(O)C(=O)OC[C@@H]2[C@@H]3[C@@H](CC[N@+]3([O-])C[C@H]2O)OC1=O
REMARK SMILES IDX 14 1 15 2 16 3 17 4 18 5 19 6 20 7 21 8 22 9 24 10 25 11
REMARK SMILES IDX 26 12 3 13 2 14 1 15 4 16 5 17 6 18 13 20 12 21 10 22 11 23
REMARK SMILES IDX 7 24 8 25 9 27 23 29
REMARK H PARENT 9 28 23 30
REMARK Flexibility Score:   37.900
ROOT
ATOM      1  C   UNL     1       2.225  -1.333  -0.538  1.00  0.00     0.124 C 
ATOM      2  C   UNL     1       2.432  -0.706   0.853  1.00  0.00     0.236 C 
ATOM      3  C   UNL     1       1.475   0.437   1.381  1.00  0.00     0.241 C 
ATOM      4  C   UNL     1       2.303   1.728   1.258  1.00  0.00     0.113 C 
ATOM      5  C   UNL     1       3.682   1.193   1.531  1.00  0.00     0.268 C 
ATOM      6  N   UNL     1       3.752  -0.031   0.723  1.00  0.00    -0.354 N 
ATOM      7  O   UNL     1       4.748  -0.831   1.186  1.00  0.00    -0.632 OA
ATOM      8  C   UNL     1       3.942   0.224  -0.742  1.00  0.00     0.297 C 
ATOM      9  C   UNL     1       2.628  -0.189  -1.438  1.00  0.00     0.182 C 
ENDROOT
BRANCH   3  10
ATOM     10  O   UNL     1       0.156   0.470   0.909  1.00  0.00    -0.452 OA
BRANCH  10  11
ATOM     11  C   UNL     1      -0.436   1.432   0.132  1.00  0.00     0.334 C 
ATOM     12  O   UNL     1       0.250   2.198  -0.516  1.00  0.00    -0.247 OA
BRANCH  11  13
ATOM     13  C   UNL     1      -1.925   1.600   0.088  1.00  0.00     0.033 C 
ATOM     14  C   UNL     1      -2.503   2.694  -0.504  1.00  0.00    -0.019 C 
ATOM     15  C   UNL     1      -1.786   3.836  -1.170  1.00  0.00     0.036 C 
BRANCH  13  16
ATOM     16  C   UNL     1      -2.863   0.636   0.807  1.00  0.00     0.049 C 
BRANCH  16  17
ATOM     17  C   UNL     1      -3.349  -0.661   0.081  1.00  0.00     0.034 CG0
ATOM     18  C   UNL     1      -3.618  -0.430  -1.417  1.00  0.00     0.012 C 
ATOM     19  G   UNL     1      -2.615  -2.027   0.338  1.00  0.00     0.000 G0
ENDBRANCH  16  17
ENDBRANCH  13  16
ENDBRANCH  11  13
ENDBRANCH  10  11
ENDBRANCH   3  10
BRANCH   1  20
ATOM     20  C   UNL     1       0.953  -2.152  -0.814  1.00  0.00     0.245 C 
BRANCH  20  21
ATOM     21  O   UNL     1      -0.242  -1.581  -0.420  1.00  0.00    -0.463 OA
BRANCH  21  22
ATOM     22  C   UNL     1      -1.397  -2.288  -0.540  1.00  0.00     0.338 C 
ATOM     23  O   UNL     1      -1.433  -3.246  -1.306  1.00  0.00    -0.249 OA
BRANCH  22  24
ATOM     24  C   UNL     1      -2.615  -2.027   0.338  1.00  0.00     0.161 CG0
ATOM     25  C   UNL     1      -2.197  -2.178   1.820  1.00  0.00     0.055 C 
ATOM     26  G   UNL     1      -3.349  -0.661   0.081  1.00  0.00     0.000 G0
BRANCH  24  27
ATOM     27  O   UNL     1      -3.542  -3.057   0.038  1.00  0.00    -0.378 OA
ATOM     28  H   UNL     1      -4.259  -3.064   0.727  1.00  0.00     0.212 HD
ENDBRANCH  24  27
ENDBRANCH  22  24
ENDBRANCH  21  22
ENDBRANCH  20  21
ENDBRANCH   1  20
BRANCH   9  29
ATOM     29  O   UNL     1       2.800  -0.537  -2.790  1.00  0.00    -0.387 OA
ATOM     30  H   UNL     1       3.420  -1.311  -2.834  1.00  0.00     0.211 HD
ENDBRANCH   9  29
TORSDOF 2
