REMARK SMILES CC(=O)O[C@@H]1C[C@@H]2CC[C@@H]3[C@H](CC[C@]4(C)[C@@H]5[C@H](C[C@@H]34)O[C@]3(CC[C@@H](C)CO3)[C@H]5C)[C@@]2(C)C[C@H]1OC(C)=O
REMARK SMILES IDX 5 1 6 2 7 3 8 4 9 5 10 6 11 7 12 8 13 9 14 10 15 11 16 12
REMARK SMILES IDX 17 13 18 14 19 15 20 16 21 17 22 18 23 19 24 20 25 21 26 22
REMARK SMILES IDX 27 23 28 24 29 25 30 26 31 27 32 28 33 29 4 30 2 31 3 32
REMARK SMILES IDX 1 33 34 34 35 35 37 36 36 37
REMARK H PARENT
ROOT
ATOM      1  C   UNL     1      -5.669   0.411   0.094  1.00  0.00     0.217 C 
ATOM      2  C   UNL     1      -4.915   1.055  -1.086  1.00  0.00     0.053 C 
ATOM      3  C   UNL     1      -3.418   1.188  -0.731  1.00  0.00    -0.001 C 
ATOM      4  C   UNL     1      -2.624   1.936  -1.821  1.00  0.00     0.004 C 
ATOM      5  C   UNL     1      -1.194   2.209  -1.330  1.00  0.00     0.004 C 
ATOM      6  C   UNL     1      -0.462   0.909  -0.930  1.00  0.00    -0.004 C 
ATOM      7  C   UNL     1      -1.303   0.124   0.147  1.00  0.00    -0.001 C 
ATOM      8  C   UNL     1      -0.538  -1.122   0.692  1.00  0.00     0.005 C 
ATOM      9  C   UNL     1       0.858  -0.735   1.223  1.00  0.00     0.008 C 
ATOM     10  C   UNL     1       1.683  -0.041   0.121  1.00  0.00    -0.024 C 
ATOM     11  C   UNL     1       1.953  -1.057  -1.052  1.00  0.00     0.012 C 
ATOM     12  C   UNL     1       2.988   0.633   0.641  1.00  0.00     0.033 C 
ATOM     13  C   UNL     1       3.268   1.756  -0.357  1.00  0.00     0.126 C 
ATOM     14  C   UNL     1       1.980   1.925  -1.200  1.00  0.00     0.037 C 
ATOM     15  C   UNL     1       0.930   1.225  -0.333  1.00  0.00     0.001 C 
ATOM     16  O   UNL     1       4.392   1.387  -1.121  1.00  0.00    -0.346 OA
ATOM     17  C   UNL     1       5.231   0.661  -0.233  1.00  0.00     0.171 C 
ATOM     18  C   UNL     1       6.115  -0.254  -1.118  1.00  0.00     0.066 C 
ATOM     19  C   UNL     1       7.209  -0.953  -0.313  1.00  0.00     0.011 C 
ATOM     20  C   UNL     1       7.857   0.018   0.704  1.00  0.00     0.012 C 
ATOM     21  C   UNL     1       9.378  -0.146   0.729  1.00  0.00     0.010 C 
ATOM     22  C   UNL     1       7.407   1.474   0.451  1.00  0.00     0.167 C 
ATOM     23  O   UNL     1       5.986   1.607   0.548  1.00  0.00    -0.349 OA
ATOM     24  C   UNL     1       4.279  -0.173   0.676  1.00  0.00     0.052 C 
ATOM     25  C   UNL     1       4.723  -0.485   2.111  1.00  0.00     0.014 C 
ATOM     26  C   UNL     1      -2.756  -0.195  -0.381  1.00  0.00    -0.023 C 
ATOM     27  C   UNL     1      -2.707  -1.161  -1.611  1.00  0.00     0.012 C 
ATOM     28  C   UNL     1      -3.607  -0.868   0.743  1.00  0.00     0.056 C 
ATOM     29  C   UNL     1      -5.101  -0.988   0.377  1.00  0.00     0.218 C 
ENDROOT
BRANCH   1  30
ATOM     30  O   UNL     1      -7.022   0.321  -0.198  1.00  0.00    -0.459 OA
BRANCH  30  31
ATOM     31  C   UNL     1      -8.012   0.912   0.524  1.00  0.00     0.303 C 
ATOM     32  O   UNL     1      -7.758   1.623   1.489  1.00  0.00    -0.253 OA
ATOM     33  C   UNL     1      -9.438   0.683   0.141  1.00  0.00     0.139 C 
ENDBRANCH  30  31
ENDBRANCH   1  30
BRANCH  29  34
ATOM     34  O   UNL     1      -5.783  -1.571   1.434  1.00  0.00    -0.459 OA
BRANCH  34  35
ATOM     35  C   UNL     1      -6.483  -2.737   1.367  1.00  0.00     0.303 C 
ATOM     36  O   UNL     1      -6.583  -3.357   0.316  1.00  0.00    -0.253 OA
ATOM     37  C   UNL     1      -7.141  -3.279   2.593  1.00  0.00     0.139 C 
ENDBRANCH  34  35
ENDBRANCH  29  34
TORSDOF 4
