REMARK SMILES CC1(C)[C@@H](O[C@@H]2O[C@H](C(=O)O)[C@@H](O)[C@H](O)[C@H]2O[C@@H]2O[C@H](C(=O)O)[C@@H](O)[C@H](O)[C@H]2O)CC[C@]2(C)[C@H]3C(=O)C=C4[C@@H]5C[C@]6(C)C[C@@H](OC6=O)[C@]5(C)CC[C@@]4(C)[C@]3(C)CC[C@@H]12
REMARK SMILES IDX 17 1 16 2 6 3 7 4 8 5 14 6 12 7 5 8 4 9 2 10 58 11 30 12
REMARK SMILES IDX 57 13 32 14 31 15 56 16 34 17 54 18 35 19 52 20 36 21 37 22
REMARK SMILES IDX 51 23 38 24 50 25 39 26 48 27 40 28 44 29 41 30 43 31 45 32
REMARK SMILES IDX 46 33 47 34 1 35 3 36 33 37 55 38 53 39 49 40 42 41 9 42
REMARK SMILES IDX 10 43 11 44 15 46 13 48 18 50 19 51 28 52 20 53 26 54 24 55
REMARK SMILES IDX 29 56 21 58 22 59 23 60 27 62 25 64
REMARK H PARENT 11 45 15 47 13 49 29 57 23 61 27 63 25 65
ROOT
ATOM      1  O   UNL     1       6.312   0.501   0.330  1.00  0.00    -0.338 OA
ENDROOT
BRANCH   1   2
ATOM      2  C   UNL     1       5.138   0.934   1.024  1.00  0.00     0.209 C 
ATOM      3  C   UNL     1       4.334  -0.302   1.543  1.00  0.00     0.283 C 
ATOM      4  O   UNL     1       4.658  -0.831   2.838  1.00  0.00    -0.332 OA
ATOM      5  C   UNL     1       5.191   0.059   3.824  1.00  0.00     0.262 C 
ATOM      6  C   UNL     1       5.550   1.899   2.143  1.00  0.00     0.180 C 
ATOM      7  C   UNL     1       6.207   1.084   3.256  1.00  0.00     0.186 C 
BRANCH   3   8
ATOM      8  O   UNL     1       2.912  -0.109   1.394  1.00  0.00    -0.346 OA
BRANCH   8   9
ATOM      9  C   UNL     1       2.321  -0.990   0.415  1.00  0.00     0.127 C 
ATOM     10  C   UNL     1       1.569  -0.223  -0.738  1.00  0.00    -0.006 C 
ATOM     11  C   UNL     1       0.041   0.133  -0.397  1.00  0.00     0.004 C 
ATOM     12  C   UNL     1       1.470  -2.094   1.111  1.00  0.00     0.033 C 
ATOM     13  C   UNL     1      -0.477   1.603  -0.458  1.00  0.00     0.005 C 
ATOM     14  C   UNL     1      -0.646  -0.626   0.798  1.00  0.00    -0.018 C 
ATOM     15  C   UNL     1      -0.050  -2.063   0.813  1.00  0.00     0.010 C 
ATOM     16  C   UNL     1      -1.964   1.576  -0.890  1.00  0.00     0.009 C 
ATOM     17  C   UNL     1      -2.194  -0.674   0.420  1.00  0.00     0.073 C 
ATOM     18  C   UNL     1      -2.921   0.682  -0.014  1.00  0.00    -0.013 C 
ATOM     19  C   UNL     1      -3.128  -1.459   1.312  1.00  0.00     0.159 C 
ATOM     20  C   UNL     1      -4.263   0.244  -0.851  1.00  0.00    -0.005 C 
ATOM     21  O   UNL     1      -2.736  -2.021   2.322  1.00  0.00    -0.295 OA
ATOM     22  C   UNL     1      -4.568  -1.506   0.975  1.00  0.00     0.047 C 
ATOM     23  C   UNL     1      -5.202   1.437  -1.300  1.00  0.00     0.012 C 
ATOM     24  C   UNL     1      -5.116  -0.748  -0.008  1.00  0.00    -0.056 C 
ATOM     25  C   UNL     1      -6.295   1.844  -0.280  1.00  0.00     0.012 C 
ATOM     26  C   UNL     1      -6.641  -0.752  -0.157  1.00  0.00     0.026 C 
ATOM     27  C   UNL     1      -7.220   0.666   0.224  1.00  0.00     0.011 C 
ATOM     28  C   UNL     1      -7.122  -1.278  -1.554  1.00  0.00     0.027 C 
ATOM     29  C   UNL     1      -8.704   0.789  -0.298  1.00  0.00     0.184 C 
ATOM     30  C   UNL     1      -8.611  -0.970  -1.829  1.00  0.00     0.069 C 
ATOM     31  C   UNL     1      -8.784   0.547  -1.803  1.00  0.00     0.064 C 
ATOM     32  O   UNL     1      -9.473  -0.252   0.212  1.00  0.00    -0.461 OA
ATOM     33  C   UNL     1      -9.449  -1.300  -0.642  1.00  0.00     0.312 C 
ATOM     34  O   UNL     1      -9.793  -2.425  -0.316  1.00  0.00    -0.252 OA
ATOM     35  C   UNL     1       2.359   1.026  -1.175  1.00  0.00     0.014 C 
ATOM     36  C   UNL     1       1.607  -1.166  -2.000  1.00  0.00     0.014 C 
ATOM     37  C   UNL     1      -0.366   0.014   2.191  1.00  0.00     0.012 C 
ATOM     38  C   UNL     1      -3.297   1.541   1.226  1.00  0.00     0.013 C 
ATOM     39  C   UNL     1      -3.856  -0.475  -2.205  1.00  0.00     0.017 C 
ATOM     40  C   UNL     1      -7.293   0.781   1.772  1.00  0.00     0.016 C 
ATOM     41  C   UNL     1      -9.093  -1.588  -3.150  1.00  0.00     0.024 C 
ENDBRANCH   8   9
ENDBRANCH   3   8
BRANCH   5  42
ATOM     42  C   UNL     1       4.116   0.711   4.685  1.00  0.00     0.335 C 
ATOM     43  O   UNL     1       4.455   1.443   5.601  1.00  0.00    -0.249 OA
BRANCH  42  44
ATOM     44  O   UNL     1       2.803   0.472   4.502  1.00  0.00    -0.479 OA
ATOM     45  H   UNL     1       2.475  -0.148   3.843  1.00  0.00     0.296 HD
ENDBRANCH  42  44
ENDBRANCH   5  42
BRANCH   6  46
ATOM     46  O   UNL     1       4.475   2.661   2.650  1.00  0.00    -0.387 OA
ATOM     47  H   UNL     1       3.615   2.216   2.440  1.00  0.00     0.211 HD
ENDBRANCH   6  46
BRANCH   7  48
ATOM     48  O   UNL     1       7.384   0.456   2.792  1.00  0.00    -0.387 OA
ATOM     49  H   UNL     1       7.176  -0.469   2.497  1.00  0.00     0.211 HD
ENDBRANCH   7  48
ENDBRANCH   1   2
BRANCH   1  50
ATOM     50  C   UNL     1       6.332   0.918  -1.036  1.00  0.00     0.283 C 
ATOM     51  O   UNL     1       5.835  -0.127  -1.879  1.00  0.00    -0.332 OA
ATOM     52  C   UNL     1       7.738   1.410  -1.431  1.00  0.00     0.202 C 
ATOM     53  C   UNL     1       6.801  -1.060  -2.391  1.00  0.00     0.262 C 
ATOM     54  C   UNL     1       8.768   0.257  -1.427  1.00  0.00     0.180 C 
ATOM     55  C   UNL     1       8.085  -1.126  -1.521  1.00  0.00     0.186 C 
BRANCH  52  56
ATOM     56  O   UNL     1       7.698   2.040  -2.694  1.00  0.00    -0.385 OA
ATOM     57  H   UNL     1       7.287   1.429  -3.354  1.00  0.00     0.211 HD
ENDBRANCH  52  56
BRANCH  53  58
ATOM     58  C   UNL     1       6.144  -2.425  -2.482  1.00  0.00     0.335 C 
ATOM     59  O   UNL     1       5.026  -2.596  -2.024  1.00  0.00    -0.249 OA
BRANCH  58  60
ATOM     60  O   UNL     1       6.756  -3.460  -3.099  1.00  0.00    -0.479 OA
ATOM     61  H   UNL     1       7.607  -3.370  -3.548  1.00  0.00     0.296 HD
ENDBRANCH  58  60
ENDBRANCH  53  58
BRANCH  54  62
ATOM     62  O   UNL     1       9.601   0.301  -0.296  1.00  0.00    -0.387 OA
ATOM     63  H   UNL     1       9.019   0.282   0.507  1.00  0.00     0.211 HD
ENDBRANCH  54  62
BRANCH  55  64
ATOM     64  O   UNL     1       9.007  -2.094  -1.955  1.00  0.00    -0.387 OA
ATOM     65  H   UNL     1       9.288  -1.840  -2.873  1.00  0.00     0.211 HD
ENDBRANCH  55  64
ENDBRANCH   1  50
TORSDOF 13
