REMARK SMILES CC(C)Cn1ccc2c(N)cccc21
REMARK SMILES IDX 5 1 6 2 7 3 8 4 9 5 11 6 12 7 13 8 14 9 4 10 2 11 1 12 3 13
REMARK SMILES IDX 10 14
REMARK H PARENT 10 15 10 16
ROOT
ATOM      1  N   UNL     1      -0.225   0.749  -0.669  1.00  0.00    -0.347 N 
ATOM      2  C   UNL     1       0.283   1.987  -0.458  1.00  0.00     0.087 A 
ATOM      3  C   UNL     1       1.634   1.907  -0.149  1.00  0.00     0.030 A 
ATOM      4  C   UNL     1       1.951   0.563  -0.189  1.00  0.00     0.023 A 
ATOM      5  C   UNL     1       3.165  -0.102   0.027  1.00  0.00     0.041 A 
ATOM      6  C   UNL     1       3.173  -1.506  -0.104  1.00  0.00     0.026 A 
ATOM      7  C   UNL     1       1.994  -2.202  -0.444  1.00  0.00     0.004 A 
ATOM      8  C   UNL     1       0.790  -1.507  -0.652  1.00  0.00     0.027 A 
ATOM      9  C   UNL     1       0.800  -0.116  -0.511  1.00  0.00     0.050 A 
ENDROOT
BRANCH   1  10
ATOM     10  C   UNL     1      -1.620   0.450  -1.011  1.00  0.00     0.125 C 
BRANCH  10  11
ATOM     11  C   UNL     1      -2.341  -0.302   0.130  1.00  0.00     0.002 C 
ATOM     12  C   UNL     1      -2.391   0.554   1.404  1.00  0.00     0.009 C 
ATOM     13  C   UNL     1      -3.763  -0.675  -0.305  1.00  0.00     0.009 C 
ENDBRANCH  10  11
ENDBRANCH   1  10
BRANCH   5  14
ATOM     14  N   UNL     1       4.351   0.599   0.361  1.00  0.00    -0.398 N 
ATOM     15  H   UNL     1       4.354   1.624   0.459  1.00  0.00     0.156 HD
ATOM     16  H   UNL     1       5.233   0.089   0.514  1.00  0.00     0.156 HD
ENDBRANCH   5  14
TORSDOF 3
