REMARK SMILES CCCCCCCCCC(=O)Nc1ccc(C(=O)N(NC(=O)c2ccccc2)c2ccccc2)cc1
REMARK SMILES IDX 8 1 7 2 6 3 5 4 4 5 3 6 2 7 1 8 9 9 10 10 11 11 12 12 13 14
REMARK SMILES IDX 14 15 36 16 15 17 35 18 16 19 17 20 18 21 19 22 20 23 21 24
REMARK SMILES IDX 22 25 23 27 24 28 28 29 25 30 27 31 26 32 29 33 30 34 34 35
REMARK SMILES IDX 31 36 33 37 32 38
REMARK H PARENT 12 13 20 26
ROOT
ATOM      1  C   UNL     1       4.824  -0.464  -2.087  1.00  0.00     0.010 C 
ENDROOT
BRANCH   1   2
ATOM      2  C   UNL     1       4.900  -0.815  -0.579  1.00  0.00     0.001 C 
BRANCH   2   3
ATOM      3  C   UNL     1       5.470   0.300   0.322  1.00  0.00     0.000 C 
BRANCH   3   4
ATOM      4  C   UNL     1       6.932   0.690   0.015  1.00  0.00     0.000 C 
BRANCH   4   5
ATOM      5  C   UNL     1       7.935  -0.476   0.113  1.00  0.00    -0.000 C 
BRANCH   5   6
ATOM      6  C   UNL     1       7.993  -1.095   1.523  1.00  0.00    -0.000 C 
BRANCH   6   7
ATOM      7  C   UNL     1       9.000  -2.249   1.638  1.00  0.00    -0.003 C 
ATOM      8  C   UNL     1       8.597  -3.474   0.814  1.00  0.00     0.004 C 
ENDBRANCH   6   7
ENDBRANCH   5   6
ENDBRANCH   4   5
ENDBRANCH   3   4
ENDBRANCH   2   3
ENDBRANCH   1   2
BRANCH   1   9
ATOM      9  C   UNL     1       3.914   0.743  -2.409  1.00  0.00     0.100 C 
BRANCH   9  10
ATOM     10  C   UNL     1       2.458   0.528  -2.050  1.00  0.00     0.224 C 
ATOM     11  O   UNL     1       2.099  -0.566  -1.653  1.00  0.00    -0.275 OA
ATOM     12  N   UNL     1       1.579   1.571  -2.153  1.00  0.00    -0.326 N 
ATOM     13  H   UNL     1       1.970   2.471  -2.473  1.00  0.00     0.169 HD
BRANCH  12  14
ATOM     14  C   UNL     1       0.184   1.564  -1.793  1.00  0.00     0.041 A 
ATOM     15  C   UNL     1      -0.530   0.405  -1.419  1.00  0.00     0.027 A 
ATOM     16  C   UNL     1      -0.513   2.786  -1.806  1.00  0.00     0.027 A 
ATOM     17  C   UNL     1      -1.869   0.480  -1.047  1.00  0.00     0.016 A 
ATOM     18  C   UNL     1      -1.860   2.858  -1.431  1.00  0.00     0.016 A 
ATOM     19  C   UNL     1      -2.555   1.707  -1.019  1.00  0.00     0.042 A 
BRANCH  19  20
ATOM     20  C   UNL     1      -4.002   1.807  -0.612  1.00  0.00     0.277 C 
ATOM     21  O   UNL     1      -4.641   2.751  -1.062  1.00  0.00    -0.267 OA
BRANCH  20  22
ATOM     22  N   UNL     1      -4.656   0.879   0.172  1.00  0.00    -0.217 N 
BRANCH  22  23
ATOM     23  N   UNL     1      -6.010   1.062   0.393  1.00  0.00    -0.256 N 
ATOM     24  C   UNL     1      -6.961   0.208  -0.087  1.00  0.00     0.270 C 
ATOM     25  O   UNL     1      -6.617  -0.748  -0.767  1.00  0.00    -0.267 OA
ATOM     26  H   UNL     1      -6.291   1.934   0.856  1.00  0.00     0.192 HD
BRANCH  24  27
ATOM     27  C   UNL     1      -8.427   0.423   0.157  1.00  0.00     0.041 A 
ATOM     28  C   UNL     1      -8.921   1.478   0.961  1.00  0.00     0.014 A 
ATOM     29  C   UNL     1      -9.361  -0.458  -0.428  1.00  0.00     0.014 A 
ATOM     30  C   UNL     1     -10.295   1.639   1.160  1.00  0.00     0.001 A 
ATOM     31  C   UNL     1     -10.734  -0.289  -0.224  1.00  0.00     0.001 A 
ATOM     32  C   UNL     1     -11.200   0.760   0.568  1.00  0.00     0.000 A 
ENDBRANCH  24  27
ENDBRANCH  22  23
BRANCH  22  33
ATOM     33  C   UNL     1      -3.943  -0.022   1.044  1.00  0.00     0.067 A 
ATOM     34  C   UNL     1      -4.340  -1.361   1.239  1.00  0.00     0.028 A 
ATOM     35  C   UNL     1      -2.830   0.453   1.776  1.00  0.00     0.028 A 
ATOM     36  C   UNL     1      -3.622  -2.199   2.100  1.00  0.00     0.002 A 
ATOM     37  C   UNL     1      -2.128  -0.384   2.645  1.00  0.00     0.002 A 
ATOM     38  C   UNL     1      -2.519  -1.712   2.801  1.00  0.00     0.000 A 
ENDBRANCH  22  33
ENDBRANCH  20  22
ENDBRANCH  19  20
ENDBRANCH  12  14
ENDBRANCH   9  10
ENDBRANCH   1   9
TORSDOF 14
