REMARK SMILES CCCCCCCCCCCCCCCCO[C@H]1OC[C@@H](O[C@@H]2OC[C@H](O[C@H]3OC[C@@H](O)[C@@H](O)[C@@H]3O)[C@H](O)[C@@H]2O)[C@H](O)[C@@H]1O
REMARK SMILES IDX 12 1 11 2 10 3 9 4 8 5 7 6 6 7 5 8 4 9 3 10 2 11 1 12 13 13
REMARK SMILES IDX 14 14 15 15 16 16 17 17 18 18 19 19 43 20 20 21 41 22 21 23
REMARK SMILES IDX 44 24 42 26 22 28 23 29 24 30 39 31 25 32 37 33 26 34 40 35
REMARK SMILES IDX 38 37 27 39 28 40 29 41 35 42 30 43 33 44 31 45 36 46 34 48
REMARK SMILES IDX 32 50
REMARK H PARENT 44 25 42 27 40 36 38 38 36 47 34 49 32 51
ROOT
ATOM      1  C   UNL     1      -4.084  -1.453  -0.931  1.00  0.00     0.000 C 
ENDROOT
BRANCH   1   2
ATOM      2  C   UNL     1      -5.561  -1.828  -0.696  1.00  0.00     0.000 C 
BRANCH   2   3
ATOM      3  C   UNL     1      -6.639  -1.253  -1.639  1.00  0.00     0.000 C 
BRANCH   3   4
ATOM      4  C   UNL     1      -6.973   0.237  -1.430  1.00  0.00     0.000 C 
BRANCH   4   5
ATOM      5  C   UNL     1      -8.181   0.713  -2.255  1.00  0.00    -0.000 C 
BRANCH   5   6
ATOM      6  C   UNL     1      -9.514   0.021  -1.912  1.00  0.00    -0.000 C 
BRANCH   6   7
ATOM      7  C   UNL     1      -9.919   0.099  -0.428  1.00  0.00    -0.000 C 
BRANCH   7   8
ATOM      8  C   UNL     1     -10.108   1.542   0.071  1.00  0.00    -0.000 C 
BRANCH   8   9
ATOM      9  C   UNL     1     -10.512   1.619   1.556  1.00  0.00    -0.000 C 
BRANCH   9  10
ATOM     10  C   UNL     1     -11.803   0.864   1.923  1.00  0.00    -0.000 C 
BRANCH  10  11
ATOM     11  C   UNL     1     -13.028   1.345   1.133  1.00  0.00    -0.003 C 
ATOM     12  C   UNL     1     -14.279   0.578   1.546  1.00  0.00     0.004 C 
ENDBRANCH  10  11
ENDBRANCH   9  10
ENDBRANCH   8   9
ENDBRANCH   7   8
ENDBRANCH   6   7
ENDBRANCH   5   6
ENDBRANCH   4   5
ENDBRANCH   3   4
ENDBRANCH   2   3
ENDBRANCH   1   2
BRANCH   1  13
ATOM     13  C   UNL     1      -3.740   0.021  -0.669  1.00  0.00     0.000 C 
BRANCH  13  14
ATOM     14  C   UNL     1      -2.248   0.366  -0.726  1.00  0.00     0.002 C 
BRANCH  14  15
ATOM     15  C   UNL     1      -1.398   0.048   0.516  1.00  0.00     0.029 C 
BRANCH  15  16
ATOM     16  C   UNL     1      -1.215  -1.450   0.831  1.00  0.00     0.163 C 
BRANCH  16  17
ATOM     17  O   UNL     1      -0.141  -1.663   1.732  1.00  0.00    -0.350 OA
BRANCH  17  18
ATOM     18  C   UNL     1       1.105  -1.448   1.082  1.00  0.00     0.281 C 
ATOM     19  O   UNL     1       1.740  -0.324   1.702  1.00  0.00    -0.347 OA
ATOM     20  C   UNL     1       1.981  -2.712   1.179  1.00  0.00     0.202 C 
ATOM     21  C   UNL     1       3.159  -0.255   1.528  1.00  0.00     0.198 C 
ATOM     22  C   UNL     1       3.304  -2.493   0.390  1.00  0.00     0.179 C 
ATOM     23  C   UNL     1       3.635  -0.987   0.267  1.00  0.00     0.179 C 
BRANCH  20  24
ATOM     24  O   UNL     1       1.323  -3.889   0.783  1.00  0.00    -0.385 OA
ATOM     25  H   UNL     1       0.868  -3.706  -0.080  1.00  0.00     0.211 HD
ENDBRANCH  20  24
BRANCH  22  26
ATOM     26  O   UNL     1       3.275  -3.071  -0.893  1.00  0.00    -0.387 OA
ATOM     27  H   UNL     1       2.535  -2.645  -1.401  1.00  0.00     0.211 HD
ENDBRANCH  22  26
BRANCH  23  28
ATOM     28  O   UNL     1       5.026  -0.829   0.059  1.00  0.00    -0.341 OA
BRANCH  28  29
ATOM     29  C   UNL     1       5.345   0.120  -0.952  1.00  0.00     0.282 C 
ATOM     30  O   UNL     1       6.239  -0.470  -1.901  1.00  0.00    -0.347 OA
ATOM     31  C   UNL     1       5.844   1.473  -0.329  1.00  0.00     0.202 C 
ATOM     32  C   UNL     1       7.582  -0.345  -1.496  1.00  0.00     0.198 C 
ATOM     33  C   UNL     1       6.841   2.079  -1.325  1.00  0.00     0.179 C 
ATOM     34  C   UNL     1       8.056   1.131  -1.500  1.00  0.00     0.179 C 
BRANCH  31  35
ATOM     35  O   UNL     1       6.428   1.349   0.952  1.00  0.00    -0.385 OA
ATOM     36  H   UNL     1       6.858   0.465   1.049  1.00  0.00     0.211 HD
ENDBRANCH  31  35
BRANCH  33  37
ATOM     37  O   UNL     1       7.233   3.388  -0.992  1.00  0.00    -0.387 OA
ATOM     38  H   UNL     1       7.586   3.378  -0.065  1.00  0.00     0.211 HD
ENDBRANCH  33  37
BRANCH  34  39
ATOM     39  O   UNL     1       8.940   1.313  -0.407  1.00  0.00    -0.341 OA
BRANCH  39  40
ATOM     40  C   UNL     1      10.310   1.197  -0.737  1.00  0.00     0.282 C 
ATOM     41  O   UNL     1      11.015   2.270  -0.098  1.00  0.00    -0.347 OA
ATOM     42  C   UNL     1      10.844  -0.229  -0.347  1.00  0.00     0.202 C 
ATOM     43  C   UNL     1      11.422   1.907   1.203  1.00  0.00     0.198 C 
ATOM     44  C   UNL     1      12.349  -0.108  -0.058  1.00  0.00     0.179 C 
ATOM     45  C   UNL     1      12.567   0.866   1.134  1.00  0.00     0.171 C 
BRANCH  42  46
ATOM     46  O   UNL     1      10.573  -1.175  -1.350  1.00  0.00    -0.385 OA
ATOM     47  H   UNL     1      11.082  -0.909  -2.160  1.00  0.00     0.211 HD
ENDBRANCH  42  46
BRANCH  44  48
ATOM     48  O   UNL     1      12.988  -1.343   0.149  1.00  0.00    -0.387 OA
ATOM     49  H   UNL     1      12.429  -1.871   0.777  1.00  0.00     0.211 HD
ENDBRANCH  44  48
BRANCH  45  50
ATOM     50  O   UNL     1      12.665   0.200   2.369  1.00  0.00    -0.388 OA
ATOM     51  H   UNL     1      11.823  -0.306   2.511  1.00  0.00     0.211 HD
ENDBRANCH  45  50
ENDBRANCH  39  40
ENDBRANCH  34  39
ENDBRANCH  28  29
ENDBRANCH  23  28
ENDBRANCH  17  18
ENDBRANCH  16  17
ENDBRANCH  15  16
ENDBRANCH  14  15
ENDBRANCH  13  14
ENDBRANCH   1  13
TORSDOF 27
