REMARK SMILES COc1cc2c(c(OC)c1OC)-c1ccc(NCC(=O)Nc3cccc(NC(C)=O)c3)c(=O)cc1[C@@H](NC(C)=O)CC2
REMARK SMILES IDX 17 1 16 3 13 4 14 5 35 6 15 7 34 8 32 9 33 10 6 11 3 12 4 13
REMARK SMILES IDX 10 14 5 15 7 16 2 17 1 18 11 19 12 20 42 21 8 23 9 24 36 25
REMARK SMILES IDX 37 26 38 27 40 28 39 30 41 31 18 33 19 34 20 35 21 36 22 38
REMARK SMILES IDX 23 39 31 40 24 41 26 42 25 43 27 44 28 45 30 46 29 48
REMARK H PARENT 17 2 37 29 21 37 27 47
REMARK Flexibility Score:   84.900
ROOT
ATOM      1  N   UNL     1       1.911   0.791   0.664  1.00  0.00    -0.373 N 
ATOM      2  H   UNL     1       2.443   1.664   0.528  1.00  0.00     0.161 HD
ENDROOT
BRANCH   1   3
ATOM      3  C   UNL     1       0.467   0.826   0.590  1.00  0.00     0.083 A 
ATOM      4  C   UNL     1      -2.742   0.141   0.294  1.00  0.00    -0.009 A 
ATOM      5  C   UNL     1      -1.587  -0.652   0.500  1.00  0.00     0.011 A 
ATOM      6  C   UNL     1      -2.700   1.580   0.297  1.00  0.00    -0.014 A 
ATOM      7  C   UNL     1      -0.234  -0.377   0.631  1.00  0.00     0.030 A 
ATOM      8  C   UNL     1      -1.513   2.361   0.384  1.00  0.00     0.060 A 
ATOM      9  C   UNL     1      -0.147   2.079   0.479  1.00  0.00     0.202 A 
ATOM     10  O   UNL     1       0.585   3.057   0.488  1.00  0.00    -0.288 OA
BRANCH   4  11
ATOM     11  C   UNL     1      -4.006  -0.724   0.127  1.00  0.00     0.031 A 
ATOM     12  C   UNL     1      -6.257  -2.491  -0.039  1.00  0.00     0.164 A 
ATOM     13  C   UNL     1      -6.353  -1.260   0.609  1.00  0.00     0.055 A 
ATOM     14  C   UNL     1      -5.064  -2.853  -0.655  1.00  0.00     0.203 A 
ATOM     15  C   UNL     1      -5.260  -0.380   0.695  1.00  0.00    -0.032 A 
ATOM     16  C   UNL     1      -3.946  -1.977  -0.603  1.00  0.00     0.172 A 
BRANCH  12  17
ATOM     17  O   UNL     1      -7.307  -3.354  -0.116  1.00  0.00    -0.493 OA
ATOM     18  C   UNL     1      -8.566  -3.160   0.414  1.00  0.00     0.278 C 
ENDBRANCH  12  17
BRANCH  14  19
ATOM     19  O   UNL     1      -5.064  -4.059  -1.295  1.00  0.00    -0.490 OA
ATOM     20  C   UNL     1      -4.051  -4.672  -2.002  1.00  0.00     0.278 C 
ENDBRANCH  14  19
BRANCH  15  21
ATOM     21  C   UNL     1      -5.519   0.935   1.356  1.00  0.00     0.039 CG0
ATOM     22  G   UNL     1      -5.345   1.990   0.281  1.00  0.00     0.000 G0
ENDBRANCH  15  21
BRANCH  16  23
ATOM     23  O   UNL     1      -2.836  -2.351  -1.290  1.00  0.00    -0.492 OA
ATOM     24  C   UNL     1      -2.322  -1.656  -2.369  1.00  0.00     0.278 C 
ENDBRANCH  16  23
ENDBRANCH   4  11
BRANCH   6  25
ATOM     25  C   UNL     1      -3.924   2.527   0.244  1.00  0.00     0.113 C 
BRANCH  25  26
ATOM     26  N   UNL     1      -3.828   3.437  -0.895  1.00  0.00    -0.350 N 
ATOM     27  C   UNL     1      -3.726   4.793  -0.760  1.00  0.00     0.217 C 
ATOM     28  O   UNL     1      -3.711   5.312   0.347  1.00  0.00    -0.275 OA
ATOM     29  H   UNL     1      -3.852   3.027  -1.841  1.00  0.00     0.164 HD
ATOM     30  C   UNL     1      -3.631   5.680  -1.965  1.00  0.00     0.114 C 
ENDBRANCH  25  26
BRANCH  25  31
ATOM     31  C   UNL     1      -5.345   1.990   0.281  1.00  0.00     0.034 CG0
ATOM     32  G   UNL     1      -5.519   0.935   1.356  1.00  0.00     0.000 G0
ENDBRANCH  25  31
ENDBRANCH   6  25
ENDBRANCH   1   3
BRANCH   1  33
ATOM     33  C   UNL     1       2.686  -0.413   0.922  1.00  0.00     0.213 C 
BRANCH  33  34
ATOM     34  C   UNL     1       4.167  -0.162   0.783  1.00  0.00     0.243 C 
ATOM     35  O   UNL     1       4.592   0.148  -0.318  1.00  0.00    -0.273 OA
ATOM     36  N   UNL     1       4.996  -0.270   1.864  1.00  0.00    -0.324 N 
ATOM     37  H   UNL     1       4.552  -0.429   2.782  1.00  0.00     0.169 HD
BRANCH  36  38
ATOM     38  C   UNL     1       6.428  -0.159   1.853  1.00  0.00     0.043 A 
ATOM     39  C   UNL     1       7.088   0.075   3.068  1.00  0.00     0.026 A 
ATOM     40  C   UNL     1       7.212  -0.324   0.687  1.00  0.00     0.052 A 
ATOM     41  C   UNL     1       8.477   0.167   3.119  1.00  0.00     0.004 A 
ATOM     42  C   UNL     1       8.620  -0.255   0.722  1.00  0.00     0.043 A 
ATOM     43  C   UNL     1       9.243   0.005   1.964  1.00  0.00     0.026 A 
BRANCH  42  44
ATOM     44  N   UNL     1       9.329  -0.477  -0.512  1.00  0.00    -0.326 N 
ATOM     45  C   UNL     1      10.683  -0.517  -0.707  1.00  0.00     0.221 C 
ATOM     46  O   UNL     1      11.472  -0.337   0.205  1.00  0.00    -0.275 OA
ATOM     47  H   UNL     1       8.746  -0.648  -1.346  1.00  0.00     0.169 HD
ATOM     48  C   UNL     1      11.241  -0.801  -2.073  1.00  0.00     0.114 C 
ENDBRANCH  42  44
ENDBRANCH  36  38
ENDBRANCH  33  34
ENDBRANCH   1  33
TORSDOF 9
