REMARK SMILES CC1=C2C[C@H]3[C@@H](CC(=O)[C@H]4C[C@@H](O)CC[C@@]43C)[C@@H]2CC[C@@H]1[C@@H](C)[C@@H]1[C@H](O)C[C@@H](C)CN1C
REMARK SMILES IDX 22 1 23 2 21 3 2 4 3 5 4 6 18 7 20 8 5 9 6 10 19 11 16 12
REMARK SMILES IDX 7 13 15 14 10 15 8 16 14 17 11 18 9 19 12 20 1 21 17 22
REMARK SMILES IDX 13 23 24 25 25 26 31 27 27 28 30 29 28 30 32 31 29 32 26 33
REMARK H PARENT 13 24 26 34
ROOT
ATOM      1  C   UNL     1      -2.721   0.757   0.239  1.00  0.00     0.013 C 
ATOM      2  C   UNL     1      -2.207   1.647  -0.909  1.00  0.00     0.010 C 
ENDROOT
BRANCH   1   3
ATOM      3  C   UNL     1      -1.757  -0.467   0.508  1.00  0.00     0.019 C 
ATOM      4  C   UNL     1      -0.445  -0.007   1.215  1.00  0.00    -0.070 C 
ATOM      5  C   UNL     1       0.779  -0.292   0.692  1.00  0.00    -0.067 C 
ATOM      6  C   UNL     1       2.119   0.207   1.199  1.00  0.00     0.035 C 
ATOM      7  C   UNL     1       0.970  -1.102  -0.553  1.00  0.00     0.019 C 
ATOM      8  C   UNL     1      -1.460  -1.335  -0.769  1.00  0.00     0.009 C 
ATOM      9  C   UNL     1       3.110  -0.500   0.262  1.00  0.00     0.004 C 
ATOM     10  C   UNL     1       2.326  -0.615  -1.052  1.00  0.00     0.007 C 
ATOM     11  C   UNL     1      -0.187  -0.929  -1.522  1.00  0.00     0.009 C 
ATOM     12  C   UNL     1       4.550   0.091   0.060  1.00  0.00    -0.019 C 
ATOM     13  C   UNL     1       3.051  -1.525  -2.055  1.00  0.00     0.080 C 
ATOM     14  C   UNL     1       5.328   0.091   1.406  1.00  0.00     0.010 C 
ATOM     15  C   UNL     1       5.285  -0.881  -0.930  1.00  0.00     0.065 C 
ATOM     16  C   UNL     1       4.469  -1.026  -2.204  1.00  0.00     0.136 C 
ATOM     17  C   UNL     1       6.810   0.481   1.222  1.00  0.00     0.032 C 
ATOM     18  C   UNL     1       6.757  -0.471  -1.153  1.00  0.00     0.043 C 
ATOM     19  O   UNL     1       4.921  -0.733  -3.300  1.00  0.00    -0.299 OA
ATOM     20  C   UNL     1       7.497  -0.454   0.204  1.00  0.00     0.115 C 
ATOM     21  C   UNL     1      -0.541   0.784   2.510  1.00  0.00     0.040 C 
ATOM     22  C   UNL     1       4.479   1.546  -0.508  1.00  0.00     0.012 C 
BRANCH  20  23
ATOM     23  O   UNL     1       8.846  -0.099   0.033  1.00  0.00    -0.393 OA
ATOM     24  H   UNL     1       8.867   0.818  -0.348  1.00  0.00     0.210 HD
ENDBRANCH  20  23
ENDBRANCH   1   3
BRANCH   1  25
ATOM     25  C   UNL     1      -4.283   0.524   0.115  1.00  0.00     0.088 C 
ATOM     26  C   UNL     1      -5.073   0.141   1.416  1.00  0.00     0.132 C 
ATOM     27  N   UNL     1      -4.810  -0.163  -1.087  1.00  0.00    -0.300 NA
ATOM     28  C   UNL     1      -6.566  -0.194   1.114  1.00  0.00     0.038 C 
ATOM     29  C   UNL     1      -6.213   0.292  -1.374  1.00  0.00     0.088 C 
ATOM     30  C   UNL     1      -7.092   0.595  -0.099  1.00  0.00     0.002 C 
ATOM     31  C   UNL     1      -4.735  -1.643  -1.075  1.00  0.00     0.105 C 
ATOM     32  C   UNL     1      -7.239   2.096   0.231  1.00  0.00     0.009 C 
BRANCH  26  33
ATOM     33  O   UNL     1      -4.476  -0.883   2.170  1.00  0.00    -0.391 OA
ATOM     34  H   UNL     1      -4.648  -1.749   1.722  1.00  0.00     0.211 HD
ENDBRANCH  26  33
ENDBRANCH   1  25
TORSDOF 4
