REMARK SMILES CC1(C)CC2=C3C=C[C@@H]4[C@@]5(C)CC[C@@H](O)C(C)(C)[C@H]5CC[C@@]4(C)[C@]3(C)CCC2=CC1=O
REMARK SMILES IDX 1 1 2 2 3 3 4 4 5 5 6 6 7 7 8 8 9 9 10 10 11 11 12 12 13 13
REMARK SMILES IDX 14 14 16 15 17 16 18 17 19 18 20 19 21 20 22 21 23 22 24 23
REMARK SMILES IDX 25 24 26 25 27 26 28 27 29 28 30 29 31 30 15 31
REMARK H PARENT 15 32
ROOT
ATOM      1  C   UNL     1       6.618   0.600   2.241  1.00  0.00     0.020 C 
ATOM      2  C   UNL     1       5.821  -0.160   1.160  1.00  0.00     0.031 C 
ATOM      3  C   UNL     1       6.175  -1.662   1.255  1.00  0.00     0.020 C 
ATOM      4  C   UNL     1       4.305   0.028   1.407  1.00  0.00     0.050 C 
ATOM      5  C   UNL     1       3.423  -0.283   0.196  1.00  0.00    -0.040 C 
ATOM      6  C   UNL     1       2.056  -0.237   0.297  1.00  0.00    -0.038 C 
ATOM      7  C   UNL     1       1.386  -0.115   1.638  1.00  0.00     0.000 C 
ATOM      8  C   UNL     1       0.069   0.098   1.769  1.00  0.00    -0.022 C 
ATOM      9  C   UNL     1      -0.793   0.372   0.543  1.00  0.00     0.025 C 
ATOM     10  C   UNL     1      -2.369   0.728   0.713  1.00  0.00    -0.022 C 
ATOM     11  C   UNL     1      -2.615   0.945   2.237  1.00  0.00     0.012 C 
ATOM     12  C   UNL     1      -2.716   2.086   0.000  1.00  0.00     0.010 C 
ATOM     13  C   UNL     1      -4.221   2.448   0.065  1.00  0.00     0.033 C 
ATOM     14  C   UNL     1      -5.096   1.377  -0.624  1.00  0.00     0.120 C 
ATOM     15  C   UNL     1      -4.863  -0.047  -0.000  1.00  0.00    -0.006 C 
ATOM     16  C   UNL     1      -5.552  -0.122   1.395  1.00  0.00     0.014 C 
ATOM     17  C   UNL     1      -5.630  -1.122  -0.830  1.00  0.00     0.014 C 
ATOM     18  C   UNL     1      -3.293  -0.374   0.047  1.00  0.00     0.004 C 
ATOM     19  C   UNL     1      -2.775  -0.784  -1.395  1.00  0.00     0.005 C 
ATOM     20  C   UNL     1      -1.312  -0.468  -1.755  1.00  0.00     0.008 C 
ATOM     21  C   UNL     1      -0.351  -0.647  -0.578  1.00  0.00    -0.016 C 
ATOM     22  C   UNL     1      -0.451  -2.135  -0.089  1.00  0.00     0.013 C 
ATOM     23  C   UNL     1       1.181  -0.312  -0.978  1.00  0.00    -0.001 C 
ATOM     24  C   UNL     1       1.297   1.069  -1.728  1.00  0.00     0.017 C 
ATOM     25  C   UNL     1       1.816  -1.401  -1.896  1.00  0.00     0.017 C 
ATOM     26  C   UNL     1       3.248  -1.029  -2.322  1.00  0.00     0.037 C 
ATOM     27  C   UNL     1       4.064  -0.511  -1.152  1.00  0.00    -0.041 C 
ATOM     28  C   UNL     1       5.353  -0.177  -1.356  1.00  0.00     0.051 C 
ATOM     29  C   UNL     1       6.182   0.305  -0.237  1.00  0.00     0.161 C 
ATOM     30  O   UNL     1       7.204   0.938  -0.459  1.00  0.00    -0.294 OA
ENDROOT
BRANCH  14  31
ATOM     31  O   UNL     1      -4.817   1.381  -2.001  1.00  0.00    -0.393 OA
ATOM     32  H   UNL     1      -5.149   2.242  -2.368  1.00  0.00     0.210 HD
ENDBRANCH  14  31
TORSDOF 1
