REMARK SMILES CC(=C/C=C/C(C)=C/C=C/C=C(C)/C=C/C=C(C)/C=C/C1=C(C)C(=O)[C@H](O)CC1(C)C)/C=C/C1=C(C)C(=O)[C@H](O)CC1(C)C
REMARK SMILES IDX 9 1 10 2 8 3 6 4 7 5 5 6 4 7 3 8 2 9 1 10 32 11 33 12 34 13
REMARK SMILES IDX 35 14 37 15 42 16 39 17 38 18 41 19 36 20 43 21 44 22 40 23
REMARK SMILES IDX 11 25 12 26 13 27 14 28 15 29 16 30 17 31 18 32 19 33 20 34
REMARK SMILES IDX 21 35 22 36 29 37 24 38 28 39 25 40 26 41 23 42 30 43 31 44
REMARK SMILES IDX 27 45
REMARK H PARENT 40 24 27 46
ROOT
ATOM      1  C   UNL     1       1.050   1.293  -2.781  1.00  0.00     0.000 C 
ATOM      2  C   UNL     1      -0.031   0.930  -2.067  1.00  0.00     0.000 C 
ENDROOT
BRANCH   1   3
ATOM      3  C   UNL     1       2.352   1.117  -2.078  1.00  0.00     0.003 C 
ATOM      4  C   UNL     1       3.612   1.254  -2.547  1.00  0.00    -0.051 C 
ATOM      5  C   UNL     1       3.880   1.621  -3.984  1.00  0.00     0.044 C 
BRANCH   4   6
ATOM      6  C   UNL     1       4.682   1.011  -1.521  1.00  0.00     0.003 C 
ATOM      7  C   UNL     1       6.016   1.045  -1.666  1.00  0.00     0.001 C 
BRANCH   7   8
ATOM      8  C   UNL     1       7.028   0.835  -0.562  1.00  0.00     0.003 C 
ATOM      9  C   UNL     1       6.858   0.604   0.787  1.00  0.00    -0.051 C 
ATOM     10  C   UNL     1       5.508   0.491   1.465  1.00  0.00     0.044 C 
BRANCH   9  11
ATOM     11  C   UNL     1       8.012   0.490   1.745  1.00  0.00     0.004 C 
ATOM     12  C   UNL     1       9.324   0.448   1.438  1.00  0.00     0.005 C 
BRANCH  12  13
ATOM     13  C   UNL     1      10.526   0.406   2.378  1.00  0.00    -0.036 C 
ATOM     14  C   UNL     1      10.493   0.636   3.749  1.00  0.00    -0.001 C 
ATOM     15  C   UNL     1      11.768   0.699   4.524  1.00  0.00     0.187 C 
ATOM     16  C   UNL     1      11.889   0.106   1.668  1.00  0.00    -0.007 C 
ATOM     17  C   UNL     1      13.065   0.902   3.809  1.00  0.00     0.186 C 
ATOM     18  O   UNL     1      11.775   0.595   5.743  1.00  0.00    -0.292 OA
ATOM     19  C   UNL     1      13.070  -0.104   2.675  1.00  0.00     0.051 C 
ATOM     20  C   UNL     1       9.241   0.880   4.565  1.00  0.00     0.048 C 
ATOM     21  C   UNL     1      12.226   1.247   0.672  1.00  0.00     0.016 C 
ATOM     22  C   UNL     1      11.794  -1.219   0.866  1.00  0.00     0.016 C 
BRANCH  17  23
ATOM     23  O   UNL     1      13.163   2.210   3.312  1.00  0.00    -0.385 OA
ATOM     24  H   UNL     1      13.037   2.829   4.079  1.00  0.00     0.211 HD
ENDBRANCH  17  23
ENDBRANCH  12  13
ENDBRANCH   9  11
ENDBRANCH   7   8
ENDBRANCH   4   6
ENDBRANCH   1   3
BRANCH   2  25
ATOM     25  C   UNL     1      -1.459   1.008  -2.462  1.00  0.00     0.003 C 
ATOM     26  C   UNL     1      -2.425   0.320  -1.783  1.00  0.00    -0.051 C 
ATOM     27  C   UNL     1      -2.090  -0.684  -0.674  1.00  0.00     0.044 C 
BRANCH  26  28
ATOM     28  C   UNL     1      -3.877   0.544  -2.104  1.00  0.00     0.003 C 
ATOM     29  C   UNL     1      -4.834  -0.194  -1.502  1.00  0.00     0.001 C 
BRANCH  29  30
ATOM     30  C   UNL     1      -6.295   0.009  -1.636  1.00  0.00     0.003 C 
ATOM     31  C   UNL     1      -7.216  -0.872  -1.151  1.00  0.00    -0.051 C 
ATOM     32  C   UNL     1      -6.845  -2.226  -0.550  1.00  0.00     0.044 C 
BRANCH  31  33
ATOM     33  C   UNL     1      -8.663  -0.490  -1.185  1.00  0.00     0.004 C 
ATOM     34  C   UNL     1      -9.643  -1.329  -0.781  1.00  0.00     0.005 C 
BRANCH  34  35
ATOM     35  C   UNL     1     -11.112  -1.034  -0.714  1.00  0.00    -0.036 C 
ATOM     36  C   UNL     1     -11.999  -2.011  -1.106  1.00  0.00    -0.001 C 
ATOM     37  C   UNL     1     -11.668   0.222   0.019  1.00  0.00    -0.007 C 
ATOM     38  C   UNL     1     -13.472  -1.801  -0.974  1.00  0.00     0.187 C 
ATOM     39  C   UNL     1     -12.982   0.652  -0.667  1.00  0.00     0.051 C 
ATOM     40  O   UNL     1     -14.236  -2.744  -1.126  1.00  0.00    -0.292 OA
ATOM     41  C   UNL     1     -14.052  -0.451  -0.630  1.00  0.00     0.186 C 
ATOM     42  C   UNL     1     -11.576  -3.342  -1.712  1.00  0.00     0.048 C 
ATOM     43  C   UNL     1     -11.913  -0.163   1.500  1.00  0.00     0.016 C 
ATOM     44  C   UNL     1     -10.726   1.445   0.027  1.00  0.00     0.016 C 
BRANCH  41  45
ATOM     45  O   UNL     1     -15.106  -0.116  -1.498  1.00  0.00    -0.385 OA
ATOM     46  H   UNL     1     -14.756  -0.159  -2.427  1.00  0.00     0.211 HD
ENDBRANCH  41  45
ENDBRANCH  34  35
ENDBRANCH  31  33
ENDBRANCH  29  30
ENDBRANCH  26  28
ENDBRANCH   2  25
TORSDOF 12
