REMARK SMILES Oc1ccc(Br)cc1/C(C[C@H](NNc1ccccc1)c1ccc(Cl)cc1)=N\Nc1ccccc1
REMARK SMILES IDX 10 1 9 2 27 3 8 4 2 5 3 6 4 7 7 8 5 9 6 10 1 11 28 13 29 15
REMARK SMILES IDX 30 16 34 17 31 18 33 19 32 20 11 21 12 22 13 24 14 26 15 27
REMARK SMILES IDX 19 28 16 29 18 30 17 31 20 32 21 33 26 34 22 35 25 36 23 37
REMARK SMILES IDX 24 38
REMARK H PARENT 1 12 28 14 12 23 13 25
ROOT
ATOM      1  C   UNL     1      -0.408   1.714   0.136  1.00  0.00     0.084 C 
ENDROOT
BRANCH   1   2
ATOM      2  C   UNL     1      -0.709   0.405   0.580  1.00  0.00     0.074 C 
ATOM      3  N   UNL     1      -0.935  -0.277  -0.737  1.00  0.00    -0.179 NA
BRANCH   2   4
ATOM      4  C   UNL     1      -1.054  -0.577   1.458  1.00  0.00     0.041 A 
ATOM      5  C   UNL     1      -0.345   0.327   2.725  1.00  0.00     0.124 A 
ATOM      6  C   UNL     1      -0.338  -0.096   3.969  1.00  0.00     0.048 A 
ATOM      7  C   UNL     1      -0.854  -1.273   4.492  1.00  0.00     0.019 A 
ATOM      8  C   UNL     1      -1.374  -1.487   2.273  1.00  0.00     0.029 A 
ATOM      9  C   UNL     1      -1.425  -2.025   3.492  1.00  0.00     0.018 A 
ATOM     10  Br  UNL     1      -2.156  -3.706   3.894  1.00  0.00    -0.051 Br
BRANCH   5  11
ATOM     11  O   UNL     1       0.193   1.469   2.331  1.00  0.00    -0.507 OA
ATOM     12  H   UNL     1       0.605   2.033   2.956  1.00  0.00     0.293 HD
ENDBRANCH   5  11
ENDBRANCH   2   4
BRANCH   3  13
ATOM     13  N   UNL     1      -1.373  -1.564  -0.724  1.00  0.00    -0.278 N 
ATOM     14  H   UNL     1      -0.765  -2.266  -0.396  1.00  0.00     0.190 HD
BRANCH  13  15
ATOM     15  C   UNL     1      -2.694  -1.946  -1.174  1.00  0.00     0.056 A 
ATOM     16  C   UNL     1      -2.839  -2.949  -2.090  1.00  0.00     0.027 A 
ATOM     17  C   UNL     1      -3.818  -1.329  -0.705  1.00  0.00     0.027 A 
ATOM     18  C   UNL     1      -4.107  -3.327  -2.522  1.00  0.00     0.002 A 
ATOM     19  C   UNL     1      -5.093  -1.693  -1.128  1.00  0.00     0.002 A 
ATOM     20  C   UNL     1      -5.224  -2.736  -2.074  1.00  0.00     0.000 A 
ENDBRANCH  13  15
ENDBRANCH   3  13
ENDBRANCH   1   2
BRANCH   1  21
ATOM     21  C   UNL     1       0.696   1.710  -0.890  1.00  0.00     0.110 C 
BRANCH  21  22
ATOM     22  N   UNL     1       1.980   1.228  -0.429  1.00  0.00    -0.229 NA
ATOM     23  H   UNL     1       2.194   1.717   0.441  1.00  0.00     0.148 HD
BRANCH  22  24
ATOM     24  N   UNL     1       2.105  -0.089  -0.190  1.00  0.00    -0.321 N 
ATOM     25  H   UNL     1       1.585  -0.727  -0.730  1.00  0.00     0.181 HD
BRANCH  24  26
ATOM     26  C   UNL     1       2.984  -0.588   0.842  1.00  0.00     0.049 A 
ATOM     27  C   UNL     1       3.441   0.081   1.899  1.00  0.00     0.027 A 
ATOM     28  C   UNL     1       3.455  -1.893   0.648  1.00  0.00     0.027 A 
ATOM     29  C   UNL     1       4.349  -0.456   2.790  1.00  0.00     0.002 A 
ATOM     30  C   UNL     1       4.349  -2.467   1.503  1.00  0.00     0.002 A 
ATOM     31  C   UNL     1       4.811  -1.773   2.581  1.00  0.00     0.000 A 
ENDBRANCH  24  26
ENDBRANCH  22  24
ENDBRANCH  21  22
BRANCH  21  32
ATOM     32  C   UNL     1       0.667   2.712  -1.925  1.00  0.00    -0.029 A 
ATOM     33  C   UNL     1       1.462   2.521  -3.088  1.00  0.00     0.007 A 
ATOM     34  C   UNL     1      -0.114   3.832  -1.928  1.00  0.00     0.007 A 
ATOM     35  C   UNL     1       1.458   3.379  -4.148  1.00  0.00     0.021 A 
ATOM     36  C   UNL     1      -0.129   4.723  -3.003  1.00  0.00     0.021 A 
ATOM     37  C   UNL     1       0.638   4.523  -4.115  1.00  0.00     0.041 A 
ATOM     38  Cl  UNL     1       0.646   5.618  -5.502  1.00  0.00    -0.084 Cl
ENDBRANCH  21  32
ENDBRANCH   1  21
TORSDOF 10
