REMARK SMILES CC1(C)[C@H](O)CC[C@]2(C)[C@@H]1CC(=O)[C@]13C=C(CO)[C@H](CC[C@@H]21)C3
REMARK SMILES IDX 1 1 2 2 3 3 4 4 6 5 7 6 8 7 9 8 10 9 11 10 12 11 13 12 14 13
REMARK SMILES IDX 15 14 16 15 19 16 20 17 21 18 22 19 23 20 5 21 17 23 18 24
REMARK H PARENT 5 22 18 25
ROOT
ATOM      1  C   UNL     1       3.324   2.202   0.010  1.00  0.00     0.014 C 
ATOM      2  C   UNL     1       2.917   0.703   0.048  1.00  0.00    -0.006 C 
ATOM      3  C   UNL     1       3.792  -0.005  -1.027  1.00  0.00     0.014 C 
ATOM      4  C   UNL     1       3.251   0.159   1.473  1.00  0.00     0.120 C 
ATOM      5  C   UNL     1       2.712  -1.268   1.697  1.00  0.00     0.033 C 
ATOM      6  C   UNL     1       1.186  -1.265   1.583  1.00  0.00     0.010 C 
ATOM      7  C   UNL     1       0.657  -0.792   0.193  1.00  0.00    -0.025 C 
ATOM      8  C   UNL     1       0.910  -1.905  -0.867  1.00  0.00     0.012 C 
ATOM      9  C   UNL     1       1.341   0.581  -0.180  1.00  0.00     0.011 C 
ATOM     10  C   UNL     1       0.898   1.054  -1.587  1.00  0.00     0.081 C 
ATOM     11  C   UNL     1      -0.580   0.953  -1.836  1.00  0.00     0.143 C 
ATOM     12  O   UNL     1      -1.015   1.458  -2.862  1.00  0.00    -0.299 OA
ATOM     13  C   UNL     1      -1.549   0.268  -0.890  1.00  0.00     0.051 C 
ATOM     14  C   UNL     1      -2.504   1.291  -0.345  1.00  0.00    -0.010 C 
ATOM     15  C   UNL     1      -3.697   0.750  -0.143  1.00  0.00    -0.045 C 
ATOM     16  C   UNL     1      -3.688  -0.692  -0.559  1.00  0.00     0.018 C 
ATOM     17  C   UNL     1      -3.267  -1.545   0.671  1.00  0.00     0.008 C 
ATOM     18  C   UNL     1      -1.740  -1.754   0.737  1.00  0.00     0.006 C 
ATOM     19  C   UNL     1      -0.896  -0.492   0.347  1.00  0.00     0.013 C 
ATOM     20  C   UNL     1      -2.569  -0.648  -1.620  1.00  0.00     0.027 C 
ENDROOT
BRANCH   4  21
ATOM     21  O   UNL     1       4.630   0.235   1.756  1.00  0.00    -0.393 OA
ATOM     22  H   UNL     1       5.076  -0.554   1.351  1.00  0.00     0.210 HD
ENDBRANCH   4  21
BRANCH  15  23
ATOM     23  C   UNL     1      -4.884   1.445   0.475  1.00  0.00     0.187 C 
BRANCH  23  24
ATOM     24  O   UNL     1      -4.600   2.782   0.791  1.00  0.00    -0.392 OA
ATOM     25  H   UNL     1      -4.101   2.772   1.650  1.00  0.00     0.211 HD
ENDBRANCH  23  24
ENDBRANCH  15  23
TORSDOF 3
