REMARK SMILES O=C(Nc1cccc(Cl)c1)Nc1cccc(Cl)c1
REMARK SMILES IDX 1 1 2 2 3 3 11 4 4 7 5 8 10 9 6 10 8 11 7 12 9 13 12 14
REMARK SMILES IDX 13 15 18 16 14 17 16 18 15 19 17 20
REMARK H PARENT 3 5 11 6
ROOT
ATOM      1  O   UNL     1       0.010  -0.087  -1.064  1.00  0.00    -0.248 OA
ATOM      2  C   UNL     1      -0.011  -0.122   0.150  1.00  0.00     0.323 C 
ATOM      3  N   UNL     1       1.157  -0.188   0.864  1.00  0.00    -0.308 N 
ATOM      4  N   UNL     1      -1.204  -0.095   0.826  1.00  0.00    -0.308 N 
ATOM      5  H   UNL     1       1.067  -0.214   1.892  1.00  0.00     0.171 HD
ATOM      6  H   UNL     1      -1.150  -0.128   1.856  1.00  0.00     0.171 HD
ENDROOT
BRANCH   3   7
ATOM      7  C   UNL     1       2.504  -0.225   0.352  1.00  0.00     0.044 A 
ATOM      8  C   UNL     1       2.843  -0.198  -1.025  1.00  0.00     0.026 A 
ATOM      9  C   UNL     1       3.558  -0.293   1.287  1.00  0.00     0.046 A 
ATOM     10  C   UNL     1       4.181  -0.238  -1.430  1.00  0.00     0.004 A 
ATOM     11  C   UNL     1       4.893  -0.332   0.874  1.00  0.00     0.043 A 
ATOM     12  C   UNL     1       5.203  -0.305  -0.486  1.00  0.00     0.020 A 
ATOM     13  Cl  UNL     1       6.180  -0.417   2.063  1.00  0.00    -0.084 Cl
ENDBRANCH   3   7
BRANCH   4  14
ATOM     14  C   UNL     1      -2.533  -0.028   0.272  1.00  0.00     0.044 A 
ATOM     15  C   UNL     1      -3.617  -0.013   1.173  1.00  0.00     0.026 A 
ATOM     16  C   UNL     1      -2.826   0.024  -1.115  1.00  0.00     0.046 A 
ATOM     17  C   UNL     1      -4.936   0.051   0.718  1.00  0.00     0.004 A 
ATOM     18  C   UNL     1      -4.151   0.088  -1.563  1.00  0.00     0.043 A 
ATOM     19  C   UNL     1      -5.204   0.102  -0.648  1.00  0.00     0.020 A 
ATOM     20  Cl  UNL     1      -4.493   0.152  -3.284  1.00  0.00    -0.084 Cl
ENDBRANCH   4  14
TORSDOF 2
