REMARK SMILES CCOc1ccc(NC(=O)c2ccccc2N2C(=O)[C@@H]3Cc4c([nH]c5ccccc45)[C@H](C)N3C2=O)cc1
REMARK SMILES IDX 4 1 5 2 6 3 7 4 36 5 37 6 3 7 2 8 1 9 8 10 9 11 10 12 11 14
REMARK SMILES IDX 12 15 16 16 13 17 15 18 14 19 17 20 18 21 34 22 19 23 20 24
REMARK SMILES IDX 33 25 35 26 21 27 31 28 22 29 23 30 30 31 24 32 29 33 25 34
REMARK SMILES IDX 28 35 26 36 27 37 32 38
REMARK H PARENT 8 13 24 39
ROOT
ATOM      1  C   UNL     1       6.252   1.702   0.410  1.00  0.00     0.119 A 
ATOM      2  C   UNL     1       6.639   0.601  -0.374  1.00  0.00     0.048 A 
ATOM      3  C   UNL     1       5.702  -0.365  -0.745  1.00  0.00     0.030 A 
ATOM      4  C   UNL     1       4.351  -0.262  -0.361  1.00  0.00     0.041 A 
ATOM      5  C   UNL     1       3.975   0.850   0.433  1.00  0.00     0.030 A 
ATOM      6  C   UNL     1       4.918   1.812   0.807  1.00  0.00     0.048 A 
ENDROOT
BRANCH   1   7
ATOM      7  O   UNL     1       7.117   2.678   0.796  1.00  0.00    -0.494 OA
BRANCH   7   8
ATOM      8  C   UNL     1       8.488   2.702   0.616  1.00  0.00     0.226 C 
ATOM      9  C   UNL     1       9.185   1.670   1.503  1.00  0.00     0.049 C 
ENDBRANCH   7   8
ENDBRANCH   1   7
BRANCH   4  10
ATOM     10  N   UNL     1       3.447  -1.293  -0.800  1.00  0.00    -0.322 N 
ATOM     11  C   UNL     1       2.075  -1.260  -0.754  1.00  0.00     0.257 C 
ATOM     12  O   UNL     1       1.517  -0.263  -0.336  1.00  0.00    -0.269 OA
ATOM     13  H   UNL     1       3.905  -2.100  -1.232  1.00  0.00     0.170 HD
BRANCH  11  14
ATOM     14  C   UNL     1       1.214  -2.383  -1.303  1.00  0.00     0.064 A 
ATOM     15  C   UNL     1       1.800  -3.548  -1.866  1.00  0.00     0.016 A 
ATOM     16  C   UNL     1      -0.217  -2.287  -1.337  1.00  0.00     0.066 A 
ATOM     17  C   UNL     1       1.019  -4.551  -2.442  1.00  0.00     0.001 A 
ATOM     18  C   UNL     1      -0.973  -3.304  -1.946  1.00  0.00     0.028 A 
ATOM     19  C   UNL     1      -0.362  -4.427  -2.489  1.00  0.00     0.002 A 
BRANCH  16  20
ATOM     20  N   UNL     1      -0.945  -1.198  -0.770  1.00  0.00    -0.229 N 
ATOM     21  C   UNL     1      -0.997  -0.861   0.539  1.00  0.00     0.258 C 
ATOM     22  C   UNL     1      -1.797  -0.390  -1.432  1.00  0.00     0.332 C 
ATOM     23  O   UNL     1      -0.380  -1.437   1.423  1.00  0.00    -0.272 OA
ATOM     24  C   UNL     1      -1.985   0.248   0.747  1.00  0.00     0.182 C 
ATOM     25  N   UNL     1      -2.398   0.513  -0.614  1.00  0.00    -0.303 N 
ATOM     26  O   UNL     1      -1.986  -0.464  -2.637  1.00  0.00    -0.247 OA
ATOM     27  C   UNL     1      -3.209  -0.238   1.567  1.00  0.00     0.073 C 
ATOM     28  C   UNL     1      -3.388   1.559  -0.903  1.00  0.00     0.132 C 
ATOM     29  C   UNL     1      -4.450   0.512   1.154  1.00  0.00    -0.015 A 
ATOM     30  C   UNL     1      -4.541   1.344   0.043  1.00  0.00     0.042 A 
ATOM     31  C   UNL     1      -5.707   0.492   1.713  1.00  0.00     0.003 A 
ATOM     32  N   UNL     1      -5.785   1.868  -0.061  1.00  0.00    -0.356 N 
ATOM     33  C   UNL     1      -6.214  -0.195   2.814  1.00  0.00     0.010 A 
ATOM     34  C   UNL     1      -6.492   1.329   0.952  1.00  0.00     0.046 A 
ATOM     35  C   UNL     1      -7.574  -0.015   3.127  1.00  0.00     0.001 A 
ATOM     36  C   UNL     1      -7.840   1.526   1.242  1.00  0.00     0.026 A 
ATOM     37  C   UNL     1      -8.383   0.840   2.344  1.00  0.00     0.002 A 
ATOM     38  C   UNL     1      -3.844   1.588  -2.368  1.00  0.00     0.038 C 
ATOM     39  H   UNL     1      -6.143   2.520  -0.793  1.00  0.00     0.166 HD
ENDBRANCH  16  20
ENDBRANCH  11  14
ENDBRANCH   4  10
TORSDOF 5
