REMARK SMILES CC(C)=CCOc1cccc2ccccc12
REMARK SMILES IDX 5 1 4 2 2 3 1 4 3 5 6 6 7 7 8 8 16 9 9 10 15 11 11 12 10 13
REMARK SMILES IDX 14 14 12 15 13 16
REMARK H PARENT
ROOT
ATOM      1  C   UNL     1       1.450  -0.543  -0.908  1.00  0.00     0.257 C 
ENDROOT
BRANCH   1   2
ATOM      2  C   UNL     1       2.591   0.434  -0.798  1.00  0.00     0.012 C 
ATOM      3  C   UNL     1       3.673   0.266  -0.006  1.00  0.00    -0.077 C 
ATOM      4  C   UNL     1       3.840  -0.948   0.878  1.00  0.00     0.039 C 
ATOM      5  C   UNL     1       4.740   1.330  -0.008  1.00  0.00     0.039 C 
ENDBRANCH   1   2
BRANCH   1   6
ATOM      6  O   UNL     1       0.282   0.077  -0.513  1.00  0.00    -0.489 OA
BRANCH   6   7
ATOM      7  C   UNL     1      -0.947  -0.505  -0.458  1.00  0.00     0.127 A 
ATOM      8  C   UNL     1      -1.144  -1.859  -0.807  1.00  0.00     0.047 A 
ATOM      9  C   UNL     1      -2.054   0.262  -0.034  1.00  0.00     0.024 A 
ATOM     10  C   UNL     1      -2.411  -2.436  -0.733  1.00  0.00     0.004 A 
ATOM     11  C   UNL     1      -1.908   1.616   0.325  1.00  0.00     0.012 A 
ATOM     12  C   UNL     1      -3.340  -0.335   0.036  1.00  0.00    -0.015 A 
ATOM     13  C   UNL     1      -3.506  -1.681  -0.314  1.00  0.00     0.009 A 
ATOM     14  C   UNL     1      -3.014   2.360   0.743  1.00  0.00     0.001 A 
ATOM     15  C   UNL     1      -4.442   0.426   0.458  1.00  0.00     0.009 A 
ATOM     16  C   UNL     1      -4.277   1.767   0.809  1.00  0.00     0.001 A 
ENDBRANCH   6   7
ENDBRANCH   1   6
TORSDOF 3
