REMARK SMILES C[C@H]1[C@H]2O[C@@H]3CC[C@]4(C=CC[C@@H](C)[C@]4(C)[C@H]13)O2
REMARK SMILES IDX 1 1 2 2 3 3 4 4 5 5 6 6 7 7 8 8 9 9 10 10 11 11 12 12 13 13
REMARK SMILES IDX 14 14 15 15 16 16 17 17
REMARK H PARENT
ROOT
ATOM      1  C   UNL     1      -2.774   1.908   0.844  1.00  0.00     0.013 C 
ATOM      2  C   UNL     1      -1.522   1.005   0.832  1.00  0.00     0.049 C 
ATOM      3  C   UNL     1      -1.837  -0.439   1.147  1.00  0.00     0.254 C 
ATOM      4  O   UNL     1      -2.642  -0.877   0.094  1.00  0.00    -0.349 OA
ATOM      5  C   UNL     1      -2.067  -0.283  -1.052  1.00  0.00     0.125 C 
ATOM      6  C   UNL     1      -1.514  -1.448  -1.854  1.00  0.00     0.036 C 
ATOM      7  C   UNL     1      -0.432  -2.190  -1.014  1.00  0.00     0.043 C 
ATOM      8  C   UNL     1       0.210  -1.290   0.100  1.00  0.00     0.095 C 
ATOM      9  C   UNL     1       1.508  -1.889   0.596  1.00  0.00     0.004 C 
ATOM     10  C   UNL     1       2.238  -1.179   1.473  1.00  0.00    -0.028 C 
ATOM     11  C   UNL     1       1.744   0.192   1.879  1.00  0.00     0.031 C 
ATOM     12  C   UNL     1       1.466   1.001   0.580  1.00  0.00    -0.001 C 
ATOM     13  C   UNL     1       2.852   1.445   0.032  1.00  0.00     0.008 C 
ATOM     14  C   UNL     1       0.495   0.166  -0.438  1.00  0.00     0.009 C 
ATOM     15  C   UNL     1       1.203   0.150  -1.838  1.00  0.00     0.015 C 
ATOM     16  C   UNL     1      -0.968   0.776  -0.563  1.00  0.00     0.035 C 
ATOM     17  O   UNL     1      -0.666  -1.259   1.252  1.00  0.00    -0.341 OA
ENDROOT
TORSDOF 0
