REMARK SMILES CC[C]CCCCC/C=C\CC[C]CC[C]CC(=O)OC[C@@H](COC(=O)CC[C]CC[C]C/C=C\C/C=C\CCCCC)OC(=O)CCCC[C]C/C=C\C/C=C\C/C=C\C/C=C\CC
REMARK SMILES IDX 22 1 44 2 45 3 46 4 47 5 48 6 49 7 50 8 51 9 52 10 53 11
REMARK SMILES IDX 54 12 55 13 56 14 57 15 58 16 59 17 60 18 61 19 62 20 63 21
REMARK SMILES IDX 64 22 65 23 23 24 24 25 25 26 26 27 27 28 28 29 29 30 30 31
REMARK SMILES IDX 31 32 32 33 33 34 34 35 35 36 36 37 37 38 38 39 39 40 40 41
REMARK SMILES IDX 41 42 42 43 43 44 21 45 20 46 18 47 19 48 17 49 16 50 15 51
REMARK SMILES IDX 14 52 13 53 12 54 11 55 10 56 9 57 8 58 7 59 6 60 5 61 4 62
REMARK SMILES IDX 3 63 2 64 1 65
REMARK H PARENT
ROOT
ATOM      1  C   UNL     1      15.750   9.093   0.000  1.00  0.00     0.251 C 
ENDROOT
BRANCH   1   2
ATOM      2  O   UNL     1      14.578   8.933  -0.733  1.00  0.00    -0.455 OA
BRANCH   2   3
ATOM      3  C   UNL     1      13.482   8.350  -0.171  1.00  0.00     0.306 C 
ATOM      4  O   UNL     1      13.210   8.548   1.006  1.00  0.00    -0.252 OA
BRANCH   3   5
ATOM      5  C   UNL     1      12.725   7.281  -0.921  1.00  0.00     0.123 C 
BRANCH   5   6
ATOM      6  C   UNL     1      13.069   5.913  -0.299  1.00  0.00     0.012 C 
BRANCH   6   7
ATOM      7  C   UNL     1      12.308   4.724  -0.915  1.00  0.00     0.001 C 
BRANCH   7   8
ATOM      8  C   UNL     1      12.857   3.415  -0.324  1.00  0.00     0.008 C 
BRANCH   8   9
ATOM      9  C   UNL     1      12.139   2.158  -0.839  1.00  0.00    -0.013 C 
BRANCH   9  10
ATOM     10  C   UNL     1      11.175   1.545   0.184  1.00  0.00     0.035 C 
BRANCH  10  11
ATOM     11  C   UNL     1      10.964   0.086  -0.148  1.00  0.00    -0.030 C 
ATOM     12  C   UNL     1       9.858  -0.680  -0.320  1.00  0.00    -0.027 C 
BRANCH  12  13
ATOM     13  C   UNL     1       8.350  -0.466  -0.270  1.00  0.00     0.054 C 
BRANCH  13  14
ATOM     14  C   UNL     1       7.736   0.887  -0.065  1.00  0.00    -0.027 C 
ATOM     15  C   UNL     1       6.414   1.169   0.027  1.00  0.00    -0.027 C 
BRANCH  15  16
ATOM     16  C   UNL     1       5.149   0.312  -0.025  1.00  0.00     0.054 C 
BRANCH  16  17
ATOM     17  C   UNL     1       5.204  -1.183  -0.222  1.00  0.00    -0.027 C 
ATOM     18  C   UNL     1       4.152  -2.037  -0.272  1.00  0.00    -0.027 C 
BRANCH  18  19
ATOM     19  C   UNL     1       2.640  -1.849  -0.164  1.00  0.00     0.054 C 
BRANCH  19  20
ATOM     20  C   UNL     1       2.025  -0.482   0.028  1.00  0.00    -0.027 C 
ATOM     21  C   UNL     1       0.704  -0.203   0.129  1.00  0.00    -0.031 C 
BRANCH  21  22
ATOM     22  C   UNL     1      -0.526  -1.099   0.089  1.00  0.00     0.023 C 
ATOM     23  C   UNL     1      -0.352  -2.605  -0.084  1.00  0.00     0.008 C 
ENDBRANCH  21  22
ENDBRANCH  19  20
ENDBRANCH  18  19
ENDBRANCH  16  17
ENDBRANCH  15  16
ENDBRANCH  13  14
ENDBRANCH  12  13
ENDBRANCH  10  11
ENDBRANCH   9  10
ENDBRANCH   8   9
ENDBRANCH   7   8
ENDBRANCH   6   7
ENDBRANCH   5   6
ENDBRANCH   3   5
ENDBRANCH   2   3
ENDBRANCH   1   2
BRANCH   1  24
ATOM     24  C   UNL     1      16.500  10.392   0.000  1.00  0.00     0.281 C 
BRANCH  24  25
ATOM     25  O   UNL     1      17.250  11.691   0.000  1.00  0.00    -0.462 OA
BRANCH  25  26
ATOM     26  C   UNL     1      17.084  13.070   0.026  1.00  0.00     0.305 C 
ATOM     27  O   UNL     1      15.956  13.536   0.054  1.00  0.00    -0.252 OA
BRANCH  26  28
ATOM     28  C   UNL     1      18.350  14.044   0.003  1.00  0.00     0.123 C 
BRANCH  28  29
ATOM     29  C   UNL     1      18.000  15.588   0.000  1.00  0.00     0.020 C 
BRANCH  29  30
ATOM     30  C   UNL     1      18.750  16.887   0.000  1.00  0.00    -0.017 C 
BRANCH  30  31
ATOM     31  C   UNL     1      19.500  18.186   0.000  1.00  0.00     0.009 C 
BRANCH  31  32
ATOM     32  C   UNL     1      20.250  19.486   0.000  1.00  0.00     0.009 C 
BRANCH  32  33
ATOM     33  C   UNL     1      21.000  20.785   0.000  1.00  0.00    -0.013 C 
BRANCH  33  34
ATOM     34  C   UNL     1      21.750  22.084   0.000  1.00  0.00     0.035 C 
BRANCH  34  35
ATOM     35  C   UNL     1      23.021  22.997  -0.010  1.00  0.00    -0.030 C 
ATOM     36  C   UNL     1      24.369  22.683  -0.037  1.00  0.00    -0.027 C 
BRANCH  36  37
ATOM     37  C   UNL     1      24.888  21.272  -0.066  1.00  0.00     0.054 C 
BRANCH  37  38
ATOM     38  C   UNL     1      26.370  20.812  -0.109  1.00  0.00    -0.027 C 
ATOM     39  C   UNL     1      27.723  21.137  -0.132  1.00  0.00    -0.031 C 
BRANCH  39  40
ATOM     40  C   UNL     1      28.849  22.211  -0.132  1.00  0.00     0.027 C 
BRANCH  40  41
ATOM     41  C   UNL     1      28.741  23.743  -0.068  1.00  0.00     0.004 C 
BRANCH  41  42
ATOM     42  C   UNL     1      30.188  24.450  -0.085  1.00  0.00     0.000 C 
BRANCH  42  43
ATOM     43  C   UNL     1      30.000  25.981   0.000  1.00  0.00    -0.003 C 
ATOM     44  C   UNL     1      30.750  27.280   0.000  1.00  0.00     0.004 C 
ENDBRANCH  42  43
ENDBRANCH  41  42
ENDBRANCH  40  41
ENDBRANCH  39  40
ENDBRANCH  37  38
ENDBRANCH  36  37
ENDBRANCH  34  35
ENDBRANCH  33  34
ENDBRANCH  32  33
ENDBRANCH  31  32
ENDBRANCH  30  31
ENDBRANCH  29  30
ENDBRANCH  28  29
ENDBRANCH  26  28
ENDBRANCH  25  26
ENDBRANCH  24  25
ENDBRANCH   1  24
BRANCH   1  45
ATOM     45  C   UNL     1      16.909   7.996  -0.522  1.00  0.00     0.281 C 
BRANCH  45  46
ATOM     46  O   UNL     1      18.295   8.092  -0.063  1.00  0.00    -0.462 OA
BRANCH  46  47
ATOM     47  C   UNL     1      19.407   7.216  -0.327  1.00  0.00     0.306 C 
ATOM     48  O   UNL     1      19.186   6.119  -0.815  1.00  0.00    -0.252 OA
BRANCH  47  49
ATOM     49  C   UNL     1      20.946   7.593   0.000  1.00  0.00     0.131 C 
BRANCH  49  50
ATOM     50  C   UNL     1      22.245   6.843   0.000  1.00  0.00    -0.006 C 
BRANCH  50  51
ATOM     51  C   UNL     1      23.544   6.093   0.000  1.00  0.00     0.009 C 
BRANCH  51  52
ATOM     52  C   UNL     1      24.843   5.343   0.000  1.00  0.00     0.009 C 
BRANCH  52  53
ATOM     53  C   UNL     1      26.142   4.593   0.000  1.00  0.00    -0.017 C 
BRANCH  53  54
ATOM     54  C   UNL     1      27.441   3.843   0.000  1.00  0.00     0.012 C 
BRANCH  54  55
ATOM     55  C   UNL     1      27.615   3.104  -1.326  1.00  0.00     0.027 C 
BRANCH  55  56
ATOM     56  C   UNL     1      28.861   2.249  -1.264  1.00  0.00    -0.031 C 
ATOM     57  C   UNL     1      28.899   0.899  -1.276  1.00  0.00    -0.031 C 
BRANCH  57  58
ATOM     58  C   UNL     1      27.703  -0.019  -1.372  1.00  0.00     0.027 C 
BRANCH  58  59
ATOM     59  C   UNL     1      27.441  -0.657   0.000  1.00  0.00     0.004 C 
BRANCH  59  60
ATOM     60  C   UNL     1      26.142  -1.407   0.000  1.00  0.00     0.000 C 
BRANCH  60  61
ATOM     61  C   UNL     1      24.843  -2.157   0.000  1.00  0.00     0.001 C 
BRANCH  61  62
ATOM     62  C   UNL     1      23.544  -2.907   0.000  1.00  0.00     0.008 C 
BRANCH  62  63
ATOM     63  C   UNL     1      22.245  -3.657   0.000  1.00  0.00    -0.018 C 
BRANCH  63  64
ATOM     64  C   UNL     1      20.946  -4.407   0.000  1.00  0.00     0.005 C 
ATOM     65  C   UNL     1      19.647  -5.157   0.000  1.00  0.00     0.004 C 
ENDBRANCH  63  64
ENDBRANCH  62  63
ENDBRANCH  61  62
ENDBRANCH  60  61
ENDBRANCH  59  60
ENDBRANCH  58  59
ENDBRANCH  57  58
ENDBRANCH  55  56
ENDBRANCH  54  55
ENDBRANCH  53  54
ENDBRANCH  52  53
ENDBRANCH  51  52
ENDBRANCH  50  51
ENDBRANCH  49  50
ENDBRANCH  47  49
ENDBRANCH  46  47
ENDBRANCH  45  46
ENDBRANCH   1  45
TORSDOF 51
