REMARK SMILES C[C@@H]1CC[C@H]2[C@H](C)[C@H]3CC[C@]4(O)[C@@H](C[C@H]5[C@@H]4C[C@@H](O)[C@H]4C[C@@H](O)CC[C@]45C)[C@H]3CN2C1
REMARK SMILES IDX 1 1 2 2 3 3 4 4 5 5 6 6 7 7 8 8 9 9 10 10 11 11 16 12 17 13
REMARK SMILES IDX 18 14 20 15 21 16 22 17 24 18 25 19 26 20 27 21 15 22 14 23
REMARK SMILES IDX 13 24 28 25 29 26 30 27 31 28 12 29 19 31 23 33
REMARK H PARENT 12 30 19 32 23 34
ROOT
ATOM      1  C   UNL     1       4.711   1.817   3.124  1.00  0.00     0.009 C 
ATOM      2  C   UNL     1       4.298   0.378   2.756  1.00  0.00    -0.000 C 
ATOM      3  C   UNL     1       5.255  -0.294   1.762  1.00  0.00     0.006 C 
ATOM      4  C   UNL     1       5.199   0.431   0.424  1.00  0.00     0.020 C 
ATOM      5  C   UNL     1       3.764   0.466  -0.169  1.00  0.00     0.059 C 
ATOM      6  C   UNL     1       3.239  -0.833  -0.828  1.00  0.00     0.006 C 
ATOM      7  C   UNL     1       4.299  -1.585  -1.661  1.00  0.00     0.009 C 
ATOM      8  C   UNL     1       2.001  -0.450  -1.718  1.00  0.00    -0.002 C 
ATOM      9  C   UNL     1       1.138  -1.698  -1.984  1.00  0.00     0.007 C 
ATOM     10  C   UNL     1       0.074  -1.356  -3.016  1.00  0.00     0.036 C 
ATOM     11  C   UNL     1      -0.925  -0.282  -2.545  1.00  0.00     0.071 C 
ATOM     12  C   UNL     1      -2.141  -0.768  -1.715  1.00  0.00     0.027 C 
ATOM     13  C   UNL     1      -1.860  -1.787  -0.581  1.00  0.00     0.039 C 
ATOM     14  C   UNL     1      -3.172  -2.095   0.177  1.00  0.00     0.118 C 
ATOM     15  C   UNL     1      -3.783  -0.818   0.828  1.00  0.00     0.026 C 
ATOM     16  C   UNL     1      -3.008  -0.394   2.106  1.00  0.00     0.038 C 
ATOM     17  C   UNL     1      -3.631   0.864   2.731  1.00  0.00     0.114 C 
ATOM     18  C   UNL     1      -3.617   2.025   1.726  1.00  0.00     0.032 C 
ATOM     19  C   UNL     1      -4.435   1.648   0.481  1.00  0.00     0.010 C 
ATOM     20  C   UNL     1      -3.964   0.343  -0.236  1.00  0.00    -0.024 C 
ATOM     21  C   UNL     1      -5.136  -0.048  -1.191  1.00  0.00     0.012 C 
ATOM     22  C   UNL     1      -2.694   0.564  -1.161  1.00  0.00     0.002 C 
ATOM     23  C   UNL     1      -1.409   1.238  -0.654  1.00  0.00     0.011 C 
ATOM     24  C   UNL     1      -0.307   0.890  -1.706  1.00  0.00     0.026 C 
ATOM     25  C   UNL     1       1.169   0.747  -1.130  1.00  0.00     0.012 C 
ATOM     26  C   UNL     1       1.333   0.807   0.402  1.00  0.00     0.089 C 
ATOM     27  N   UNL     1       2.760   0.958   0.835  1.00  0.00    -0.300 NA
ATOM     28  C   UNL     1       2.879   0.325   2.178  1.00  0.00     0.088 C 
ENDROOT
BRANCH  11  29
ATOM     29  O   UNL     1      -1.473   0.300  -3.717  1.00  0.00    -0.389 OA
ATOM     30  H   UNL     1      -1.904  -0.413  -4.260  1.00  0.00     0.211 HD
ENDBRANCH  11  29
BRANCH  14  31
ATOM     31  O   UNL     1      -2.999  -3.122   1.125  1.00  0.00    -0.393 OA
ATOM     32  H   UNL     1      -2.141  -2.969   1.600  1.00  0.00     0.210 HD
ENDBRANCH  14  31
BRANCH  17  33
ATOM     33  O   UNL     1      -2.962   1.217   3.915  1.00  0.00    -0.393 OA
ATOM     34  H   UNL     1      -2.016   1.413   3.682  1.00  0.00     0.210 HD
ENDBRANCH  17  33
TORSDOF 3
