REMARK SMILES CCCNC(=O)C[C@@H]1C[C@H]2O[C@H](CNC(=O)NCc3ccccc3)[C@@H](O)[C@H]2O1
REMARK SMILES IDX 8 1 9 2 10 3 11 4 12 5 25 6 27 7 28 8 7 9 5 10 4 11 6 12
REMARK SMILES IDX 3 14 2 15 1 16 26 17 13 19 14 20 15 21 16 22 17 23 18 26
REMARK SMILES IDX 19 27 20 28 24 29 21 30 23 31 22 32
REMARK H PARENT 4 13 26 18 14 24 17 25
ROOT
ATOM      1  C   UNL     1       2.885   0.489   0.054  1.00  0.00     0.130 C 
ATOM      2  C   UNL     1       2.309  -0.923   0.221  1.00  0.00     0.067 C 
ATOM      3  C   UNL     1       1.260  -1.019  -0.873  1.00  0.00     0.153 C 
ATOM      4  O   UNL     1      -0.054  -1.038  -0.310  1.00  0.00    -0.367 OA
ATOM      5  C   UNL     1      -0.719   0.128  -0.759  1.00  0.00     0.169 C 
ATOM      6  C   UNL     1       0.016   0.554  -2.020  1.00  0.00     0.176 C 
ATOM      7  C   UNL     1       1.431   0.289  -1.621  1.00  0.00     0.179 C 
ATOM      8  O   UNL     1       1.924   1.220  -0.679  1.00  0.00    -0.369 OA
ENDROOT
BRANCH   1   9
ATOM      9  C   UNL     1       4.251   0.527  -0.687  1.00  0.00     0.132 C 
BRANCH   9  10
ATOM     10  C   UNL     1       5.389  -0.145   0.049  1.00  0.00     0.222 C 
ATOM     11  N   UNL     1       6.622  -0.175  -0.528  1.00  0.00    -0.356 N 
ATOM     12  O   UNL     1       5.201  -0.664   1.141  1.00  0.00    -0.275 OA
ATOM     13  H   UNL     1       6.745   0.253  -1.458  1.00  0.00     0.163 HD
BRANCH  11  14
ATOM     14  C   UNL     1       7.778  -0.818   0.077  1.00  0.00     0.115 C 
BRANCH  14  15
ATOM     15  C   UNL     1       8.218  -0.135   1.381  1.00  0.00     0.018 C 
ATOM     16  C   UNL     1       8.600   1.327   1.161  1.00  0.00     0.006 C 
ENDBRANCH  14  15
ENDBRANCH  11  14
ENDBRANCH   9  10
ENDBRANCH   1   9
BRANCH   6  17
ATOM     17  O   UNL     1      -0.238   1.870  -2.442  1.00  0.00    -0.388 OA
ATOM     18  H   UNL     1      -0.085   2.472  -1.668  1.00  0.00     0.211 HD
ENDBRANCH   6  17
BRANCH   5  19
ATOM     19  C   UNL     1      -2.201  -0.132  -1.067  1.00  0.00     0.152 C 
BRANCH  19  20
ATOM     20  N   UNL     1      -2.941  -0.619   0.085  1.00  0.00    -0.335 N 
ATOM     21  C   UNL     1      -4.271  -0.900  -0.021  1.00  0.00     0.315 C 
ATOM     22  O   UNL     1      -4.850  -0.698  -1.081  1.00  0.00    -0.249 OA
ATOM     23  N   UNL     1      -4.959  -1.426   1.036  1.00  0.00    -0.334 N 
ATOM     24  H   UNL     1      -2.454  -0.780   0.978  1.00  0.00     0.165 HD
ATOM     25  H   UNL     1      -4.461  -1.638   1.914  1.00  0.00     0.165 HD
BRANCH  23  26
ATOM     26  C   UNL     1      -6.364  -1.778   0.924  1.00  0.00     0.153 C 
BRANCH  26  27
ATOM     27  C   UNL     1      -7.221  -0.543   0.811  1.00  0.00    -0.029 A 
ATOM     28  C   UNL     1      -7.407   0.283   1.933  1.00  0.00     0.005 A 
ATOM     29  C   UNL     1      -7.849  -0.208  -0.401  1.00  0.00     0.005 A 
ATOM     30  C   UNL     1      -8.215   1.421   1.844  1.00  0.00     0.000 A 
ATOM     31  C   UNL     1      -8.641   0.942  -0.490  1.00  0.00     0.000 A 
ATOM     32  C   UNL     1      -8.827   1.753   0.633  1.00  0.00     0.000 A 
ENDBRANCH  26  27
ENDBRANCH  23  26
ENDBRANCH  19  20
ENDBRANCH   5  19
TORSDOF 9
