REMARK SMILES COC1=C[C@@H](c2ccccc2)c2ccccc21
REMARK SMILES IDX 3 1 4 2 5 3 12 4 13 5 14 6 15 7 16 8 17 9 2 10 1 11 6 12
REMARK SMILES IDX 7 13 11 14 8 15 10 16 9 17
REMARK H PARENT
ROOT
ATOM      1  C   UNL     1      -1.488  -1.101   0.783  1.00  0.00     0.123 C 
ATOM      2  C   UNL     1      -0.331  -1.093   1.448  1.00  0.00     0.033 C 
ATOM      3  C   UNL     1       0.425   0.191   1.222  1.00  0.00     0.076 C 
ATOM      4  C   UNL     1      -0.510   0.927   0.323  1.00  0.00    -0.026 A 
ATOM      5  C   UNL     1      -0.346   2.207  -0.210  1.00  0.00     0.005 A 
ATOM      6  C   UNL     1      -1.353   2.724  -1.034  1.00  0.00     0.000 A 
ATOM      7  C   UNL     1      -2.501   1.960  -1.310  1.00  0.00     0.001 A 
ATOM      8  C   UNL     1      -2.651   0.675  -0.764  1.00  0.00     0.012 A 
ATOM      9  C   UNL     1      -1.634   0.173   0.061  1.00  0.00     0.020 A 
ENDROOT
BRANCH   1  10
ATOM     10  O   UNL     1      -2.337  -2.162   0.827  1.00  0.00    -0.496 OA
ATOM     11  C   UNL     1      -3.540  -2.264   0.168  1.00  0.00     0.278 C 
ENDBRANCH   1  10
BRANCH   3  12
ATOM     12  C   UNL     1       1.766  -0.045   0.559  1.00  0.00    -0.037 A 
ATOM     13  C   UNL     1       2.930   0.518   1.110  1.00  0.00     0.004 A 
ATOM     14  C   UNL     1       1.871  -0.817  -0.617  1.00  0.00     0.004 A 
ATOM     15  C   UNL     1       4.172   0.317   0.498  1.00  0.00     0.000 A 
ATOM     16  C   UNL     1       3.116  -1.020  -1.219  1.00  0.00     0.000 A 
ATOM     17  C   UNL     1       4.265  -0.451  -0.663  1.00  0.00     0.000 A 
ENDBRANCH   3  12
TORSDOF 2
