REMARK SMILES C[C@]12CC[C@@H](O)C[C@@H]1CC[C@@H]1[C@H]2[C@@H](O)C[C@@]2(C)[C@@H]1[C@@H](O)C[C@@H]2C(=O)CO
REMARK SMILES IDX 23 1 24 2 22 3 2 4 3 5 8 6 12 7 4 8 7 9 9 10 11 11 13 12
REMARK SMILES IDX 5 13 10 14 18 15 15 16 16 17 19 18 21 19 1 20 17 21 14 22
REMARK SMILES IDX 6 24 20 26 25 28 26 29
REMARK H PARENT 14 23 6 25 20 27 26 30
ROOT
ATOM      1  C   UNL     1      -4.492   1.251   0.173  1.00  0.00     0.161 C 
ATOM      2  O   UNL     1      -4.421   2.019  -0.772  1.00  0.00    -0.297 OA
ENDROOT
BRANCH   1   3
ATOM      3  C   UNL     1      -3.397   0.244   0.456  1.00  0.00     0.067 C 
ATOM      4  C   UNL     1       2.378  -0.454  -0.491  1.00  0.00    -0.024 C 
ATOM      5  C   UNL     1       3.188   0.429  -1.526  1.00  0.00     0.010 C 
ATOM      6  C   UNL     1       2.700   0.009   0.977  1.00  0.00    -0.002 C 
ATOM      7  C   UNL     1       0.805  -0.357  -0.710  1.00  0.00     0.027 C 
ATOM      8  C   UNL     1       4.146   1.450  -0.873  1.00  0.00     0.032 C 
ATOM      9  C   UNL     1       4.216   0.048   1.285  1.00  0.00     0.036 C 
ATOM     10  C   UNL     1       1.933  -0.806   2.034  1.00  0.00     0.004 C 
ATOM     11  C   UNL     1       0.027  -1.192   0.367  1.00  0.00     0.001 C 
ATOM     12  C   UNL     1       0.247   1.137  -0.798  1.00  0.00     0.119 C 
ATOM     13  C   UNL     1       5.035   0.717   0.148  1.00  0.00     0.114 C 
ATOM     14  C   UNL     1       0.420  -0.718   1.801  1.00  0.00     0.005 C 
ATOM     15  C   UNL     1      -1.501  -1.207  -0.032  1.00  0.00     0.028 C 
ATOM     16  C   UNL     1      -1.191   1.344  -0.249  1.00  0.00     0.040 C 
ATOM     17  C   UNL     1      -2.147   0.158  -0.477  1.00  0.00    -0.015 C 
ATOM     18  C   UNL     1      -2.530  -1.910   0.902  1.00  0.00     0.119 C 
ATOM     19  C   UNL     1      -3.851  -1.219   0.537  1.00  0.00     0.044 C 
ATOM     20  C   UNL     1       2.848  -1.929  -0.706  1.00  0.00     0.012 C 
ATOM     21  C   UNL     1      -2.545   0.087  -1.989  1.00  0.00     0.012 C 
BRANCH  12  22
ATOM     22  O   UNL     1       0.355   1.685  -2.092  1.00  0.00    -0.393 OA
ATOM     23  H   UNL     1       0.119   1.000  -2.764  1.00  0.00     0.210 HD
ENDBRANCH  12  22
BRANCH  13  24
ATOM     24  O   UNL     1       6.031   1.558   0.674  1.00  0.00    -0.393 OA
ATOM     25  H   UNL     1       5.570   2.330   1.098  1.00  0.00     0.210 HD
ENDBRANCH  13  24
BRANCH  18  26
ATOM     26  O   UNL     1      -2.268  -1.630   2.249  1.00  0.00    -0.393 OA
ATOM     27  H   UNL     1      -2.917  -2.156   2.787  1.00  0.00     0.210 HD
ENDBRANCH  18  26
ENDBRANCH   1   3
BRANCH   1  28
ATOM     28  C   UNL     1      -5.642   1.355   1.140  1.00  0.00     0.231 C 
BRANCH  28  29
ATOM     29  O   UNL     1      -6.524   2.386   0.776  1.00  0.00    -0.389 OA
ATOM     30  H   UNL     1      -6.141   3.227   1.141  1.00  0.00     0.211 HD
ENDBRANCH  28  29
ENDBRANCH   1  28
TORSDOF 6
