REMARK SMILES CC[C@@H](C)[C@H](OC(=O)[C@@H](OC(=O)[C@@H](OC(=O)[C@@H](O)[C@@H](C)CC)[C@@H](C)CC)[C@H](C)CC)C(=O)O[C@H](C(=O)OC[C@H](O)[C@H](O)[C@H](O)[C@H](O)CO)C(C)C
REMARK SMILES IDX 31 1 32 2 5 3 3 4 4 5 2 6 1 7 6 8 7 9 8 10 9 11 10 12 11 13
REMARK SMILES IDX 12 14 13 15 14 16 15 17 16 18 17 19 18 20 19 22 20 23 21 24
REMARK SMILES IDX 22 25 23 26 24 27 25 28 26 29 27 30 28 31 29 32 30 33 33 34
REMARK SMILES IDX 34 35 35 36 36 37 37 38 38 39 39 40 40 41 41 43 42 44 43 46
REMARK SMILES IDX 44 47 45 49 46 50 47 52 48 53 49 55 50 56 51 57
REMARK H PARENT 18 21 40 42 42 45 44 48 46 51 48 54
ROOT
ATOM      1  C   UNL     1       2.111  -0.293  -0.669  1.00  0.00     0.348 C 
ATOM      2  O   UNL     1       2.147  -0.790   0.449  1.00  0.00    -0.248 OA
ENDROOT
BRANCH   1   3
ATOM      3  C   UNL     1       1.069   0.756  -0.988  1.00  0.00     0.288 C 
BRANCH   3   4
ATOM      4  C   UNL     1       1.710   2.126  -1.343  1.00  0.00     0.038 C 
ATOM      5  C   UNL     1       2.574   2.650  -0.176  1.00  0.00     0.012 C 
BRANCH   4   6
ATOM      6  C   UNL     1       0.586   3.130  -1.718  1.00  0.00     0.004 C 
ATOM      7  C   UNL     1       1.087   4.503  -2.164  1.00  0.00     0.004 C 
ENDBRANCH   4   6
ENDBRANCH   3   4
BRANCH   3   8
ATOM      8  O   UNL     1       0.224   0.928   0.101  1.00  0.00    -0.447 OA
BRANCH   8   9
ATOM      9  C   UNL     1      -1.134   0.848   0.080  1.00  0.00     0.348 C 
ATOM     10  O   UNL     1      -1.735   0.602  -0.957  1.00  0.00    -0.248 OA
BRANCH   9  11
ATOM     11  C   UNL     1      -1.892   1.139   1.353  1.00  0.00     0.288 C 
BRANCH  11  12
ATOM     12  O   UNL     1      -3.261   1.170   1.083  1.00  0.00    -0.447 OA
BRANCH  12  13
ATOM     13  C   UNL     1      -4.007   2.317   1.018  1.00  0.00     0.348 C 
ATOM     14  O   UNL     1      -3.503   3.401   1.283  1.00  0.00    -0.248 OA
BRANCH  13  15
ATOM     15  C   UNL     1      -5.433   2.296   0.509  1.00  0.00     0.288 C 
BRANCH  15  16
ATOM     16  O   UNL     1      -5.847   0.998   0.245  1.00  0.00    -0.448 OA
BRANCH  16  17
ATOM     17  C   UNL     1      -6.244   0.536  -0.975  1.00  0.00     0.336 C 
ATOM     18  O   UNL     1      -6.096   1.224  -1.975  1.00  0.00    -0.249 OA
BRANCH  17  19
ATOM     19  C   UNL     1      -6.851  -0.849  -1.099  1.00  0.00     0.226 C 
BRANCH  19  20
ATOM     20  O   UNL     1      -6.711  -1.511   0.133  1.00  0.00    -0.381 OA
ATOM     21  H   UNL     1      -7.326  -1.077   0.781  1.00  0.00     0.211 HD
ENDBRANCH  19  20
BRANCH  19  22
ATOM     22  C   UNL     1      -8.352  -0.854  -1.568  1.00  0.00     0.026 C 
ATOM     23  C   UNL     1      -8.564  -0.055  -2.871  1.00  0.00     0.011 C 
BRANCH  22  24
ATOM     24  C   UNL     1      -8.911  -2.285  -1.816  1.00  0.00     0.003 C 
ATOM     25  C   UNL     1      -8.969  -3.196  -0.589  1.00  0.00     0.004 C 
ENDBRANCH  22  24
ENDBRANCH  19  22
ENDBRANCH  17  19
ENDBRANCH  16  17
ENDBRANCH  15  16
BRANCH  15  26
ATOM     26  C   UNL     1      -6.441   3.011   1.459  1.00  0.00     0.038 C 
ATOM     27  C   UNL     1      -7.848   3.026   0.836  1.00  0.00     0.012 C 
BRANCH  26  28
ATOM     28  C   UNL     1      -6.481   2.487   2.917  1.00  0.00     0.004 C 
ATOM     29  C   UNL     1      -6.919   1.030   3.089  1.00  0.00     0.004 C 
ENDBRANCH  26  28
ENDBRANCH  15  26
ENDBRANCH  13  15
ENDBRANCH  12  13
ENDBRANCH  11  12
BRANCH  11  30
ATOM     30  C   UNL     1      -1.501   0.108   2.455  1.00  0.00     0.038 C 
ATOM     31  C   UNL     1      -1.838  -1.340   2.055  1.00  0.00     0.012 C 
BRANCH  30  32
ATOM     32  C   UNL     1      -2.039   0.457   3.865  1.00  0.00     0.004 C 
ATOM     33  C   UNL     1      -3.542   0.289   4.054  1.00  0.00     0.004 C 
ENDBRANCH  30  32
ENDBRANCH  11  30
ENDBRANCH   9  11
ENDBRANCH   8   9
ENDBRANCH   3   8
ENDBRANCH   1   3
BRANCH   1  34
ATOM     34  O   UNL     1       2.977  -0.706  -1.638  1.00  0.00    -0.447 OA
BRANCH  34  35
ATOM     35  C   UNL     1       4.068  -1.548  -1.431  1.00  0.00     0.288 C 
BRANCH  35  36
ATOM     36  C   UNL     1       5.308  -0.899  -2.017  1.00  0.00     0.347 C 
ATOM     37  O   UNL     1       5.217   0.159  -2.624  1.00  0.00    -0.248 OA
BRANCH  36  38
ATOM     38  O   UNL     1       6.524  -1.468  -1.810  1.00  0.00    -0.460 OA
BRANCH  38  39
ATOM     39  C   UNL     1       7.721  -0.949  -2.261  1.00  0.00     0.267 C 
BRANCH  39  40
ATOM     40  C   UNL     1       8.918  -1.789  -1.759  1.00  0.00     0.183 C 
BRANCH  40  41
ATOM     41  O   UNL     1       8.911  -3.067  -2.347  1.00  0.00    -0.387 OA
ATOM     42  H   UNL     1       8.121  -3.557  -2.005  1.00  0.00     0.211 HD
ENDBRANCH  40  41
BRANCH  40  43
ATOM     43  C   UNL     1       9.050  -1.898  -0.208  1.00  0.00     0.178 C 
BRANCH  43  44
ATOM     44  O   UNL     1       8.009  -2.679   0.331  1.00  0.00    -0.387 OA
ATOM     45  H   UNL     1       7.197  -2.115   0.399  1.00  0.00     0.211 HD
ENDBRANCH  43  44
BRANCH  43  46
ATOM     46  C   UNL     1       9.162  -0.511   0.497  1.00  0.00     0.176 C 
BRANCH  46  47
ATOM     47  O   UNL     1      10.208   0.235  -0.077  1.00  0.00    -0.388 OA
ATOM     48  H   UNL     1      11.054  -0.258   0.091  1.00  0.00     0.211 HD
ENDBRANCH  46  47
BRANCH  46  49
ATOM     49  C   UNL     1       9.361  -0.613   2.035  1.00  0.00     0.171 C 
BRANCH  49  50
ATOM     50  O   UNL     1       8.312  -1.330   2.639  1.00  0.00    -0.388 OA
ATOM     51  H   UNL     1       7.473  -0.820   2.487  1.00  0.00     0.211 HD
ENDBRANCH  49  50
BRANCH  49  52
ATOM     52  C   UNL     1       9.479   0.781   2.681  1.00  0.00     0.190 C 
BRANCH  52  53
ATOM     53  O   UNL     1       9.699   0.666   4.061  1.00  0.00    -0.394 OA
ATOM     54  H   UNL     1       8.807   0.550   4.483  1.00  0.00     0.210 HD
ENDBRANCH  52  53
ENDBRANCH  49  52
ENDBRANCH  46  49
ENDBRANCH  43  46
ENDBRANCH  40  43
ENDBRANCH  39  40
ENDBRANCH  38  39
ENDBRANCH  36  38
ENDBRANCH  35  36
BRANCH  35  55
ATOM     55  C   UNL     1       3.765  -2.949  -2.044  1.00  0.00     0.035 C 
ATOM     56  C   UNL     1       2.475  -3.527  -1.440  1.00  0.00     0.012 C 
ATOM     57  C   UNL     1       4.901  -3.962  -1.811  1.00  0.00     0.012 C 
ENDBRANCH  35  55
ENDBRANCH  34  35
ENDBRANCH   1  34
TORSDOF 35
