REMARK SMILES O=C1Nc2ccccc2O[C@H]1O[C@@H]1O[C@H](CO)[C@@H](O)[C@H](O)[C@H]1O
REMARK SMILES IDX 13 1 14 2 15 3 18 4 20 5 22 6 12 7 11 8 1 9 2 10 3 11 4 12
REMARK SMILES IDX 10 13 5 14 9 15 6 16 8 17 7 18 23 20 16 22 17 23 21 25 19 27
REMARK H PARENT 3 19 23 21 17 24 21 26 19 28
ROOT
ATOM      1  C   UNL     1      -0.927   0.730  -0.354  1.00  0.00     0.286 C 
ATOM      2  O   UNL     1      -1.888   0.957   0.688  1.00  0.00    -0.341 OA
ATOM      3  C   UNL     1      -3.226   0.938   0.230  1.00  0.00     0.178 C 
ATOM      4  C   UNL     1      -3.615  -0.475  -0.313  1.00  0.00     0.177 C 
ATOM      5  C   UNL     1      -2.440  -1.133  -1.107  1.00  0.00     0.179 C 
ATOM      6  C   UNL     1      -1.474  -0.046  -1.599  1.00  0.00     0.202 C 
ENDROOT
BRANCH   1   7
ATOM      7  O   UNL     1       0.115  -0.051   0.212  1.00  0.00    -0.303 OA
BRANCH   7   8
ATOM      8  C   UNL     1       1.276   0.704   0.512  1.00  0.00     0.401 C 
ATOM      9  O   UNL     1       1.044   0.454   2.853  1.00  0.00    -0.267 OA
ATOM     10  C   UNL     1       1.771   0.292   1.885  1.00  0.00     0.294 C 
ATOM     11  N   UNL     1       3.004  -0.248   2.054  1.00  0.00    -0.317 N 
ATOM     12  C   UNL     1       3.864  -0.449   0.948  1.00  0.00     0.084 A 
ATOM     13  O   UNL     1       2.210   0.491  -0.496  1.00  0.00    -0.453 OA
ATOM     14  C   UNL     1       5.132  -1.024   1.116  1.00  0.00     0.030 A 
ATOM     15  C   UNL     1       3.433  -0.067  -0.330  1.00  0.00     0.147 A 
ATOM     16  C   UNL     1       5.963  -1.220   0.008  1.00  0.00     0.002 A 
ATOM     17  C   UNL     1       4.267  -0.266  -1.437  1.00  0.00     0.049 A 
ATOM     18  C   UNL     1       5.530  -0.843  -1.267  1.00  0.00     0.004 A 
ATOM     19  H   UNL     1       3.316  -0.519   3.000  1.00  0.00     0.170 HD
ENDBRANCH   7   8
ENDBRANCH   1   7
BRANCH   6  20
ATOM     20  O   UNL     1      -2.159   0.817  -2.473  1.00  0.00    -0.385 OA
ATOM     21  H   UNL     1      -1.471   1.360  -2.940  1.00  0.00     0.211 HD
ENDBRANCH   6  20
BRANCH   3  22
ATOM     22  C   UNL     1      -4.157   1.372   1.372  1.00  0.00     0.191 C 
BRANCH  22  23
ATOM     23  O   UNL     1      -5.493   1.423   0.949  1.00  0.00    -0.394 OA
ATOM     24  H   UNL     1      -5.592   2.261   0.426  1.00  0.00     0.210 HD
ENDBRANCH  22  23
ENDBRANCH   3  22
BRANCH   5  25
ATOM     25  O   UNL     1      -1.739  -2.074  -0.322  1.00  0.00    -0.387 OA
ATOM     26  H   UNL     1      -1.680  -1.745   0.612  1.00  0.00     0.211 HD
ENDBRANCH   5  25
BRANCH   4  27
ATOM     27  O   UNL     1      -4.777  -0.381  -1.101  1.00  0.00    -0.387 OA
ATOM     28  H   UNL     1      -4.561   0.165  -1.901  1.00  0.00     0.211 HD
ENDBRANCH   4  27
TORSDOF 7
