REMARK SMILES C=C(C)CCC=CC
REMARK SMILES IDX 4 1 2 2 1 3 3 4 5 5 6 6 7 7 8 8
REMARK H PARENT
ROOT
ATOM      1  C   UNL     1      -0.786  -1.411   0.462  1.00  0.00     0.034 C 
ENDROOT
BRANCH   1   2
ATOM      2  C   UNL     1      -1.714  -0.247   0.143  1.00  0.00    -0.080 C 
ATOM      3  C   UNL     1      -1.442   1.036   0.442  1.00  0.00     0.007 C 
ATOM      4  C   UNL     1      -3.015  -0.585  -0.538  1.00  0.00     0.039 C 
ENDBRANCH   1   2
BRANCH   1   5
ATOM      5  C   UNL     1       0.588  -1.084   1.077  1.00  0.00     0.031 C 
BRANCH   5   6
ATOM      6  C   UNL     1       1.478  -0.360   0.099  1.00  0.00    -0.031 C 
ATOM      7  C   UNL     1       2.040   0.825   0.385  1.00  0.00    -0.035 C 
ATOM      8  C   UNL     1       2.923   1.538  -0.594  1.00  0.00     0.035 C 
ENDBRANCH   5   6
ENDBRANCH   1   5
TORSDOF 3
