REMARK SMILES CC1=C(/C=C/C(C)=C/C=C/C(C)=C/C=C/C=C(C)/C=C/C=C(\C)C=C/C=C(C)/C=C/[C@H](O[C@H]2O[C@@H](C)[C@H](O)[C@@H](O)[C@H]2O)C(C)(C)O)C(C)(C)C[C@@H](O)[C@@H]1O
REMARK SMILES IDX 19 1 20 2 17 3 16 4 18 5 15 6 14 7 13 8 11 9 12 10 10 11
REMARK SMILES IDX 9 12 8 13 6 14 7 15 5 16 4 17 3 18 2 19 53 20 47 21 51 22
REMARK SMILES IDX 50 23 1 24 48 25 49 26 54 27 52 29 21 31 22 32 23 33 24 34
REMARK SMILES IDX 25 35 26 36 27 37 28 38 29 39 30 40 31 41 32 42 33 43 34 44
REMARK SMILES IDX 41 45 35 46 39 47 37 48 36 49 42 50 40 52 38 54 43 56 44 57
REMARK SMILES IDX 45 58 46 59
REMARK H PARENT 54 28 52 30 42 51 40 53 38 55 46 60
ROOT
ATOM      1  C   UNL     1      -0.831  -0.119   0.025  1.00  0.00     0.003 C 
ATOM      2  C   UNL     1      -1.859   0.562   0.569  1.00  0.00     0.001 C 
ENDROOT
BRANCH   1   3
ATOM      3  C   UNL     1       0.602   0.284   0.270  1.00  0.00    -0.051 C 
ATOM      4  C   UNL     1       1.597  -0.454  -0.292  1.00  0.00     0.003 C 
ATOM      5  C   UNL     1       0.875   1.509   1.136  1.00  0.00     0.044 C 
BRANCH   4   6
ATOM      6  C   UNL     1       3.053  -0.161  -0.157  1.00  0.00     0.000 C 
ATOM      7  C   UNL     1       3.998  -0.946  -0.696  1.00  0.00     0.000 C 
BRANCH   7   8
ATOM      8  C   UNL     1       5.434  -0.583  -0.530  1.00  0.00     0.003 C 
ATOM      9  C   UNL     1       6.476  -1.312  -0.991  1.00  0.00    -0.051 C 
ATOM     10  C   UNL     1       6.219  -2.609  -1.734  1.00  0.00     0.044 C 
BRANCH   9  11
ATOM     11  C   UNL     1       7.856  -0.777  -0.729  1.00  0.00     0.003 C 
ATOM     12  C   UNL     1       9.007  -1.403  -1.036  1.00  0.00     0.001 C 
BRANCH  12  13
ATOM     13  C   UNL     1      10.325  -0.778  -0.726  1.00  0.00     0.003 C 
ATOM     14  C   UNL     1      11.520  -1.385  -0.938  1.00  0.00    -0.051 C 
ATOM     15  C   UNL     1      11.551  -2.786  -1.529  1.00  0.00     0.044 C 
BRANCH  14  16
ATOM     16  C   UNL     1      12.766  -0.623  -0.569  1.00  0.00     0.004 C 
ATOM     17  C   UNL     1      14.018  -1.139  -0.580  1.00  0.00     0.004 C 
BRANCH  17  18
ATOM     18  C   UNL     1      15.320  -0.422  -0.274  1.00  0.00    -0.041 C 
ATOM     19  C   UNL     1      15.424   0.705   0.524  1.00  0.00    -0.039 C 
ATOM     20  C   UNL     1      16.729   1.491   0.665  1.00  0.00     0.169 C 
ATOM     21  C   UNL     1      16.583  -1.041  -0.957  1.00  0.00    -0.008 C 
ATOM     22  C   UNL     1      17.772   1.171  -0.429  1.00  0.00     0.148 C 
ATOM     23  C   UNL     1      17.910  -0.338  -0.531  1.00  0.00     0.046 C 
ATOM     24  C   UNL     1      14.317   1.250   1.404  1.00  0.00     0.043 C 
ATOM     25  C   UNL     1      16.769  -2.532  -0.561  1.00  0.00     0.016 C 
ATOM     26  C   UNL     1      16.403  -0.982  -2.495  1.00  0.00     0.016 C 
BRANCH  20  27
ATOM     27  O   UNL     1      17.276   1.318   1.953  1.00  0.00    -0.386 OA
ATOM     28  H   UNL     1      17.234   0.355   2.189  1.00  0.00     0.211 HD
ENDBRANCH  20  27
BRANCH  22  29
ATOM     29  O   UNL     1      17.454   1.730  -1.684  1.00  0.00    -0.390 OA
ATOM     30  H   UNL     1      16.506   2.022  -1.694  1.00  0.00     0.211 HD
ENDBRANCH  22  29
ENDBRANCH  17  18
ENDBRANCH  14  16
ENDBRANCH  12  13
ENDBRANCH   9  11
ENDBRANCH   7   8
ENDBRANCH   4   6
ENDBRANCH   1   3
BRANCH   2  31
ATOM     31  C   UNL     1      -3.299   0.239   0.344  1.00  0.00     0.003 C 
ATOM     32  C   UNL     1      -4.330   0.921   0.921  1.00  0.00    -0.051 C 
ATOM     33  C   UNL     1      -4.115   2.078   1.896  1.00  0.00     0.044 C 
BRANCH  32  34
ATOM     34  C   UNL     1      -5.751   0.544   0.583  1.00  0.00     0.003 C 
ATOM     35  C   UNL     1      -6.801   1.200   1.124  1.00  0.00     0.001 C 
BRANCH  35  36
ATOM     36  C   UNL     1      -8.229   0.929   0.795  1.00  0.00     0.003 C 
ATOM     37  C   UNL     1      -9.278   1.624   1.326  1.00  0.00    -0.051 C 
ATOM     38  C   UNL     1      -9.115   2.735   2.360  1.00  0.00     0.044 C 
BRANCH  37  39
ATOM     39  C   UNL     1     -10.669   1.307   0.858  1.00  0.00     0.002 C 
ATOM     40  C   UNL     1     -11.743   2.021   1.266  1.00  0.00     0.008 C 
BRANCH  40  41
ATOM     41  C   UNL     1     -13.173   1.806   0.812  1.00  0.00     0.175 C 
BRANCH  41  42
ATOM     42  O   UNL     1     -13.265   0.662  -0.031  1.00  0.00    -0.339 OA
BRANCH  42  43
ATOM     43  C   UNL     1     -14.151  -0.341   0.453  1.00  0.00     0.282 C 
ATOM     44  O   UNL     1     -15.305  -0.430  -0.390  1.00  0.00    -0.344 OA
ATOM     45  C   UNL     1     -13.371  -1.663   0.712  1.00  0.00     0.202 C 
ATOM     46  C   UNL     1     -15.307  -1.497  -1.321  1.00  0.00     0.150 C 
ATOM     47  C   UNL     1     -14.401  -2.786   0.735  1.00  0.00     0.179 C 
ATOM     48  C   UNL     1     -15.069  -2.895  -0.656  1.00  0.00     0.174 C 
ATOM     49  C   UNL     1     -14.393  -1.174  -2.517  1.00  0.00     0.041 C 
BRANCH  45  50
ATOM     50  O   UNL     1     -12.404  -1.900  -0.279  1.00  0.00    -0.385 OA
ATOM     51  H   UNL     1     -11.675  -2.429   0.140  1.00  0.00     0.211 HD
ENDBRANCH  45  50
BRANCH  47  52
ATOM     52  O   UNL     1     -13.857  -4.015   1.148  1.00  0.00    -0.387 OA
ATOM     53  H   UNL     1     -13.182  -4.290   0.476  1.00  0.00     0.211 HD
ENDBRANCH  47  52
BRANCH  48  54
ATOM     54  O   UNL     1     -16.266  -3.626  -0.544  1.00  0.00    -0.388 OA
ATOM     55  H   UNL     1     -16.903  -3.075  -0.017  1.00  0.00     0.211 HD
ENDBRANCH  48  54
ENDBRANCH  42  43
ENDBRANCH  41  42
BRANCH  41  56
ATOM     56  C   UNL     1     -13.712   3.069   0.065  1.00  0.00     0.089 C 
ATOM     57  C   UNL     1     -12.932   3.325  -1.249  1.00  0.00     0.045 C 
ATOM     58  C   UNL     1     -15.196   2.881  -0.287  1.00  0.00     0.045 C 
BRANCH  56  59
ATOM     59  O   UNL     1     -13.634   4.196   0.912  1.00  0.00    -0.387 OA
ATOM     60  H   UNL     1     -12.712   4.562   0.882  1.00  0.00     0.211 HD
ENDBRANCH  56  59
ENDBRANCH  41  56
ENDBRANCH  40  41
ENDBRANCH  37  39
ENDBRANCH  35  36
ENDBRANCH  32  34
ENDBRANCH   2  31
TORSDOF 21
