REMARK SMILES CC1=CC(=O)C(=C(C)C)C[C@H]2[C@@H]1C[CH][C@]2(C)O
REMARK SMILES IDX 1 1 2 2 3 3 12 4 11 5 13 6 15 7 14 8 16 9 10 10 17 12 4 14
REMARK SMILES IDX 5 15 6 16 7 17 8 18 9 19
REMARK H PARENT 17 13
REMARK Flexibility Score:    8.900
ROOT
ATOM      1  C   UNL     1      -1.990   2.774  -1.372  1.00  0.00     0.040 C 
ATOM      2  C   UNL     1      -1.115   1.660  -0.810  1.00  0.00    -0.066 C 
ATOM      3  C   UNL     1      -0.189   1.152  -1.659  1.00  0.00     0.051 C 
ENDROOT
BRANCH   2   4
ATOM      4  C   UNL     1      -1.343   1.273   0.658  1.00  0.00     0.021 C 
ATOM      5  C   UNL     1      -0.783  -0.077   1.098  1.00  0.00     0.033 C 
ATOM      6  C   UNL     1      -2.845   1.016   0.965  1.00  0.00     0.015 C 
ATOM      7  C   UNL     1      -1.756  -1.167   0.553  1.00  0.00     0.069 C 
ATOM      8  C   UNL     1      -3.055  -0.415   0.598  1.00  0.00     0.027 C 
ATOM      9  C   UNL     1      -1.520  -1.709  -0.866  1.00  0.00     0.042 C 
BRANCH   5  10
ATOM     10  C   UNL     1       0.722  -0.334   1.084  1.00  0.00     0.046 CG0
ATOM     11  G   UNL     1       1.533  -0.294  -0.193  1.00  0.00     0.000 G0
ENDBRANCH   5  10
BRANCH   7  12
ATOM     12  O   UNL     1      -1.755  -2.247   1.459  1.00  0.00    -0.390 OA
ATOM     13  H   UNL     1      -2.564  -2.796   1.284  1.00  0.00     0.211 HD
ENDBRANCH   7  12
ENDBRANCH   2   4
BRANCH   3  14
ATOM     14  C   UNL     1       0.926   0.180  -1.488  1.00  0.00     0.181 C 
ATOM     15  O   UNL     1       1.426  -0.190  -2.537  1.00  0.00    -0.290 OA
BRANCH  14  16
ATOM     16  C   UNL     1       1.533  -0.294  -0.193  1.00  0.00    -0.002 CG0
ATOM     17  C   UNL     1       2.868  -0.683  -0.103  1.00  0.00    -0.069 C 
ATOM     18  C   UNL     1       3.510  -1.176   1.189  1.00  0.00     0.039 C 
ATOM     19  C   UNL     1       3.893  -0.637  -1.229  1.00  0.00     0.039 C 
ATOM     20  G   UNL     1       0.722  -0.334   1.084  1.00  0.00     0.000 G0
ENDBRANCH  14  16
ENDBRANCH   3  14
TORSDOF 1
