REMARK SMILES Oc1ccc(-c2cc(Cl)ccc2Cl)cc1
REMARK SMILES IDX 2 1 3 2 4 3 5 4 14 5 15 6 1 7 6 9 7 10 12 11 8 12 11 13
REMARK SMILES IDX 10 14 13 15 9 16
REMARK H PARENT 1 8
ROOT
ATOM      1  C   UNL     1       3.335   0.051   0.233  1.00  0.00     0.115 A 
ATOM      2  C   UNL     1       2.738  -0.547  -0.881  1.00  0.00     0.047 A 
ATOM      3  C   UNL     1       1.347  -0.552  -1.020  1.00  0.00     0.012 A 
ATOM      4  C   UNL     1       0.515   0.041  -0.045  1.00  0.00    -0.017 A 
ATOM      5  C   UNL     1       1.140   0.626   1.081  1.00  0.00     0.012 A 
ATOM      6  C   UNL     1       2.531   0.635   1.212  1.00  0.00     0.047 A 
ENDROOT
BRANCH   1   7
ATOM      7  O   UNL     1       4.676   0.064   0.377  1.00  0.00    -0.508 OA
ATOM      8  H   UNL     1       5.267  -0.333  -0.279  1.00  0.00     0.293 HD
ENDBRANCH   1   7
BRANCH   4   9
ATOM      9  C   UNL     1      -0.987   0.037  -0.163  1.00  0.00     0.002 A 
ATOM     10  C   UNL     1      -1.760  -0.020   1.022  1.00  0.00     0.030 A 
ATOM     11  C   UNL     1      -1.688   0.091  -1.406  1.00  0.00     0.048 A 
ATOM     12  C   UNL     1      -3.156  -0.041   0.982  1.00  0.00     0.041 A 
ATOM     13  C   UNL     1      -3.090   0.076  -1.424  1.00  0.00     0.023 A 
ATOM     14  C   UNL     1      -3.818   0.005  -0.240  1.00  0.00     0.022 A 
ATOM     15  Cl  UNL     1      -0.915   0.262  -2.981  1.00  0.00    -0.084 Cl
ATOM     16  Cl  UNL     1      -4.076  -0.130   2.473  1.00  0.00    -0.084 Cl
ENDBRANCH   4   9
TORSDOF 2
