REMARK SMILES C[C@@H]1O[C@@H](O[C@H]2[C@H](OC(=O)[C@]34CCC(C)(C)C[C@H]3C3=CC[C@@H]5[C@@]6(C)C[C@H](O)[C@H](O[C@@H]7C[C@H](CO)[C@@H](O)[C@H](O)[C@H]7O)C(CO)(CO)[C@@H]6CC[C@@]5(C)[C@]3(C)C[C@H]4O)OC[C@H](O)[C@@H]2O)[C@H](O)[C@H](O)[C@H]1O[C@@H]1OC[C@@H](O)[C@H](O)[C@H]1O
REMARK SMILES IDX 8 1 7 2 6 3 60 4 56 5 58 6 57 7 5 8 4 9 2 10 3 11 66 12
REMARK SMILES IDX 64 13 62 14 1 15 67 16 68 17 69 18 75 19 70 20 73 21 71 22
REMARK SMILES IDX 76 23 74 25 72 27 65 29 63 31 61 33 59 35 9 37 10 38 11 39
REMARK SMILES IDX 12 40 18 41 54 42 13 43 17 44 19 45 53 46 14 47 20 48 51 49
REMARK SMILES IDX 21 50 49 51 22 52 48 53 23 54 47 55 25 56 46 57 26 58 41 59
REMARK SMILES IDX 28 60 15 61 16 62 52 63 50 64 24 65 55 66 27 68 42 70 43 71
REMARK SMILES IDX 44 73 45 74 29 76 30 77 31 78 39 79 32 80 37 81 35 82 40 83
REMARK SMILES IDX 33 85 34 86 38 88 36 90
REMARK H PARENT 76 24 74 26 72 28 65 30 63 32 61 34 59 36 55 67 27 69 43 72
REMARK H PARENT 45 75 40 84 34 87 38 89 36 91
ROOT
ATOM      1  O   UNL     1       3.133  -1.161  -1.221  1.00  0.00    -0.432 OA
ENDROOT
BRANCH   1   2
ATOM      2  C   UNL     1       3.700  -0.367  -2.198  1.00  0.00     0.342 C 
ATOM      3  C   UNL     1       5.109  -0.926  -2.597  1.00  0.00     0.222 C 
ATOM      4  C   UNL     1       5.398  -0.409  -4.015  1.00  0.00     0.180 C 
ATOM      5  O   UNL     1       2.772  -0.227  -3.280  1.00  0.00    -0.338 OA
ATOM      6  C   UNL     1       4.317  -0.932  -5.006  1.00  0.00     0.172 C 
ATOM      7  C   UNL     1       2.986  -1.199  -4.270  1.00  0.00     0.199 C 
BRANCH   3   8
ATOM      8  O   UNL     1       6.083  -0.415  -1.698  1.00  0.00    -0.337 OA
BRANCH   8   9
ATOM      9  C   UNL     1       6.665  -1.380  -0.833  1.00  0.00     0.282 C 
ATOM     10  C   UNL     1       7.746  -0.685   1.251  1.00  0.00     0.150 C 
ATOM     11  O   UNL     1       6.555  -0.839   0.487  1.00  0.00    -0.344 OA
ATOM     12  C   UNL     1       9.008  -0.167   0.476  1.00  0.00     0.181 C 
ATOM     13  C   UNL     1       8.926  -0.401  -1.044  1.00  0.00     0.180 C 
ATOM     14  C   UNL     1       8.108  -1.651  -1.349  1.00  0.00     0.202 C 
ATOM     15  C   UNL     1       8.001  -1.946   2.101  1.00  0.00     0.041 C 
BRANCH  12  16
ATOM     16  O   UNL     1       9.169   1.234   0.700  1.00  0.00    -0.341 OA
BRANCH  16  17
ATOM     17  C   UNL     1      10.473   1.611   1.130  1.00  0.00     0.282 C 
ATOM     18  O   UNL     1      10.325   2.224   2.419  1.00  0.00    -0.347 OA
ATOM     19  C   UNL     1      11.094   2.553   0.029  1.00  0.00     0.202 C 
ATOM     20  C   UNL     1      11.298   3.220   2.648  1.00  0.00     0.198 C 
ATOM     21  C   UNL     1      10.602   3.986   0.295  1.00  0.00     0.179 C 
ATOM     22  C   UNL     1      11.079   4.440   1.714  1.00  0.00     0.171 C 
BRANCH  19  23
ATOM     23  O   UNL     1      12.501   2.554   0.076  1.00  0.00    -0.385 OA
ATOM     24  H   UNL     1      12.809   1.612   0.059  1.00  0.00     0.211 HD
ENDBRANCH  19  23
BRANCH  21  25
ATOM     25  O   UNL     1       9.196   4.034   0.170  1.00  0.00    -0.387 OA
ATOM     26  H   UNL     1       8.777   3.803   1.040  1.00  0.00     0.211 HD
ENDBRANCH  21  25
BRANCH  22  27
ATOM     27  O   UNL     1      12.255   5.210   1.657  1.00  0.00    -0.388 OA
ATOM     28  H   UNL     1      12.969   4.656   1.242  1.00  0.00     0.211 HD
ENDBRANCH  22  27
ENDBRANCH  16  17
ENDBRANCH  12  16
BRANCH  13  29
ATOM     29  O   UNL     1      10.203  -0.431  -1.631  1.00  0.00    -0.387 OA
ATOM     30  H   UNL     1      10.682  -1.223  -1.274  1.00  0.00     0.211 HD
ENDBRANCH  13  29
BRANCH  14  31
ATOM     31  O   UNL     1       8.693  -2.779  -0.756  1.00  0.00    -0.385 OA
ATOM     32  H   UNL     1       8.232  -3.573  -1.132  1.00  0.00     0.211 HD
ENDBRANCH  14  31
ENDBRANCH   8   9
ENDBRANCH   3   8
BRANCH   4  33
ATOM     33  O   UNL     1       6.700  -0.682  -4.463  1.00  0.00    -0.387 OA
ATOM     34  H   UNL     1       6.840  -1.662  -4.391  1.00  0.00     0.211 HD
ENDBRANCH   4  33
BRANCH   6  35
ATOM     35  O   UNL     1       4.715  -2.097  -5.684  1.00  0.00    -0.388 OA
ATOM     36  H   UNL     1       4.861  -2.810  -5.008  1.00  0.00     0.211 HD
ENDBRANCH   6  35
ENDBRANCH   1   2
BRANCH   1  37
ATOM     37  C   UNL     1       2.699  -0.749  -0.006  1.00  0.00     0.317 C 
ATOM     38  O   UNL     1       2.937   0.396   0.363  1.00  0.00    -0.251 OA
BRANCH  37  39
ATOM     39  C   UNL     1       1.921  -1.736   0.895  1.00  0.00     0.100 C 
ATOM     40  C   UNL     1       2.946  -2.855   1.325  1.00  0.00     0.023 C 
ATOM     41  C   UNL     1       0.744  -2.335   0.004  1.00  0.00     0.036 C 
ATOM     42  C   UNL     1       1.385  -0.974   2.181  1.00  0.00     0.133 C 
ATOM     43  C   UNL     1       3.012  -3.978   0.290  1.00  0.00     0.008 C 
ATOM     44  C   UNL     1       0.409  -3.790   0.373  1.00  0.00     0.015 C 
ATOM     45  C   UNL     1      -0.503  -1.438  -0.129  1.00  0.00    -0.063 C 
ATOM     46  C   UNL     1       0.298   0.052   1.783  1.00  0.00     0.044 C 
ATOM     47  C   UNL     1       1.645  -4.742   0.183  1.00  0.00    -0.035 C 
ATOM     48  C   UNL     1      -1.239  -1.536  -1.272  1.00  0.00    -0.027 C 
ATOM     49  C   UNL     1      -0.950  -0.520   1.018  1.00  0.00    -0.003 C 
ATOM     50  C   UNL     1      -2.512  -0.762  -1.579  1.00  0.00     0.032 C 
ATOM     51  C   UNL     1      -1.858   0.696   0.424  1.00  0.00    -0.020 C 
ATOM     52  C   UNL     1      -3.061   0.056  -0.383  1.00  0.00     0.006 C 
ATOM     53  C   UNL     1      -2.398   1.571   1.593  1.00  0.00     0.008 C 
ATOM     54  C   UNL     1      -4.349   0.970  -0.685  1.00  0.00    -0.023 C 
ATOM     55  C   UNL     1      -3.570   2.480   1.225  1.00  0.00     0.005 C 
ATOM     56  C   UNL     1      -5.518   0.041  -1.165  1.00  0.00     0.042 C 
ATOM     57  C   UNL     1      -4.754   1.604   0.716  1.00  0.00     0.009 C 
ATOM     58  C   UNL     1      -6.926   0.686  -1.142  1.00  0.00     0.144 C 
ATOM     59  C   UNL     1      -6.213   2.227   0.868  1.00  0.00     0.049 C 
ATOM     60  C   UNL     1      -7.245   1.186   0.283  1.00  0.00     0.158 C 
ATOM     61  C   UNL     1       1.597  -5.412  -1.206  1.00  0.00     0.011 C 
ATOM     62  C   UNL     1       1.558  -5.854   1.255  1.00  0.00     0.011 C 
ATOM     63  C   UNL     1      -1.739  -1.446   2.016  1.00  0.00     0.017 C 
ATOM     64  C   UNL     1      -0.995   1.620  -0.507  1.00  0.00     0.012 C 
ATOM     65  C   UNL     1      -4.094   2.012  -1.822  1.00  0.00     0.012 C 
BRANCH  42  66
ATOM     66  O   UNL     1       0.912  -1.757   3.253  1.00  0.00    -0.392 OA
ATOM     67  H   UNL     1       0.881  -2.710   3.022  1.00  0.00     0.210 HD
ENDBRANCH  42  66
BRANCH  58  68
ATOM     68  O   UNL     1      -7.066   1.696  -2.103  1.00  0.00    -0.390 OA
ATOM     69  H   UNL     1      -8.038   1.867  -2.211  1.00  0.00     0.211 HD
ENDBRANCH  58  68
BRANCH  59  70
ATOM     70  C   UNL     1      -6.603   2.340   2.393  1.00  0.00     0.168 C 
BRANCH  70  71
ATOM     71  O   UNL     1      -5.814   3.231   3.132  1.00  0.00    -0.396 OA
ATOM     72  H   UNL     1      -5.346   2.703   3.833  1.00  0.00     0.210 HD
ENDBRANCH  70  71
ENDBRANCH  59  70
BRANCH  59  73
ATOM     73  C   UNL     1      -6.390   3.632   0.212  1.00  0.00     0.168 C 
BRANCH  73  74
ATOM     74  O   UNL     1      -5.510   4.582   0.755  1.00  0.00    -0.396 OA
ATOM     75  H   UNL     1      -6.018   5.111   1.425  1.00  0.00     0.210 HD
ENDBRANCH  73  74
ENDBRANCH  59  73
BRANCH  60  76
ATOM     76  O   UNL     1      -8.568   1.722   0.327  1.00  0.00    -0.369 OA
BRANCH  76  77
ATOM     77  C   UNL     1      -9.521   0.886   0.979  1.00  0.00     0.150 C 
ATOM     78  C   UNL     1     -10.372   0.174  -0.116  1.00  0.00     0.043 C 
ATOM     79  C   UNL     1     -10.392   1.741   1.979  1.00  0.00     0.174 C 
ATOM     80  C   UNL     1     -11.711  -0.310   0.453  1.00  0.00     0.049 C 
ATOM     81  C   UNL     1     -11.752   2.154   1.368  1.00  0.00     0.174 C 
ATOM     82  C   UNL     1     -12.581   0.909   0.914  1.00  0.00     0.151 C 
BRANCH  79  83
ATOM     83  O   UNL     1     -10.604   1.084   3.211  1.00  0.00    -0.388 OA
ATOM     84  H   UNL     1     -10.702   0.111   3.067  1.00  0.00     0.211 HD
ENDBRANCH  79  83
BRANCH  80  85
ATOM     85  C   UNL     1     -12.480  -1.206  -0.535  1.00  0.00     0.162 C 
BRANCH  85  86
ATOM     86  O   UNL     1     -12.770  -0.520  -1.726  1.00  0.00    -0.396 OA
ATOM     87  H   UNL     1     -13.713  -0.215  -1.668  1.00  0.00     0.210 HD
ENDBRANCH  85  86
ENDBRANCH  80  85
BRANCH  81  88
ATOM     88  O   UNL     1     -11.597   3.043   0.278  1.00  0.00    -0.388 OA
ATOM     89  H   UNL     1     -10.682   2.996  -0.096  1.00  0.00     0.211 HD
ENDBRANCH  81  88
BRANCH  82  90
ATOM     90  O   UNL     1     -13.498   0.497   1.897  1.00  0.00    -0.390 OA
ATOM     91  H   UNL     1     -12.990   0.278   2.718  1.00  0.00     0.211 HD
ENDBRANCH  82  90
ENDBRANCH  76  77
ENDBRANCH  60  76
ENDBRANCH  37  39
ENDBRANCH   1  37
TORSDOF 27
