REMARK SMILES CCCC[C@H](CC)COC(=O)c1ccccc1C(=O)OC
REMARK SMILES IDX 8 1 5 2 4 3 3 4 2 5 1 6 6 7 7 8 9 9 10 10 11 11 12 12 13 13
REMARK SMILES IDX 17 14 14 15 16 16 15 17 18 18 19 19 20 20 21 21
REMARK H PARENT
ROOT
ATOM      1  C   UNL     1      -0.273   0.257   1.941  1.00  0.00     0.236 C 
ENDROOT
BRANCH   1   2
ATOM      2  C   UNL     1      -1.272   0.102   0.759  1.00  0.00     0.027 C 
BRANCH   2   3
ATOM      3  C   UNL     1      -2.541   0.925   1.135  1.00  0.00     0.007 C 
BRANCH   3   4
ATOM      4  C   UNL     1      -3.607   1.106   0.046  1.00  0.00     0.000 C 
BRANCH   4   5
ATOM      5  C   UNL     1      -4.695   2.086   0.509  1.00  0.00    -0.003 C 
ATOM      6  C   UNL     1      -5.781   2.247  -0.551  1.00  0.00     0.004 C 
ENDBRANCH   4   5
ENDBRANCH   3   4
ENDBRANCH   2   3
BRANCH   2   7
ATOM      7  C   UNL     1      -1.483  -1.421   0.490  1.00  0.00     0.004 C 
ATOM      8  C   UNL     1      -2.187  -1.800  -0.814  1.00  0.00     0.004 C 
ENDBRANCH   2   7
ENDBRANCH   1   2
BRANCH   1   9
ATOM      9  O   UNL     1       0.925  -0.399   1.713  1.00  0.00    -0.462 OA
BRANCH   9  10
ATOM     10  C   UNL     1       1.847  -0.069   0.768  1.00  0.00     0.339 C 
ATOM     11  O   UNL     1       1.694   0.958   0.135  1.00  0.00    -0.246 OA
BRANCH  10  12
ATOM     12  C   UNL     1       3.042  -0.964   0.570  1.00  0.00     0.074 A 
ATOM     13  C   UNL     1       3.130  -2.049   1.477  1.00  0.00     0.016 A 
ATOM     14  C   UNL     1       4.083  -0.823  -0.426  1.00  0.00     0.074 A 
ATOM     15  C   UNL     1       4.179  -2.958   1.438  1.00  0.00     0.001 A 
ATOM     16  C   UNL     1       5.135  -1.776  -0.422  1.00  0.00     0.016 A 
ATOM     17  C   UNL     1       5.179  -2.822   0.493  1.00  0.00     0.001 A 
BRANCH  14  18
ATOM     18  C   UNL     1       4.177   0.231  -1.502  1.00  0.00     0.338 C 
ATOM     19  O   UNL     1       5.155   0.246  -2.239  1.00  0.00    -0.246 OA
BRANCH  18  20
ATOM     20  O   UNL     1       3.204   1.149  -1.707  1.00  0.00    -0.465 OA
ATOM     21  C   UNL     1       3.238   2.120  -2.685  1.00  0.00     0.282 C 
ENDBRANCH  18  20
ENDBRANCH  14  18
ENDBRANCH  10  12
ENDBRANCH   9  10
ENDBRANCH   1   9
TORSDOF 10
