REMARK SMILES CC(C)(O)[C@@H](O)CC[C@H](C(=O)O)[C@@H]1CC[C@]2(C)C3=C(CC[C@@]12C)[C@@]1(C)CC[C@@H](O)C(C)(C)[C@@H]1CC3
REMARK SMILES IDX 7 1 5 2 2 3 1 4 3 5 4 6 6 8 8 10 9 11 10 12 11 13 12 14
REMARK SMILES IDX 13 16 14 17 22 18 15 19 21 20 16 21 20 22 18 23 19 24 35 25
REMARK SMILES IDX 24 26 34 27 26 28 33 29 27 30 30 31 28 32 23 33 17 34 25 35
REMARK SMILES IDX 31 36 32 37 29 38
REMARK H PARENT 4 7 6 9 12 15 29 39
ROOT
ATOM      1  C   UNL     1       4.375   1.121  -0.402  1.00  0.00     0.036 C 
ENDROOT
BRANCH   1   2
ATOM      2  C   UNL     1       5.718   0.345  -0.337  1.00  0.00     0.145 C 
BRANCH   2   3
ATOM      3  C   UNL     1       6.426   0.172  -1.719  1.00  0.00     0.085 C 
ATOM      4  C   UNL     1       6.815   1.527  -2.356  1.00  0.00     0.044 C 
ATOM      5  C   UNL     1       7.702  -0.678  -1.520  1.00  0.00     0.044 C 
BRANCH   3   6
ATOM      6  O   UNL     1       5.543  -0.511  -2.579  1.00  0.00    -0.388 OA
ATOM      7  H   UNL     1       6.010  -0.670  -3.441  1.00  0.00     0.211 HD
ENDBRANCH   3   6
ENDBRANCH   2   3
BRANCH   2   8
ATOM      8  O   UNL     1       6.589   0.929   0.604  1.00  0.00    -0.390 OA
ATOM      9  H   UNL     1       6.645   1.901   0.413  1.00  0.00     0.211 HD
ENDBRANCH   2   8
ENDBRANCH   1   2
BRANCH   1  10
ATOM     10  C   UNL     1       3.686   1.333   0.965  1.00  0.00     0.018 C 
BRANCH  10  11
ATOM     11  C   UNL     1       3.146   0.115   1.783  1.00  0.00     0.103 C 
BRANCH  11  12
ATOM     12  C   UNL     1       4.291  -0.765   2.275  1.00  0.00     0.306 C 
ATOM     13  O   UNL     1       4.320  -1.960   2.024  1.00  0.00    -0.252 OA
BRANCH  12  14
ATOM     14  O   UNL     1       5.280  -0.246   3.036  1.00  0.00    -0.481 OA
ATOM     15  H   UNL     1       5.291   0.681   3.308  1.00  0.00     0.296 HD
ENDBRANCH  12  14
ENDBRANCH  11  12
BRANCH  11  16
ATOM     16  C   UNL     1       1.955  -0.741   1.204  1.00  0.00     0.010 C 
ATOM     17  C   UNL     1       2.160  -1.659  -0.046  1.00  0.00     0.006 C 
ATOM     18  C   UNL     1       0.529  -0.167   0.993  1.00  0.00    -0.019 C 
ATOM     19  C   UNL     1       0.744  -1.863  -0.667  1.00  0.00     0.012 C 
ATOM     20  C   UNL     1      -0.209   0.290   2.262  1.00  0.00     0.012 C 
ATOM     21  C   UNL     1      -0.225  -1.437   0.449  1.00  0.00    -0.006 C 
ATOM     22  C   UNL     1      -1.644   0.726   1.904  1.00  0.00     0.032 C 
ATOM     23  C   UNL     1      -1.669  -1.078   0.100  1.00  0.00    -0.064 C 
ATOM     24  C   UNL     1      -2.344  -0.100   0.804  1.00  0.00    -0.064 C 
ATOM     25  C   UNL     1      -2.378  -1.808  -1.025  1.00  0.00     0.032 C 
ATOM     26  C   UNL     1      -3.810   0.214   0.409  1.00  0.00    -0.008 C 
ATOM     27  C   UNL     1      -3.035  -0.783  -1.944  1.00  0.00     0.009 C 
ATOM     28  C   UNL     1      -4.313   1.621   0.948  1.00  0.00     0.014 C 
ATOM     29  C   UNL     1      -3.919   0.255  -1.162  1.00  0.00     0.007 C 
ATOM     30  C   UNL     1      -5.346   2.358   0.046  1.00  0.00     0.033 C 
ATOM     31  C   UNL     1      -5.387   0.502  -1.732  1.00  0.00    -0.006 C 
ATOM     32  C   UNL     1      -6.237   1.382  -0.727  1.00  0.00     0.120 C 
ATOM     33  C   UNL     1       0.551   1.016  -0.043  1.00  0.00     0.012 C 
ATOM     34  C   UNL     1      -0.374  -2.672   1.407  1.00  0.00     0.017 C 
ATOM     35  C   UNL     1      -4.671  -0.890   1.107  1.00  0.00     0.016 C 
ATOM     36  C   UNL     1      -6.183  -0.803  -1.989  1.00  0.00     0.014 C 
ATOM     37  C   UNL     1      -5.232   1.227  -3.097  1.00  0.00     0.014 C 
BRANCH  32  38
ATOM     38  O   UNL     1      -7.309   2.028  -1.373  1.00  0.00    -0.393 OA
ATOM     39  H   UNL     1      -6.971   2.871  -1.774  1.00  0.00     0.210 HD
ENDBRANCH  32  38
ENDBRANCH  11  16
ENDBRANCH  10  11
ENDBRANCH   1  10
TORSDOF 10
