REMARK SMILES [H]/N=C(/NC)N[C@@H](C/C(C)=C/C[C@@]12O[C@]1(C(=O)OC[C@@H]1C[C@@H]3CCC=CC3=C[C@@H]1NCC1CCCCC1)C(=O)c1c(CC(C)C)cccc1C2=O)c1ccnc(NCNC)c1
REMARK SMILES IDX 12 1 11 2 9 3 10 4 8 5 7 6 52 7 56 8 61 9 55 10 54 11 53 12
REMARK SMILES IDX 57 13 58 15 59 16 60 17 6 19 3 20 2 21 4 22 1 24 5 25 13 27
REMARK SMILES IDX 14 28 15 29 50 30 38 31 49 32 51 33 39 34 40 35 48 36 41 37
REMARK SMILES IDX 47 38 46 39 16 40 17 41 18 42 19 43 20 44 21 45 29 46 22 47
REMARK SMILES IDX 28 48 23 49 27 50 24 51 26 52 25 53 30 54 31 56 32 57 33 58
REMARK SMILES IDX 37 59 34 60 36 61 35 62 42 63 43 64 44 65 45 66
REMARK H PARENT 57 14 59 18 6 23 4 26 30 55
ROOT
ATOM      1  C   UNL     1       2.188  -1.659   0.518  1.00  0.00     0.075 C 
ENDROOT
BRANCH   1   2
ATOM      2  C   UNL     1       2.640  -0.882  -0.696  1.00  0.00    -0.024 C 
ATOM      3  C   UNL     1       3.939  -0.646  -1.025  1.00  0.00    -0.075 C 
ATOM      4  C   UNL     1       5.060  -1.249  -0.199  1.00  0.00     0.039 C 
BRANCH   3   5
ATOM      5  C   UNL     1       4.252   0.236  -2.242  1.00  0.00     0.060 C 
BRANCH   5   6
ATOM      6  C   UNL     1       5.150   1.484  -1.913  1.00  0.00     0.116 C 
BRANCH   6   7
ATOM      7  C   UNL     1       4.599   2.385  -0.788  1.00  0.00    -0.020 A 
ATOM      8  C   UNL     1       4.990   4.095   0.924  1.00  0.00     0.127 A 
ATOM      9  C   UNL     1       5.455   3.311  -0.150  1.00  0.00     0.052 A 
ATOM     10  N   UNL     1       3.700   3.953   1.328  1.00  0.00    -0.240 NA
ATOM     11  C   UNL     1       2.833   3.119   0.705  1.00  0.00     0.114 A 
ATOM     12  C   UNL     1       3.260   2.329  -0.356  1.00  0.00     0.026 A 
BRANCH   8  13
ATOM     13  N   UNL     1       5.833   4.982   1.663  1.00  0.00    -0.358 N 
ATOM     14  H   UNL     1       5.419   5.231   2.575  1.00  0.00     0.163 HD
BRANCH  13  15
ATOM     15  C   UNL     1       6.511   6.140   1.085  1.00  0.00     0.199 C 
BRANCH  15  16
ATOM     16  N   UNL     1       7.363   5.841  -0.070  1.00  0.00    -0.303 NA
ATOM     17  C   UNL     1       8.549   5.060   0.284  1.00  0.00     0.103 C 
ATOM     18  H   UNL     1       6.825   5.438  -0.866  1.00  0.00     0.124 HD
ENDBRANCH  15  16
ENDBRANCH  13  15
ENDBRANCH   8  13
ENDBRANCH   6   7
BRANCH   6  19
ATOM     19  N   UNL     1       6.503   1.032  -1.595  1.00  0.00    -0.349 N 
ATOM     20  C   UNL     1       7.393   0.404  -2.531  1.00  0.00     0.188 C 
ATOM     21  N   UNL     1       7.127   0.359  -3.793  1.00  0.00    -0.269 NA
ATOM     22  N   UNL     1       8.605  -0.170  -2.042  1.00  0.00    -0.360 N 
ATOM     23  H   UNL     1       6.851   1.135  -0.630  1.00  0.00     0.164 HD
ATOM     24  H   UNL     1       6.283   0.766  -4.215  1.00  0.00     0.191 HD
ATOM     25  C   UNL     1       9.588  -0.815  -2.889  1.00  0.00     0.142 C 
ATOM     26  H   UNL     1       8.793  -0.142  -1.030  1.00  0.00     0.163 HD
ENDBRANCH   6  19
ENDBRANCH   5   6
ENDBRANCH   3   5
ENDBRANCH   1   2
BRANCH   1  27
ATOM     27  C   UNL     1       1.422  -2.945   0.162  1.00  0.00     0.184 C 
ATOM     28  O   UNL     1       0.937  -3.462   1.380  1.00  0.00    -0.334 OA
ATOM     29  C   UNL     1      -0.033  -3.144   0.411  1.00  0.00     0.266 C 
ATOM     30  C   UNL     1       2.125  -4.041  -0.606  1.00  0.00     0.199 C 
ATOM     31  C   UNL     1      -0.693  -4.436   0.028  1.00  0.00     0.210 C 
ATOM     32  C   UNL     1       1.456  -5.341  -0.902  1.00  0.00     0.032 A 
ATOM     33  O   UNL     1       3.288  -3.880  -0.941  1.00  0.00    -0.291 OA
ATOM     34  O   UNL     1      -1.899  -4.524   0.178  1.00  0.00    -0.290 OA
ATOM     35  C   UNL     1       0.102  -5.576  -0.541  1.00  0.00     0.036 A 
ATOM     36  C   UNL     1       2.204  -6.359  -1.516  1.00  0.00     0.013 A 
ATOM     37  C   UNL     1      -0.447  -6.887  -0.739  1.00  0.00    -0.036 A 
ATOM     38  C   UNL     1       1.645  -7.607  -1.756  1.00  0.00     0.001 A 
ATOM     39  C   UNL     1       0.342  -7.873  -1.360  1.00  0.00     0.004 A 
BRANCH  29  40
ATOM     40  C   UNL     1      -0.933  -2.032   0.902  1.00  0.00     0.350 C 
ATOM     41  O   UNL     1      -0.852  -1.619   2.048  1.00  0.00    -0.248 OA
BRANCH  40  42
ATOM     42  O   UNL     1      -1.876  -1.561   0.052  1.00  0.00    -0.463 OA
BRANCH  42  43
ATOM     43  C   UNL     1      -3.089  -0.996   0.411  1.00  0.00     0.238 C 
BRANCH  43  44
ATOM     44  C   UNL     1      -3.156   0.492   0.001  1.00  0.00     0.048 C 
ATOM     45  C   UNL     1      -2.058   1.284   0.784  1.00  0.00     0.017 C 
ATOM     46  C   UNL     1      -4.576   1.165   0.148  1.00  0.00     0.083 C 
ATOM     47  C   UNL     1      -2.454   2.751   1.063  1.00  0.00     0.020 C 
ATOM     48  C   UNL     1      -4.744   1.889   1.469  1.00  0.00    -0.004 C 
ATOM     49  C   UNL     1      -1.332   3.443   1.880  1.00  0.00     0.012 C 
ATOM     50  C   UNL     1      -3.758   2.713   1.867  1.00  0.00    -0.048 C 
ATOM     51  C   UNL     1      -1.846   4.760   2.453  1.00  0.00     0.028 C 
ATOM     52  C   UNL     1      -3.905   3.532   3.096  1.00  0.00    -0.001 C 
ATOM     53  C   UNL     1      -2.995   4.474   3.391  1.00  0.00    -0.027 C 
BRANCH  46  54
ATOM     54  N   UNL     1      -5.688   0.249  -0.205  1.00  0.00    -0.310 NA
ATOM     55  H   UNL     1      -5.664  -0.526   0.498  1.00  0.00     0.123 HD
BRANCH  54  56
ATOM     56  C   UNL     1      -7.075   0.764  -0.133  1.00  0.00     0.085 C 
BRANCH  56  57
ATOM     57  C   UNL     1      -7.556   1.634  -1.327  1.00  0.00     0.003 C 
ATOM     58  C   UNL     1      -6.822   3.014  -1.391  1.00  0.00     0.005 C 
ATOM     59  C   UNL     1      -9.114   1.816  -1.247  1.00  0.00     0.005 C 
ATOM     60  C   UNL     1      -7.715   4.074  -2.030  1.00  0.00     0.000 C 
ATOM     61  C   UNL     1      -9.461   3.050  -0.419  1.00  0.00     0.000 C 
ATOM     62  C   UNL     1      -8.967   4.323  -1.151  1.00  0.00     0.000 C 
ENDBRANCH  56  57
ENDBRANCH  54  56
ENDBRANCH  46  54
ENDBRANCH  43  44
ENDBRANCH  42  43
ENDBRANCH  40  42
ENDBRANCH  29  40
BRANCH  37  63
ATOM     63  C   UNL     1      -1.823  -7.320  -0.250  1.00  0.00     0.039 C 
BRANCH  63  64
ATOM     64  C   UNL     1      -1.806  -7.746   1.250  1.00  0.00    -0.013 C 
ATOM     65  C   UNL     1      -1.349  -6.656   2.235  1.00  0.00     0.008 C 
ATOM     66  C   UNL     1      -3.196  -8.241   1.667  1.00  0.00     0.008 C 
ENDBRANCH  63  64
ENDBRANCH  37  63
ENDBRANCH   1  27
TORSDOF 18
