REMARK SMILES CO[C@@H]1[C@@H](OC)[C@H](C)O[C@@H](O[C@@H]2C[C@@H]3CC[C@H](C)[C@@H](O)C[C@](C)(CC/C=C/C=C/Br)OC(=O)C[C@](O)(C2)O3)[C@@H]1OC
REMARK SMILES IDX 32 1 33 2 34 3 35 4 12 5 13 6 37 7 14 8 38 9 11 10 10 11
REMARK SMILES IDX 3 12 4 13 39 14 7 15 9 16 8 17 2 18 1 19 5 20 6 21 40 22
REMARK SMILES IDX 41 23 15 24 16 25 17 26 18 27 19 28 20 30 36 32 31 34 22 35
REMARK SMILES IDX 23 36 21 37 24 39 25 40 26 41 27 42 28 43 29 44 30 45
REMARK H PARENT 20 31 36 33
REMARK Flexibility Score:   99.900
ROOT
ATOM      1  C   UNL     1       2.205  -2.077   2.183  1.00  0.00     0.311 C 
ATOM      2  O   UNL     1       2.753  -3.067   2.644  1.00  0.00    -0.252 OA
ENDROOT
BRANCH   1   3
ATOM      3  C   UNL     1       0.698  -2.025   2.220  1.00  0.00     0.188 C 
BRANCH   3   4
ATOM      4  C   UNL     1       0.031  -0.666   1.857  1.00  0.00     0.178 C 
ATOM      5  C   UNL     1      -2.204   0.276   1.042  1.00  0.00     0.129 C 
ATOM      6  C   UNL     1      -1.429   0.793  -0.179  1.00  0.00     0.064 C 
ATOM      7  C   UNL     1      -1.480  -0.950   1.597  1.00  0.00     0.098 C 
ATOM      8  C   UNL     1       0.018   1.070   0.257  1.00  0.00     0.124 C 
ATOM      9  O   UNL     1       0.628  -0.146   0.682  1.00  0.00    -0.346 OA
BRANCH   5  10
ATOM     10  O   UNL     1      -3.504  -0.125   0.646  1.00  0.00    -0.346 OA
BRANCH  10  11
ATOM     11  C   UNL     1      -4.521   0.827   0.932  1.00  0.00     0.282 C 
ATOM     12  C   UNL     1      -5.930  -0.005  -0.967  1.00  0.00     0.183 C 
ATOM     13  C   UNL     1      -6.862  -0.628   0.086  1.00  0.00     0.178 C 
ATOM     14  C   UNL     1      -5.246   1.236  -0.367  1.00  0.00     0.205 C 
ATOM     15  C   UNL     1      -6.053  -0.905   1.378  1.00  0.00     0.150 C 
ATOM     16  O   UNL     1      -5.447   0.288   1.869  1.00  0.00    -0.344 OA
ATOM     17  C   UNL     1      -6.962  -1.469   2.471  1.00  0.00     0.041 C 
BRANCH  12  18
ATOM     18  O   UNL     1      -6.686   0.363  -2.110  1.00  0.00    -0.376 OA
ATOM     19  C   UNL     1      -5.984   0.053  -3.293  1.00  0.00     0.195 C 
ENDBRANCH  12  18
BRANCH  13  20
ATOM     20  O   UNL     1      -7.383  -1.850  -0.416  1.00  0.00    -0.376 OA
ATOM     21  C   UNL     1      -8.752  -1.726  -0.729  1.00  0.00     0.195 C 
ENDBRANCH  13  20
BRANCH  14  22
ATOM     22  O   UNL     1      -6.236   2.211  -0.070  1.00  0.00    -0.373 OA
ATOM     23  C   UNL     1      -5.785   3.505  -0.402  1.00  0.00     0.195 C 
ENDBRANCH  14  22
ENDBRANCH  10  11
ENDBRANCH   5  10
BRANCH   8  24
ATOM     24  C   UNL     1       0.871   1.627  -0.890  1.00  0.00     0.032 C 
BRANCH  24  25
ATOM     25  C   UNL     1       2.182   2.283  -0.361  1.00  0.00     0.008 C 
BRANCH  25  26
ATOM     26  C   UNL     1       3.476   1.912  -1.141  1.00  0.00     0.015 C 
ATOM     27  C   UNL     1       3.289   2.168  -2.650  1.00  0.00     0.010 C 
BRANCH  26  28
ATOM     28  C   UNL     1       3.909   0.445  -0.804  1.00  0.00     0.121 CG0
ATOM     29  G   UNL     1       4.544   0.327   0.626  1.00  0.00     0.000 G0
BRANCH  28  30
ATOM     30  O   UNL     1       4.812  -0.051  -1.758  1.00  0.00    -0.393 OA
ATOM     31  H   UNL     1       5.578   0.583  -1.798  1.00  0.00     0.210 HD
ENDBRANCH  28  30
ENDBRANCH  26  28
ENDBRANCH  25  26
ENDBRANCH  24  25
ENDBRANCH   8  24
BRANCH   4  32
ATOM     32  O   UNL     1       0.229   0.248   2.914  1.00  0.00    -0.365 OA
ATOM     33  H   UNL     1      -0.288  -0.074   3.698  1.00  0.00     0.214 HD
ENDBRANCH   4  32
ENDBRANCH   3   4
ENDBRANCH   1   3
BRANCH   1  34
ATOM     34  O   UNL     1       2.927  -1.111   1.545  1.00  0.00    -0.459 OA
BRANCH  34  35
ATOM     35  C   UNL     1       4.308  -1.033   1.348  1.00  0.00     0.112 C 
ATOM     36  C   UNL     1       4.996  -0.975   2.733  1.00  0.00     0.057 C 
BRANCH  35  37
ATOM     37  C   UNL     1       4.544   0.327   0.626  1.00  0.00     0.080 CG0
ATOM     38  G   UNL     1       3.909   0.445  -0.804  1.00  0.00     0.000 G0
ENDBRANCH  35  37
BRANCH  35  39
ATOM     39  C   UNL     1       4.815  -2.266   0.512  1.00  0.00     0.053 C 
BRANCH  39  40
ATOM     40  C   UNL     1       6.335  -2.538   0.467  1.00  0.00     0.031 C 
BRANCH  40  41
ATOM     41  C   UNL     1       7.155  -1.469  -0.195  1.00  0.00    -0.027 C 
ATOM     42  C   UNL     1       8.140  -0.839   0.460  1.00  0.00    -0.004 C 
BRANCH  42  43
ATOM     43  C   UNL     1       8.961   0.194  -0.201  1.00  0.00     0.007 C 
ATOM     44  C   UNL     1       9.952   0.803   0.455  1.00  0.00     0.051 C 
ATOM     45  Br  UNL     1      11.014   2.135  -0.413  1.00  0.00    -0.059 Br
ENDBRANCH  42  43
ENDBRANCH  40  41
ENDBRANCH  39  40
ENDBRANCH  35  39
ENDBRANCH  34  35
ENDBRANCH   1  34
TORSDOF 11
