REMARK SMILES CC(=O)O[C@@H]1C[C@](C)(O)[C@@]23C[C@@H](C[C@H](OC(=O)c4ccoc4)[C@]2(C)[C@H]1OC(=O)c1ccoc1)C(C)(C)O3
REMARK SMILES IDX 5 1 6 2 7 3 8 4 10 5 11 6 12 7 13 8 14 9 23 10 24 11 25 12
REMARK SMILES IDX 34 13 35 14 36 15 37 16 4 17 2 18 3 19 1 20 26 21 27 22
REMARK SMILES IDX 28 23 29 24 33 25 30 26 32 27 31 28 9 29 15 31 16 32 17 33
REMARK SMILES IDX 18 34 22 35 19 36 21 37 20 38
REMARK H PARENT 9 30
ROOT
ATOM      1  C   UNL     1      -1.852  -0.958  -1.060  1.00  0.00     0.221 C 
ATOM      2  C   UNL     1      -1.805  -2.497  -0.852  1.00  0.00     0.087 C 
ATOM      3  C   UNL     1      -0.384  -3.173  -0.990  1.00  0.00     0.095 C 
ATOM      4  C   UNL     1       0.045  -3.429  -2.453  1.00  0.00     0.045 C 
ATOM      5  C   UNL     1       0.606  -2.316  -0.114  1.00  0.00     0.110 C 
ATOM      6  C   UNL     1       2.060  -2.837   0.040  1.00  0.00     0.046 C 
ATOM      7  C   UNL     1       2.330  -2.291   1.468  1.00  0.00     0.027 C 
ATOM      8  C   UNL     1       2.425  -0.718   1.476  1.00  0.00     0.052 C 
ATOM      9  C   UNL     1       1.914  -0.090   0.179  1.00  0.00     0.190 C 
ATOM     10  C   UNL     1       0.655  -0.754  -0.527  1.00  0.00     0.077 C 
ATOM     11  C   UNL     1       0.962  -0.415  -2.037  1.00  0.00     0.023 C 
ATOM     12  C   UNL     1      -0.781  -0.215  -0.186  1.00  0.00     0.230 C 
ATOM     13  C   UNL     1       1.027  -2.762   2.137  1.00  0.00     0.067 C 
ATOM     14  C   UNL     1       1.018  -4.293   2.430  1.00  0.00     0.042 C 
ATOM     15  C   UNL     1       0.693  -2.097   3.499  1.00  0.00     0.042 C 
ATOM     16  O   UNL     1       0.033  -2.436   1.207  1.00  0.00    -0.365 OA
ENDROOT
BRANCH   1  17
ATOM     17  O   UNL     1      -3.109  -0.485  -0.713  1.00  0.00    -0.458 OA
BRANCH  17  18
ATOM     18  C   UNL     1      -3.936   0.230  -1.524  1.00  0.00     0.303 C 
ATOM     19  O   UNL     1      -3.614   0.512  -2.670  1.00  0.00    -0.253 OA
ATOM     20  C   UNL     1      -5.249   0.706  -0.992  1.00  0.00     0.139 C 
ENDBRANCH  17  18
ENDBRANCH   1  17
BRANCH  12  21
ATOM     21  O   UNL     1      -0.906   1.157  -0.372  1.00  0.00    -0.454 OA
BRANCH  21  22
ATOM     22  C   UNL     1      -1.323   2.017   0.606  1.00  0.00     0.341 C 
ATOM     23  O   UNL     1      -1.489   1.629   1.754  1.00  0.00    -0.246 OA
BRANCH  22  24
ATOM     24  C   UNL     1      -1.634   3.418   0.291  1.00  0.00     0.098 A 
ATOM     25  C   UNL     1      -1.506   4.054  -0.924  1.00  0.00     0.210 A 
ATOM     26  C   UNL     1      -2.127   4.353   1.175  1.00  0.00     0.057 A 
ATOM     27  O   UNL     1      -1.893   5.306  -0.798  1.00  0.00    -0.472 OA
ATOM     28  C   UNL     1      -2.271   5.515   0.445  1.00  0.00     0.195 A 
ENDBRANCH  22  24
ENDBRANCH  21  22
ENDBRANCH  12  21
BRANCH   3  29
ATOM     29  O   UNL     1      -0.454  -4.453  -0.397  1.00  0.00    -0.387 OA
ATOM     30  H   UNL     1      -1.237  -4.937  -0.771  1.00  0.00     0.211 HD
ENDBRANCH   3  29
BRANCH   9  31
ATOM     31  O   UNL     1       1.862   1.300   0.239  1.00  0.00    -0.458 OA
BRANCH  31  32
ATOM     32  C   UNL     1       2.673   2.137  -0.476  1.00  0.00     0.341 C 
ATOM     33  O   UNL     1       3.512   1.690  -1.247  1.00  0.00    -0.246 OA
BRANCH  32  34
ATOM     34  C   UNL     1       2.532   3.596  -0.359  1.00  0.00     0.098 A 
ATOM     35  C   UNL     1       1.682   4.291   0.474  1.00  0.00     0.210 A 
ATOM     36  C   UNL     1       3.236   4.542  -1.074  1.00  0.00     0.057 A 
ATOM     37  O   UNL     1       1.847   5.582   0.282  1.00  0.00    -0.472 OA
ATOM     38  C   UNL     1       2.770   5.763  -0.639  1.00  0.00     0.195 A 
ENDBRANCH  32  34
ENDBRANCH  31  32
ENDBRANCH   9  31
TORSDOF 9
