REMARK SMILES COc1cc(-c2nc3cnccc3n2C)cc(OC)c1OC
REMARK SMILES IDX 3 1 4 2 5 3 16 4 17 5 20 6 2 7 1 8 21 9 22 10 6 11 7 12
REMARK SMILES IDX 14 13 8 14 13 15 9 16 12 17 10 18 11 19 15 20 18 21 19 22
REMARK H PARENT
ROOT
ATOM      1  C   UNL     1      -2.133  -0.628   1.589  1.00  0.00     0.165 A 
ATOM      2  C   UNL     1      -0.728  -0.654   1.524  1.00  0.00     0.062 A 
ATOM      3  C   UNL     1      -0.038  -0.190   0.392  1.00  0.00     0.025 A 
ATOM      4  C   UNL     1      -0.793   0.280  -0.695  1.00  0.00     0.062 A 
ATOM      5  C   UNL     1      -2.204   0.292  -0.667  1.00  0.00     0.165 A 
ATOM      6  C   UNL     1      -2.877  -0.158   0.497  1.00  0.00     0.203 A 
ENDROOT
BRANCH   1   7
ATOM      7  O   UNL     1      -2.812  -1.046   2.693  1.00  0.00    -0.493 OA
ATOM      8  C   UNL     1      -2.252  -1.491   3.873  1.00  0.00     0.278 C 
ENDBRANCH   1   7
BRANCH   6   9
ATOM      9  O   UNL     1      -4.235  -0.169   0.629  1.00  0.00    -0.490 OA
ATOM     10  C   UNL     1      -5.184   0.243  -0.282  1.00  0.00     0.278 C 
ENDBRANCH   6   9
BRANCH   3  11
ATOM     11  C   UNL     1       1.463  -0.236   0.407  1.00  0.00     0.141 A 
ATOM     12  N   UNL     1       2.117  -1.055   1.274  1.00  0.00    -0.227 NA
ATOM     13  N   UNL     1       2.336   0.504  -0.353  1.00  0.00    -0.327 N 
ATOM     14  C   UNL     1       3.415  -0.831   1.030  1.00  0.00     0.107 A 
ATOM     15  C   UNL     1       3.560   0.111   0.061  1.00  0.00     0.071 A 
ATOM     16  C   UNL     1       4.516  -1.426   1.633  1.00  0.00     0.141 A 
ATOM     17  C   UNL     1       4.829   0.526  -0.358  1.00  0.00     0.048 A 
ATOM     18  N   UNL     1       5.760  -1.033   1.229  1.00  0.00    -0.262 NA
ATOM     19  C   UNL     1       5.938  -0.080   0.260  1.00  0.00     0.113 A 
ATOM     20  C   UNL     1       2.062   1.536  -1.357  1.00  0.00     0.152 C 
ENDBRANCH   3  11
BRANCH   5  21
ATOM     21  O   UNL     1      -2.922   0.720  -1.740  1.00  0.00    -0.493 OA
ATOM     22  C   UNL     1      -2.421   1.100  -2.968  1.00  0.00     0.278 C 
ENDBRANCH   5  21
TORSDOF 4
