REMARK SMILES C/C=C1\C=C(\C)[C@H]2Oc3c(cc(O)cc3[C@@H](O[C@@H]3CC[C@@H](O)[C@@H](C)O3)[C@@H]2C)NC(=O)[C@H](C)C1=O
REMARK SMILES IDX 7 1 8 2 9 3 10 4 11 5 12 6 14 7 15 8 16 9 26 10 27 11 5 12
REMARK SMILES IDX 4 13 6 14 3 15 2 16 1 17 17 19 18 20 19 21 25 22 20 23 23 24
REMARK SMILES IDX 21 25 24 26 22 27 28 29 29 30 30 31 31 33 32 34 33 35 34 36
REMARK SMILES IDX 13 38
REMARK H PARENT 22 28 28 32 13 39
REMARK Flexibility Score:   19.900
ROOT
ATOM      1  C   UNL     1      -0.510  -1.313  -1.025  1.00  0.00     0.205 C 
ATOM      2  O   UNL     1      -1.010  -0.067  -1.249  1.00  0.00    -0.483 OA
ATOM      3  C   UNL     1      -0.761   1.093  -0.594  1.00  0.00     0.149 A 
ATOM      4  C   UNL     1      -1.541   2.204  -0.927  1.00  0.00     0.087 A 
ATOM      5  C   UNL     1      -1.451   3.367  -0.153  1.00  0.00     0.076 A 
ATOM      6  C   UNL     1      -0.526   3.430   0.906  1.00  0.00     0.118 A 
ATOM      7  C   UNL     1       0.302   2.329   1.181  1.00  0.00     0.056 A 
ATOM      8  C   UNL     1       0.187   1.153   0.417  1.00  0.00     0.029 A 
ATOM      9  C   UNL     1       1.069  -0.053   0.573  1.00  0.00     0.162 C 
ATOM     10  C   UNL     1       0.250  -1.365   0.376  1.00  0.00     0.065 C 
ATOM     11  C   UNL     1       1.275  -2.528   0.483  1.00  0.00     0.015 C 
ENDROOT
BRANCH   1  12
ATOM     12  C   UNL     1      -1.628  -2.365  -1.304  1.00  0.00    -0.032 C 
ATOM     13  C   UNL     1      -2.955  -2.245  -1.749  1.00  0.00     0.014 C 
ATOM     14  C   UNL     1      -1.190  -3.799  -1.008  1.00  0.00     0.043 C 
BRANCH  13  15
ATOM     15  C   UNL     1      -4.146  -1.354  -2.233  1.00  0.00     0.014 CG0
ATOM     16  C   UNL     1      -5.399  -1.928  -2.067  1.00  0.00    -0.019 C 
ATOM     17  C   UNL     1      -5.739  -3.270  -1.461  1.00  0.00     0.036 C 
ATOM     18  G   UNL     1      -4.274   0.017  -2.945  1.00  0.00     0.000 G0
ENDBRANCH  13  15
ENDBRANCH   1  12
BRANCH   9  19
ATOM     19  O   UNL     1       1.743  -0.041   1.832  1.00  0.00    -0.344 OA
BRANCH  19  20
ATOM     20  C   UNL     1       3.158   0.048   1.695  1.00  0.00     0.251 C 
ATOM     21  C   UNL     1       3.793  -0.745   2.876  1.00  0.00     0.065 C 
ATOM     22  O   UNL     1       3.500   1.442   1.636  1.00  0.00    -0.347 OA
ATOM     23  C   UNL     1       3.763   0.143   4.097  1.00  0.00     0.040 C 
ATOM     24  C   UNL     1       4.689   1.794   2.322  1.00  0.00     0.147 C 
ATOM     25  C   UNL     1       4.644   1.383   3.832  1.00  0.00     0.143 C 
ATOM     26  C   UNL     1       5.924   1.328   1.519  1.00  0.00     0.041 C 
BRANCH  25  27
ATOM     27  O   UNL     1       5.941   1.237   4.355  1.00  0.00    -0.390 OA
ATOM     28  H   UNL     1       6.293   0.357   4.058  1.00  0.00     0.211 HD
ENDBRANCH  25  27
ENDBRANCH  19  20
ENDBRANCH   9  19
BRANCH   4  29
ATOM     29  N   UNL     1      -2.466   2.080  -2.003  1.00  0.00    -0.322 N 
ATOM     30  C   UNL     1      -2.194   1.288  -3.092  1.00  0.00     0.235 C 
ATOM     31  O   UNL     1      -1.047   0.983  -3.399  1.00  0.00    -0.274 OA
ATOM     32  H   UNL     1      -3.411   2.460  -1.854  1.00  0.00     0.170 HD
BRANCH  30  33
ATOM     33  C   UNL     1      -3.290   0.714  -3.884  1.00  0.00     0.147 C 
ATOM     34  C   UNL     1      -3.940   1.845  -4.710  1.00  0.00     0.027 C 
BRANCH  33  35
ATOM     35  C   UNL     1      -4.274   0.017  -2.945  1.00  0.00     0.174 CG0
ATOM     36  O   UNL     1      -5.362   0.580  -2.862  1.00  0.00    -0.293 OA
ATOM     37  G   UNL     1      -4.146  -1.354  -2.233  1.00  0.00     0.000 G0
ENDBRANCH  33  35
ENDBRANCH  30  33
ENDBRANCH   4  29
BRANCH   6  38
ATOM     38  O   UNL     1      -0.417   4.545   1.656  1.00  0.00    -0.508 OA
ATOM     39  H   UNL     1      -0.967   5.326   1.499  1.00  0.00     0.293 HD
ENDBRANCH   6  38
TORSDOF 4
