REMARK SMILES CCCOc1ccc(/C=C/[C@@]23NC(=O)CN2c2ccccc2C3(C)C)cc1OC
REMARK SMILES IDX 5 1 6 2 7 3 8 4 26 5 27 6 4 7 3 8 2 9 1 10 28 11 29 12 9 13
REMARK SMILES IDX 10 14 11 15 12 16 16 17 23 18 13 19 15 20 17 21 22 22 14 23
REMARK SMILES IDX 18 24 21 25 19 26 20 27 24 29 25 30
REMARK H PARENT 12 28
ROOT
ATOM      1  C   UNL     1       4.016   0.245   0.289  1.00  0.00     0.161 A 
ATOM      2  C   UNL     1       3.221   1.357   0.624  1.00  0.00     0.051 A 
ATOM      3  C   UNL     1       1.846   1.216   0.805  1.00  0.00     0.012 A 
ATOM      4  C   UNL     1       1.223  -0.030   0.649  1.00  0.00    -0.022 A 
ATOM      5  C   UNL     1       2.016  -1.147   0.318  1.00  0.00     0.058 A 
ATOM      6  C   UNL     1       3.412  -1.014   0.145  1.00  0.00     0.161 A 
ENDROOT
BRANCH   1   7
ATOM      7  O   UNL     1       5.362   0.338   0.112  1.00  0.00    -0.490 OA
BRANCH   7   8
ATOM      8  C   UNL     1       6.127   1.490   0.061  1.00  0.00     0.229 C 
BRANCH   8   9
ATOM      9  C   UNL     1       5.861   2.277  -1.231  1.00  0.00     0.038 C 
ATOM     10  C   UNL     1       6.737   3.524  -1.303  1.00  0.00     0.007 C 
ENDBRANCH   8   9
ENDBRANCH   7   8
ENDBRANCH   1   7
BRANCH   6  11
ATOM     11  O   UNL     1       4.208  -2.075  -0.158  1.00  0.00    -0.493 OA
ATOM     12  C   UNL     1       3.799  -3.386  -0.287  1.00  0.00     0.278 C 
ENDBRANCH   6  11
BRANCH   4  13
ATOM     13  C   UNL     1      -0.252  -0.101   0.848  1.00  0.00     0.008 C 
ATOM     14  C   UNL     1      -1.020  -1.177   0.569  1.00  0.00     0.025 C 
BRANCH  14  15
ATOM     15  C   UNL     1      -2.536  -1.210   0.760  1.00  0.00     0.142 C 
ATOM     16  N   UNL     1      -2.871  -2.314   1.627  1.00  0.00    -0.328 N 
ATOM     17  N   UNL     1      -2.986  -0.034   1.488  1.00  0.00    -0.335 N 
ATOM     18  C   UNL     1      -3.341  -1.188  -0.619  1.00  0.00     0.037 C 
ATOM     19  C   UNL     1      -3.376  -1.856   2.785  1.00  0.00     0.241 C 
ATOM     20  C   UNL     1      -3.463  -0.373   2.813  1.00  0.00     0.219 C 
ATOM     21  C   UNL     1      -3.746   0.777   0.633  1.00  0.00     0.043 A 
ATOM     22  C   UNL     1      -3.950   0.191  -0.590  1.00  0.00    -0.014 A 
ATOM     23  O   UNL     1      -3.706  -2.589   3.704  1.00  0.00    -0.273 OA
ATOM     24  C   UNL     1      -4.283   2.027   0.948  1.00  0.00     0.026 A 
ATOM     25  C   UNL     1      -4.708   0.838  -1.574  1.00  0.00     0.006 A 
ATOM     26  C   UNL     1      -5.029   2.699  -0.031  1.00  0.00     0.002 A 
ATOM     27  C   UNL     1      -5.239   2.107  -1.291  1.00  0.00     0.000 A 
ATOM     28  H   UNL     1      -2.711  -3.310   1.412  1.00  0.00     0.166 HD
ATOM     29  C   UNL     1      -4.492  -2.217  -0.657  1.00  0.00     0.021 C 
ATOM     30  C   UNL     1      -2.456  -1.375  -1.872  1.00  0.00     0.021 C 
ENDBRANCH  14  15
ENDBRANCH   4  13
TORSDOF 6
