REMARK SMILES COC(=O)C1=CNC[C@H]2C(CO)=CC[C@H]12
REMARK SMILES IDX 5 1 6 2 7 3 8 4 9 5 10 6 13 7 14 8 15 9 3 11 4 12 2 13 1 14
REMARK SMILES IDX 11 15 12 16
REMARK H PARENT 7 10 12 17
ROOT
ATOM      1  C   UNL     1       1.338  -0.295  -0.234  1.00  0.00     0.057 C 
ATOM      2  C   UNL     1       1.419  -0.477  -1.577  1.00  0.00     0.089 C 
ATOM      3  N   UNL     1       0.240  -0.734  -2.359  1.00  0.00    -0.390 N 
ATOM      4  C   UNL     1      -1.114  -0.567  -1.832  1.00  0.00     0.121 C 
ATOM      5  C   UNL     1      -1.066   0.199  -0.498  1.00  0.00     0.044 C 
ATOM      6  C   UNL     1      -2.264   0.198   0.402  1.00  0.00    -0.043 C 
ATOM      7  C   UNL     1      -1.877   0.076   1.678  1.00  0.00    -0.024 C 
ATOM      8  C   UNL     1      -0.385  -0.026   1.787  1.00  0.00     0.036 C 
ATOM      9  C   UNL     1      -0.038  -0.477   0.374  1.00  0.00     0.041 C 
ATOM     10  H   UNL     1       0.355  -1.052  -3.333  1.00  0.00     0.160 HD
ENDROOT
BRANCH   1  11
ATOM     11  C   UNL     1       2.545   0.052   0.565  1.00  0.00     0.335 C 
ATOM     12  O   UNL     1       2.466   0.168   1.780  1.00  0.00    -0.247 OA
BRANCH  11  13
ATOM     13  O   UNL     1       3.735   0.246  -0.062  1.00  0.00    -0.466 OA
ATOM     14  C   UNL     1       4.896   0.607   0.589  1.00  0.00     0.282 C 
ENDBRANCH  11  13
ENDBRANCH   1  11
BRANCH   6  15
ATOM     15  C   UNL     1      -3.681   0.459  -0.026  1.00  0.00     0.187 C 
BRANCH  15  16
ATOM     16  O   UNL     1      -4.127  -0.569  -0.869  1.00  0.00    -0.392 OA
ATOM     17  H   UNL     1      -4.061  -0.234  -1.801  1.00  0.00     0.211 HD
ENDBRANCH  15  16
ENDBRANCH   6  15
TORSDOF 4
