REMARK SMILES CCOC(=O)N/N=C(/C)[C@@]12O[C@@H]1C[C@@H]1[C@@H]3CC=C4C[C@H](OC(C)=O)CC[C@]4(C)[C@@H]3CC[C@@]12C
REMARK SMILES IDX 7 1 8 2 9 3 6 4 4 5 5 6 3 8 2 9 1 10 10 11 11 12 12 13 32 14
REMARK SMILES IDX 13 15 31 16 14 17 30 18 15 19 29 20 16 21 27 22 17 23 26 24
REMARK SMILES IDX 18 25 25 26 19 27 20 28 33 29 28 30 21 31 22 32 24 33 23 34
REMARK H PARENT 6 7
ROOT
ATOM      1  N   UNL     1       5.247  -1.553  -0.419  1.00  0.00    -0.177 NA
ATOM      2  C   UNL     1       4.308  -2.284   0.086  1.00  0.00     0.070 C 
ATOM      3  C   UNL     1       4.680  -3.348   1.077  1.00  0.00     0.067 C 
ENDROOT
BRANCH   1   4
ATOM      4  N   UNL     1       5.029  -0.553  -1.342  1.00  0.00    -0.212 N 
ATOM      5  C   UNL     1       5.989   0.363  -1.604  1.00  0.00     0.427 C 
ATOM      6  O   UNL     1       7.063   0.314  -1.019  1.00  0.00    -0.223 OA
ATOM      7  H   UNL     1       4.134  -0.473  -1.838  1.00  0.00     0.197 HD
BRANCH   5   8
ATOM      8  O   UNL     1       5.737   1.342  -2.512  1.00  0.00    -0.449 OA
BRANCH   8   9
ATOM      9  C   UNL     1       6.526   2.460  -2.709  1.00  0.00     0.231 C 
ATOM     10  C   UNL     1       6.440   3.399  -1.507  1.00  0.00     0.049 C 
ENDBRANCH   8   9
ENDBRANCH   5   8
ENDBRANCH   1   4
BRANCH   2  11
ATOM     11  C   UNL     1       2.839  -2.071  -0.221  1.00  0.00     0.140 C 
ATOM     12  O   UNL     1       2.507  -2.345  -1.551  1.00  0.00    -0.359 OA
ATOM     13  C   UNL     1       2.002  -3.255  -0.600  1.00  0.00     0.158 C 
ATOM     14  C   UNL     1       1.928  -0.991   0.426  1.00  0.00     0.008 C 
ATOM     15  C   UNL     1       0.559  -2.885  -0.285  1.00  0.00     0.040 C 
ATOM     16  C   UNL     1       1.526   0.140  -0.603  1.00  0.00     0.011 C 
ATOM     17  C   UNL     1       0.718  -1.849   0.849  1.00  0.00     0.005 C 
ATOM     18  C   UNL     1       0.007   0.333  -0.817  1.00  0.00     0.005 C 
ATOM     19  C   UNL     1      -0.541  -1.038   1.299  1.00  0.00     0.001 C 
ATOM     20  C   UNL     1      -0.740   0.311   0.526  1.00  0.00     0.003 C 
ATOM     21  C   UNL     1      -1.788  -1.903   1.257  1.00  0.00     0.031 C 
ATOM     22  C   UNL     1      -2.243   0.875   0.495  1.00  0.00    -0.008 C 
ATOM     23  C   UNL     1      -2.973  -1.155   1.774  1.00  0.00    -0.027 C 
ATOM     24  C   UNL     1      -2.923   0.848  -0.930  1.00  0.00     0.015 C 
ATOM     25  C   UNL     1      -3.208   0.114   1.395  1.00  0.00    -0.064 C 
ATOM     26  C   UNL     1      -4.472   0.619  -0.922  1.00  0.00     0.046 C 
ATOM     27  C   UNL     1      -4.595   0.716   1.618  1.00  0.00     0.076 C 
ATOM     28  C   UNL     1      -5.154   1.298   0.277  1.00  0.00     0.180 C 
ATOM     29  C   UNL     1       2.589  -0.358   1.673  1.00  0.00     0.015 C 
ATOM     30  C   UNL     1      -2.139   2.347   1.005  1.00  0.00     0.016 C 
BRANCH  28  31
ATOM     31  O   UNL     1      -6.520   1.079   0.218  1.00  0.00    -0.462 OA
BRANCH  31  32
ATOM     32  C   UNL     1      -7.483   2.032   0.114  1.00  0.00     0.302 C 
ATOM     33  O   UNL     1      -7.201   3.221   0.113  1.00  0.00    -0.253 OA
ATOM     34  C   UNL     1      -8.913   1.613  -0.007  1.00  0.00     0.139 C 
ENDBRANCH  31  32
ENDBRANCH  28  31
ENDBRANCH   2  11
TORSDOF 6
