REMARK SMILES C[C@H](CO)CC[C@@H](O)[C@](C)(O)[C@H]1CC[C@@]2(O)C3=CC(=O)[C@@H]4C[C@@H](O)[C@@H](O)C[C@]4(C)[C@@H]3CC[C@]12C
REMARK SMILES IDX 6 1 5 2 2 3 1 4 3 5 4 6 7 8 8 9 9 11 10 12 11 13 12 15 13 16
REMARK SMILES IDX 33 17 14 18 32 19 15 20 31 21 17 22 30 23 18 24 28 25 19 26
REMARK SMILES IDX 27 27 21 28 20 29 25 30 22 31 23 32 34 33 29 34 16 35 26 37
REMARK SMILES IDX 24 39
REMARK H PARENT 4 7 8 10 11 14 16 36 26 38 24 40
ROOT
ATOM      1  C   UNL     1       5.210  -0.076  -0.216  1.00  0.00     0.035 C 
ENDROOT
BRANCH   1   2
ATOM      2  C   UNL     1       6.275  -0.293  -1.316  1.00  0.00     0.008 C 
BRANCH   2   3
ATOM      3  C   UNL     1       7.738  -0.038  -0.870  1.00  0.00     0.011 C 
ATOM      4  C   UNL     1       8.190  -1.047   0.199  1.00  0.00     0.010 C 
BRANCH   3   5
ATOM      5  C   UNL     1       7.966   1.413  -0.409  1.00  0.00     0.159 C 
BRANCH   5   6
ATOM      6  O   UNL     1       9.329   1.653  -0.176  1.00  0.00    -0.396 OA
ATOM      7  H   UNL     1       9.494   1.485   0.788  1.00  0.00     0.210 HD
ENDBRANCH   5   6
ENDBRANCH   3   5
ENDBRANCH   2   3
ENDBRANCH   1   2
BRANCH   1   8
ATOM      8  C   UNL     1       3.784  -0.427  -0.736  1.00  0.00     0.146 C 
BRANCH   8   9
ATOM      9  O   UNL     1       3.791  -1.751  -1.201  1.00  0.00    -0.390 OA
ATOM     10  H   UNL     1       4.028  -2.341  -0.437  1.00  0.00     0.211 HD
ENDBRANCH   8   9
BRANCH   8  11
ATOM     11  C   UNL     1       2.611  -0.188   0.299  1.00  0.00     0.091 C 
ATOM     12  C   UNL     1       2.616   1.291   0.765  1.00  0.00     0.045 C 
BRANCH  11  13
ATOM     13  O   UNL     1       2.778  -1.041   1.410  1.00  0.00    -0.387 OA
ATOM     14  H   UNL     1       3.531  -0.700   1.961  1.00  0.00     0.211 HD
ENDBRANCH  11  13
BRANCH  11  15
ATOM     15  C   UNL     1       1.211  -0.508  -0.375  1.00  0.00     0.032 C 
ATOM     16  C   UNL     1       1.060  -1.973  -0.896  1.00  0.00     0.010 C 
ATOM     17  C   UNL     1      -0.155  -0.260   0.359  1.00  0.00     0.006 C 
ATOM     18  C   UNL     1      -0.440  -2.314  -0.849  1.00  0.00     0.041 C 
ATOM     19  C   UNL     1      -0.595   1.238   0.528  1.00  0.00     0.011 C 
ATOM     20  C   UNL     1      -1.129  -0.963  -0.638  1.00  0.00     0.092 C 
ATOM     21  C   UNL     1      -2.103   1.501   0.258  1.00  0.00     0.009 C 
ATOM     22  C   UNL     1      -2.549  -0.955  -0.062  1.00  0.00    -0.031 C 
ATOM     23  C   UNL     1      -3.049   0.317   0.627  1.00  0.00     0.025 C 
ATOM     24  C   UNL     1      -3.300  -2.062  -0.029  1.00  0.00     0.050 C 
ATOM     25  C   UNL     1      -4.591   0.604   0.426  1.00  0.00    -0.013 C 
ATOM     26  C   UNL     1      -4.679  -2.035   0.464  1.00  0.00     0.159 C 
ATOM     27  C   UNL     1      -4.894   1.208  -0.976  1.00  0.00     0.042 C 
ATOM     28  C   UNL     1      -5.452  -0.736   0.624  1.00  0.00     0.070 C 
ATOM     29  O   UNL     1      -5.255  -3.100   0.636  1.00  0.00    -0.295 OA
ATOM     30  C   UNL     1      -6.409   1.473  -1.264  1.00  0.00     0.143 C 
ATOM     31  C   UNL     1      -6.645  -0.860  -0.391  1.00  0.00     0.047 C 
ATOM     32  C   UNL     1      -7.385   0.460  -0.597  1.00  0.00     0.143 C 
ATOM     33  C   UNL     1      -0.133  -0.921   1.781  1.00  0.00     0.015 C 
ATOM     34  C   UNL     1      -4.976   1.631   1.539  1.00  0.00     0.013 C 
BRANCH  20  35
ATOM     35  O   UNL     1      -1.138  -0.271  -1.869  1.00  0.00    -0.385 OA
ATOM     36  H   UNL     1      -1.699  -0.796  -2.500  1.00  0.00     0.211 HD
ENDBRANCH  20  35
BRANCH  30  37
ATOM     37  O   UNL     1      -6.810   2.803  -1.038  1.00  0.00    -0.390 OA
ATOM     38  H   UNL     1      -6.597   3.046  -0.106  1.00  0.00     0.211 HD
ENDBRANCH  30  37
BRANCH  32  39
ATOM     39  O   UNL     1      -7.875   0.938   0.630  1.00  0.00    -0.390 OA
ATOM     40  H   UNL     1      -8.381   0.201   1.061  1.00  0.00     0.211 HD
ENDBRANCH  32  39
ENDBRANCH  11  15
ENDBRANCH   8  11
ENDBRANCH   1   8
TORSDOF 12
