REMARK SMILES COc1cc2c(c(O)c1OC)-c1c(cc(O)c(OC)c1OC)C[C@H](C)[C@H](C)C2
REMARK SMILES IDX 3 1 4 2 5 3 6 4 7 5 9 6 2 7 1 8 10 9 11 10 28 11 26 12 27 13
REMARK SMILES IDX 24 14 25 15 8 17 12 19 13 20 20 21 14 22 17 23 15 24 23 25
REMARK SMILES IDX 21 27 22 28 18 29 19 30 16 31
REMARK H PARENT 8 18 16 32
REMARK Flexibility Score:    8.900
ROOT
ATOM      1  C   UNL     1      -0.572   2.976   1.002  1.00  0.00     0.164 A 
ATOM      2  C   UNL     1      -1.490   2.078   0.446  1.00  0.00     0.055 A 
ATOM      3  C   UNL     1      -1.083   0.826  -0.027  1.00  0.00    -0.032 A 
ATOM      4  C   UNL     1       0.262   0.413   0.099  1.00  0.00     0.035 A 
ATOM      5  C   UNL     1       1.197   1.329   0.682  1.00  0.00     0.170 A 
ATOM      6  C   UNL     1       0.776   2.617   1.103  1.00  0.00     0.203 A 
ENDROOT
BRANCH   1   7
ATOM      7  O   UNL     1      -0.942   4.207   1.449  1.00  0.00    -0.493 OA
ATOM      8  C   UNL     1      -2.221   4.721   1.454  1.00  0.00     0.278 C 
ENDBRANCH   1   7
BRANCH   6   9
ATOM      9  O   UNL     1       1.616   3.563   1.613  1.00  0.00    -0.490 OA
ATOM     10  C   UNL     1       2.996   3.585   1.583  1.00  0.00     0.278 C 
ENDBRANCH   6   9
BRANCH   3  11
ATOM     11  C   UNL     1      -2.120  -0.058  -0.653  1.00  0.00     0.040 C 
BRANCH  11  12
ATOM     12  C   UNL     1      -2.946  -0.712   0.454  1.00  0.00    -0.007 C 
ATOM     13  C   UNL     1      -4.006  -1.626  -0.193  1.00  0.00     0.008 C 
BRANCH  12  14
ATOM     14  C   UNL     1      -2.010  -1.423   1.498  1.00  0.00    -0.007 CG0
ATOM     15  C   UNL     1      -2.851  -2.042   2.631  1.00  0.00     0.008 C 
ATOM     16  G   UNL     1      -1.088  -2.506   0.887  1.00  0.00     0.000 G0
ENDBRANCH  12  14
ENDBRANCH  11  12
ENDBRANCH   3  11
BRANCH   5  17
ATOM     17  O   UNL     1       2.489   0.980   0.883  1.00  0.00    -0.504 OA
ATOM     18  H   UNL     1       2.849   0.091   0.777  1.00  0.00     0.293 HD
ENDBRANCH   5  17
BRANCH   4  19
ATOM     19  C   UNL     1       0.721  -0.939  -0.404  1.00  0.00     0.035 A 
ATOM     20  C   UNL     1       0.106  -2.199  -0.041  1.00  0.00    -0.032 A 
ATOM     21  C   UNL     1       1.865  -0.964  -1.274  1.00  0.00     0.172 A 
ATOM     22  C   UNL     1       0.687  -3.385  -0.531  1.00  0.00     0.054 A 
ATOM     23  C   UNL     1       2.421  -2.192  -1.711  1.00  0.00     0.203 A 
ATOM     24  C   UNL     1       1.814  -3.387  -1.341  1.00  0.00     0.161 A 
BRANCH  20  25
ATOM     25  C   UNL     1      -1.088  -2.506   0.887  1.00  0.00     0.040 CG0
ATOM     26  G   UNL     1      -2.010  -1.423   1.498  1.00  0.00     0.000 G0
ENDBRANCH  20  25
BRANCH  21  27
ATOM     27  O   UNL     1       2.445   0.187  -1.702  1.00  0.00    -0.492 OA
ATOM     28  C   UNL     1       1.826   1.104  -2.534  1.00  0.00     0.278 C 
ENDBRANCH  21  27
BRANCH  23  29
ATOM     29  O   UNL     1       3.539  -2.297  -2.484  1.00  0.00    -0.490 OA
ATOM     30  C   UNL     1       4.426  -1.306  -2.850  1.00  0.00     0.278 C 
ENDBRANCH  23  29
BRANCH  24  31
ATOM     31  O   UNL     1       2.337  -4.556  -1.771  1.00  0.00    -0.504 OA
ATOM     32  H   UNL     1       1.949  -5.413  -1.543  1.00  0.00     0.293 HD
ENDBRANCH  24  31
ENDBRANCH   4  19
TORSDOF 6
