REMARK SMILES Nc1nc(O)[nH]c2ncnc1-2
REMARK SMILES IDX 2 1 11 2 10 3 9 4 8 5 7 6 6 7 4 8 3 9 1 11 5 14
REMARK H PARENT 6 10 1 12 1 13 5 15
ROOT
ATOM      1  C   UNL     1       1.162  -0.529   0.082  1.00  0.00     0.158 A 
ATOM      2  C   UNL     1       0.531   0.686  -0.123  1.00  0.00     0.150 A 
ATOM      3  N   UNL     1       1.022   1.923  -0.279  1.00  0.00    -0.229 NA
ATOM      4  C   UNL     1      -0.091   2.694  -0.441  1.00  0.00     0.225 A 
ATOM      5  N   UNL     1      -1.265   2.002  -0.395  1.00  0.00    -0.217 NA
ATOM      6  C   UNL     1      -0.872   0.738  -0.194  1.00  0.00     0.165 A 
ATOM      7  N   UNL     1      -1.641  -0.367  -0.069  1.00  0.00    -0.292 N 
ATOM      8  C   UNL     1      -1.007  -1.568   0.133  1.00  0.00     0.294 A 
ATOM      9  N   UNL     1       0.366  -1.635   0.205  1.00  0.00    -0.178 NA
ATOM     10  H   UNL     1      -2.682  -0.302  -0.126  1.00  0.00     0.173 HD
ENDROOT
BRANCH   1  11
ATOM     11  N   UNL     1       2.569  -0.638   0.162  1.00  0.00    -0.382 N 
ATOM     12  H   UNL     1       3.169   0.195   0.069  1.00  0.00     0.158 HD
ATOM     13  H   UNL     1       3.009  -1.556   0.314  1.00  0.00     0.158 HD
ENDBRANCH   1  11
BRANCH   8  14
ATOM     14  O   UNL     1      -1.726  -2.700   0.264  1.00  0.00    -0.480 OA
ATOM     15  H   UNL     1      -2.692  -2.696   0.219  1.00  0.00     0.296 HD
ENDBRANCH   8  14
TORSDOF 2
