REMARK SMILES C[C@@H]1O[C@@H](O[C@H]2[C@H](O[C@H]3[C@H](O[C@H]4CC[C@]5(C)[C@H]6CC=C7[C@@H]8C[C@](C)(C(=O)O[C@@H]9O[C@H](CO)[C@@H](O)[C@H](O)[C@H]9O[C@H]9O[C@H](CO)[C@@H](O)[C@H](O)[C@H]9O)CC[C@]8(C)CC[C@]7(C)[C@]6(C)CC[C@H]5C4(C)C)O[C@H](C(=O)O)[C@@H](O)[C@@H]3O)O[C@H](CO)[C@@H](O[C@@H]3O[C@@H](C)[C@H](O)[C@@H](O)[C@H]3O)[C@@H]2O)[C@H](O)[C@H](O)[C@H]1O
REMARK SMILES IDX 12 1 13 2 14 3 15 4 16 5 17 6 18 7 19 8 20 9 21 10 22 11
REMARK SMILES IDX 23 12 24 13 50 14 51 15 52 16 53 17 54 18 55 19 56 20 57 21
REMARK SMILES IDX 58 22 59 23 60 24 61 25 62 26 63 27 64 28 65 29 11 30 10 31
REMARK SMILES IDX 9 32 73 33 66 34 71 35 67 36 8 37 7 38 6 39 91 40 75 41
REMARK SMILES IDX 79 42 76 43 5 44 4 45 2 46 3 47 97 48 95 49 93 50 1 51 98 52
REMARK SMILES IDX 96 54 94 56 92 58 80 60 81 61 82 62 89 63 83 64 87 65 85 66
REMARK SMILES IDX 84 67 90 68 88 70 86 72 77 74 78 75 74 77 72 79 68 81 69 82
REMARK SMILES IDX 70 83 25 85 26 86 27 87 28 88 29 89 37 90 30 91 35 92 33 93
REMARK SMILES IDX 38 94 39 95 40 96 48 97 41 98 46 99 44 100 49 101 42 103
REMARK SMILES IDX 43 104 47 106 45 108 31 110 32 111 36 113 34 115
REMARK H PARENT 98 53 96 55 94 57 92 59 90 69 88 71 86 73 78 76 74 78 72 80
REMARK H PARENT 70 84 49 102 43 105 47 107 45 109 32 112 36 114 34 116
ROOT
ATOM      1  C   UNL     1      -2.572  -1.694   0.506  1.00  0.00     0.127 C 
ATOM      2  C   UNL     1      -1.710  -2.925   0.890  1.00  0.00     0.033 C 
ATOM      3  C   UNL     1      -0.472  -3.192  -0.013  1.00  0.00     0.010 C 
ATOM      4  C   UNL     1       0.168  -1.919  -0.695  1.00  0.00    -0.025 C 
ATOM      5  C   UNL     1      -0.446  -1.830  -2.112  1.00  0.00     0.012 C 
ATOM      6  C   UNL     1       1.740  -2.069  -0.781  1.00  0.00     0.006 C 
ATOM      7  C   UNL     1       2.357  -3.422  -1.210  1.00  0.00     0.032 C 
ATOM      8  C   UNL     1       3.743  -3.424  -0.550  1.00  0.00    -0.027 C 
ATOM      9  C   UNL     1       4.542  -2.327  -0.628  1.00  0.00    -0.064 C 
ATOM     10  C   UNL     1       5.833  -2.223   0.220  1.00  0.00     0.022 C 
ATOM     11  C   UNL     1       5.791  -1.278   1.455  1.00  0.00     0.027 C 
ATOM     12  C   UNL     1       7.092  -1.404   2.339  1.00  0.00     0.066 C 
ATOM     13  C   UNL     1       6.809  -2.332   3.543  1.00  0.00     0.024 C 
ATOM     14  C   UNL     1       8.271  -2.043   1.529  1.00  0.00     0.019 C 
ATOM     15  C   UNL     1       8.337  -1.481   0.104  1.00  0.00     0.008 C 
ATOM     16  C   UNL     1       7.029  -1.809  -0.707  1.00  0.00    -0.026 C 
ATOM     17  C   UNL     1       7.355  -3.058  -1.577  1.00  0.00     0.012 C 
ATOM     18  C   UNL     1       6.643  -0.546  -1.602  1.00  0.00     0.008 C 
ATOM     19  C   UNL     1       5.148  -0.069  -1.528  1.00  0.00     0.012 C 
ATOM     20  C   UNL     1       4.131  -1.234  -1.617  1.00  0.00    -0.006 C 
ATOM     21  C   UNL     1       4.356  -1.804  -3.080  1.00  0.00     0.017 C 
ATOM     22  C   UNL     1       2.566  -0.807  -1.361  1.00  0.00    -0.020 C 
ATOM     23  C   UNL     1       2.083  -0.180  -2.713  1.00  0.00     0.012 C 
ATOM     24  C   UNL     1       2.309   0.275  -0.259  1.00  0.00     0.008 C 
ATOM     25  C   UNL     1       0.776   0.568  -0.050  1.00  0.00     0.005 C 
ATOM     26  C   UNL     1      -0.106  -0.695   0.265  1.00  0.00     0.003 C 
ATOM     27  C   UNL     1      -1.657  -0.389   0.558  1.00  0.00    -0.006 C 
ATOM     28  C   UNL     1      -1.746   0.204   1.994  1.00  0.00     0.014 C 
ATOM     29  C   UNL     1      -2.246   0.680  -0.397  1.00  0.00     0.014 C 
ENDROOT
BRANCH   1  30
ATOM     30  O   UNL     1      -3.238  -1.795  -0.753  1.00  0.00    -0.346 OA
BRANCH  30  31
ATOM     31  C   UNL     1      -4.142  -2.885  -0.873  1.00  0.00     0.283 C 
ATOM     32  C   UNL     1      -5.575  -2.386  -1.280  1.00  0.00     0.209 C 
ATOM     33  C   UNL     1      -6.421  -3.659  -1.485  1.00  0.00     0.180 C 
ATOM     34  O   UNL     1      -3.557  -3.832  -1.779  1.00  0.00    -0.332 OA
ATOM     35  C   UNL     1      -5.794  -4.588  -2.554  1.00  0.00     0.186 C 
ATOM     36  C   UNL     1      -4.333  -4.187  -2.922  1.00  0.00     0.262 C 
BRANCH  32  37
ATOM     37  O   UNL     1      -6.141  -1.572  -0.254  1.00  0.00    -0.338 OA
BRANCH  37  38
ATOM     38  C   UNL     1      -7.040  -0.606  -0.800  1.00  0.00     0.283 C 
ATOM     39  C   UNL     1      -8.296  -0.465   0.129  1.00  0.00     0.209 C 
ATOM     40  C   UNL     1      -8.067   0.672   1.151  1.00  0.00     0.180 C 
ATOM     41  O   UNL     1      -6.309   0.605  -0.990  1.00  0.00    -0.341 OA
ATOM     42  C   UNL     1      -7.664   2.013   0.445  1.00  0.00     0.184 C 
ATOM     43  C   UNL     1      -7.153   1.735  -0.997  1.00  0.00     0.178 C 
BRANCH  39  44
ATOM     44  O   UNL     1      -9.443  -0.160  -0.665  1.00  0.00    -0.338 OA
BRANCH  44  45
ATOM     45  C   UNL     1     -10.528  -1.030  -0.369  1.00  0.00     0.282 C 
ATOM     46  C   UNL     1     -11.273  -3.283  -0.596  1.00  0.00     0.150 C 
ATOM     47  O   UNL     1     -10.228  -2.346  -0.844  1.00  0.00    -0.344 OA
ATOM     48  C   UNL     1     -12.622  -2.828  -1.230  1.00  0.00     0.174 C 
ATOM     49  C   UNL     1     -12.999  -1.411  -0.765  1.00  0.00     0.179 C 
ATOM     50  C   UNL     1     -11.800  -0.480  -1.059  1.00  0.00     0.202 C 
ATOM     51  C   UNL     1     -11.360  -3.679   0.892  1.00  0.00     0.041 C 
BRANCH  48  52
ATOM     52  O   UNL     1     -12.562  -2.867  -2.640  1.00  0.00    -0.388 OA
ATOM     53  H   UNL     1     -11.651  -2.614  -2.941  1.00  0.00     0.211 HD
ENDBRANCH  48  52
BRANCH  49  54
ATOM     54  O   UNL     1     -13.306  -1.443   0.607  1.00  0.00    -0.387 OA
ATOM     55  H   UNL     1     -13.526  -0.521   0.894  1.00  0.00     0.211 HD
ENDBRANCH  49  54
BRANCH  50  56
ATOM     56  O   UNL     1     -12.083   0.846  -0.681  1.00  0.00    -0.385 OA
ATOM     57  H   UNL     1     -11.886   0.941   0.286  1.00  0.00     0.211 HD
ENDBRANCH  50  56
ENDBRANCH  44  45
ENDBRANCH  39  44
BRANCH  40  58
ATOM     58  O   UNL     1      -7.080   0.280   2.078  1.00  0.00    -0.387 OA
ATOM     59  H   UNL     1      -6.202   0.257   1.619  1.00  0.00     0.211 HD
ENDBRANCH  40  58
BRANCH  42  60
ATOM     60  O   UNL     1      -8.764   2.915   0.372  1.00  0.00    -0.341 OA
BRANCH  60  61
ATOM     61  C   UNL     1      -8.824   3.820   1.477  1.00  0.00     0.282 C 
ATOM     62  O   UNL     1      -9.984   3.550   2.248  1.00  0.00    -0.344 OA
ATOM     63  C   UNL     1      -8.727   5.309   1.001  1.00  0.00     0.202 C 
ATOM     64  C   UNL     1     -11.229   3.913   1.648  1.00  0.00     0.150 C 
ATOM     65  C   UNL     1     -10.020   6.115   1.272  1.00  0.00     0.179 C 
ATOM     66  C   UNL     1     -11.201   5.249   0.826  1.00  0.00     0.174 C 
ATOM     67  C   UNL     1     -12.245   4.021   2.791  1.00  0.00     0.041 C 
BRANCH  63  68
ATOM     68  O   UNL     1      -7.584   5.969   1.488  1.00  0.00    -0.385 OA
ATOM     69  H   UNL     1      -7.632   5.969   2.478  1.00  0.00     0.211 HD
ENDBRANCH  63  68
BRANCH  65  70
ATOM     70  O   UNL     1     -10.165   6.510   2.619  1.00  0.00    -0.387 OA
ATOM     71  H   UNL     1      -9.806   5.803   3.214  1.00  0.00     0.211 HD
ENDBRANCH  65  70
BRANCH  66  72
ATOM     72  O   UNL     1     -11.123   5.016  -0.565  1.00  0.00    -0.388 OA
ATOM     73  H   UNL     1     -10.597   4.196  -0.740  1.00  0.00     0.211 HD
ENDBRANCH  66  72
ENDBRANCH  60  61
ENDBRANCH  42  60
BRANCH  43  74
ATOM     74  C   UNL     1      -6.371   2.921  -1.581  1.00  0.00     0.191 C 
BRANCH  74  75
ATOM     75  O   UNL     1      -7.177   4.059  -1.701  1.00  0.00    -0.394 OA
ATOM     76  H   UNL     1      -7.740   3.926  -2.507  1.00  0.00     0.210 HD
ENDBRANCH  74  75
ENDBRANCH  43  74
ENDBRANCH  37  38
ENDBRANCH  32  37
BRANCH  33  77
ATOM     77  O   UNL     1      -7.773  -3.406  -1.767  1.00  0.00    -0.387 OA
ATOM     78  H   UNL     1      -7.817  -2.976  -2.661  1.00  0.00     0.211 HD
ENDBRANCH  33  77
BRANCH  35  79
ATOM     79  O   UNL     1      -5.876  -5.925  -2.127  1.00  0.00    -0.387 OA
ATOM     80  H   UNL     1      -5.226  -6.040  -1.387  1.00  0.00     0.211 HD
ENDBRANCH  35  79
BRANCH  36  81
ATOM     81  C   UNL     1      -4.284  -3.160  -4.062  1.00  0.00     0.335 C 
ATOM     82  O   UNL     1      -4.804  -3.456  -5.127  1.00  0.00    -0.249 OA
BRANCH  81  83
ATOM     83  O   UNL     1      -3.683  -1.960  -3.967  1.00  0.00    -0.479 OA
ATOM     84  H   UNL     1      -3.290  -1.619  -3.161  1.00  0.00     0.296 HD
ENDBRANCH  81  83
ENDBRANCH  36  81
ENDBRANCH  30  31
ENDBRANCH   1  30
BRANCH  12  85
ATOM     85  C   UNL     1       7.514  -0.007   2.838  1.00  0.00     0.314 C 
ATOM     86  O   UNL     1       7.552   0.243   4.036  1.00  0.00    -0.252 OA
BRANCH  85  87
ATOM     87  O   UNL     1       7.889   0.940   1.931  1.00  0.00    -0.432 OA
BRANCH  87  88
ATOM     88  C   UNL     1       8.384   2.211   2.184  1.00  0.00     0.343 C 
ATOM     89  O   UNL     1       7.512   3.149   1.538  1.00  0.00    -0.332 OA
ATOM     90  C   UNL     1       9.830   2.291   1.635  1.00  0.00     0.222 C 
ATOM     91  C   UNL     1       8.087   4.414   1.177  1.00  0.00     0.179 C 
ATOM     92  C   UNL     1      10.428   3.687   1.931  1.00  0.00     0.181 C 
ATOM     93  C   UNL     1       9.333   4.781   2.024  1.00  0.00     0.177 C 
BRANCH  90  94
ATOM     94  O   UNL     1      10.639   1.274   2.211  1.00  0.00    -0.337 OA
BRANCH  94  95
ATOM     95  C   UNL     1      11.712   0.866   1.368  1.00  0.00     0.282 C 
ATOM     96  O   UNL     1      12.915   1.503   1.763  1.00  0.00    -0.341 OA
ATOM     97  C   UNL     1      11.844  -0.680   1.459  1.00  0.00     0.202 C 
ATOM     98  C   UNL     1      14.039   1.153   0.934  1.00  0.00     0.178 C 
ATOM     99  C   UNL     1      13.195  -1.192   0.903  1.00  0.00     0.179 C 
ATOM    100  C   UNL     1      13.839  -0.111   0.026  1.00  0.00     0.177 C 
BRANCH  97 101
ATOM    101  O   UNL     1      11.654  -1.161   2.766  1.00  0.00    -0.385 OA
ATOM    102  H   UNL     1      12.287  -0.672   3.356  1.00  0.00     0.211 HD
ENDBRANCH  97 101
BRANCH  98 103
ATOM    103  C   UNL     1      14.505   2.367   0.121  1.00  0.00     0.191 C 
BRANCH 103 104
ATOM    104  O   UNL     1      13.512   2.782  -0.779  1.00  0.00    -0.394 OA
ATOM    105  H   UNL     1      13.705   2.341  -1.648  1.00  0.00     0.210 HD
ENDBRANCH 103 104
ENDBRANCH  98 103
BRANCH  99 106
ATOM    106  O   UNL     1      13.044  -2.421   0.239  1.00  0.00    -0.387 OA
ATOM    107  H   UNL     1      12.499  -2.252  -0.574  1.00  0.00     0.211 HD
ENDBRANCH  99 106
BRANCH 100 108
ATOM    108  O   UNL     1      15.059  -0.543  -0.527  1.00  0.00    -0.387 OA
ATOM    109  H   UNL     1      15.650  -0.824   0.219  1.00  0.00     0.211 HD
ENDBRANCH 100 108
ENDBRANCH  94  95
ENDBRANCH  90  94
BRANCH  91 110
ATOM    110  C   UNL     1       8.298   4.498  -0.350  1.00  0.00     0.191 C 
BRANCH 110 111
ATOM    111  O   UNL     1       8.779   5.764  -0.717  1.00  0.00    -0.394 OA
ATOM    112  H   UNL     1       8.001   6.380  -0.716  1.00  0.00     0.210 HD
ENDBRANCH 110 111
ENDBRANCH  91 110
BRANCH  92 113
ATOM    113  O   UNL     1      11.437   4.002   1.004  1.00  0.00    -0.387 OA
ATOM    114  H   UNL     1      11.010   4.220   0.140  1.00  0.00     0.211 HD
ENDBRANCH  92 113
BRANCH  93 115
ATOM    115  O   UNL     1       8.917   4.873   3.366  1.00  0.00    -0.387 OA
ATOM    116  H   UNL     1       8.455   5.747   3.470  1.00  0.00     0.211 HD
ENDBRANCH  93 115
ENDBRANCH  87  88
ENDBRANCH  85  87
ENDBRANCH  12  85
TORSDOF 35
