REMARK SMILES COc1cc([C@H]2OC[C@H]([C@@H](OC(C)=O)c3ccc(OC(C)=O)c(OC)c3)[C@@H]2COC(C)=O)ccc1OC(C)=O
REMARK SMILES IDX 6 1 7 2 8 3 9 4 27 5 5 6 3 7 4 8 35 9 34 10 33 11 2 12 1 13
REMARK SMILES IDX 36 14 37 15 39 16 38 17 28 18 29 19 30 20 32 21 31 22 10 23
REMARK SMILES IDX 11 24 12 25 14 26 13 27 15 28 16 29 26 30 17 31 23 32 18 33
REMARK SMILES IDX 24 34 25 35 19 36 20 37 22 38 21 39
REMARK H PARENT
ROOT
ATOM      1  C   UNL     1      -1.380   0.274  -0.594  1.00  0.00     0.155 C 
ATOM      2  O   UNL     1      -0.623   1.471  -0.583  1.00  0.00    -0.373 OA
ATOM      3  C   UNL     1       0.301   1.348   0.475  1.00  0.00     0.169 C 
ATOM      4  C   UNL     1       0.535  -0.143   0.744  1.00  0.00     0.070 C 
ATOM      5  C   UNL     1      -0.869  -0.649   0.517  1.00  0.00     0.070 C 
ENDROOT
BRANCH   1   6
ATOM      6  C   UNL     1      -2.854   0.551  -0.373  1.00  0.00    -0.015 A 
ATOM      7  C   UNL     1      -5.188   0.120  -0.953  1.00  0.00     0.161 A 
ATOM      8  C   UNL     1      -3.809  -0.076  -1.183  1.00  0.00     0.057 A 
ATOM      9  C   UNL     1      -5.596   0.972   0.085  1.00  0.00     0.172 A 
ATOM     10  C   UNL     1      -4.647   1.597   0.898  1.00  0.00     0.051 A 
ATOM     11  C   UNL     1      -3.286   1.378   0.680  1.00  0.00     0.010 A 
BRANCH   7  12
ATOM     12  O   UNL     1      -6.133  -0.504  -1.702  1.00  0.00    -0.493 OA
ATOM     13  C   UNL     1      -5.875  -1.426  -2.697  1.00  0.00     0.278 C 
ENDBRANCH   7  12
BRANCH   9  14
ATOM     14  O   UNL     1      -6.912   1.197   0.304  1.00  0.00    -0.423 OA
BRANCH  14  15
ATOM     15  C   UNL     1      -7.587   2.230  -0.266  1.00  0.00     0.308 C 
ATOM     16  O   UNL     1      -7.026   2.991  -1.043  1.00  0.00    -0.252 OA
ATOM     17  C   UNL     1      -9.032   2.445   0.052  1.00  0.00     0.139 C 
ENDBRANCH  14  15
ENDBRANCH   9  14
ENDBRANCH   1   6
BRANCH   5  18
ATOM     18  C   UNL     1      -1.081  -2.138   0.159  1.00  0.00     0.240 C 
BRANCH  18  19
ATOM     19  O   UNL     1      -0.539  -3.002   1.083  1.00  0.00    -0.465 OA
BRANCH  19  20
ATOM     20  C   UNL     1      -0.973  -3.168   2.354  1.00  0.00     0.302 C 
ATOM     21  O   UNL     1      -1.896  -2.502   2.800  1.00  0.00    -0.253 OA
ATOM     22  C   UNL     1      -0.332  -4.210   3.205  1.00  0.00     0.139 C 
ENDBRANCH  19  20
ENDBRANCH  18  19
ENDBRANCH   5  18
BRANCH   4  23
ATOM     23  C   UNL     1       1.685  -0.821  -0.057  1.00  0.00     0.213 C 
BRANCH  23  24
ATOM     24  O   UNL     1       1.554  -0.822  -1.442  1.00  0.00    -0.457 OA
BRANCH  24  25
ATOM     25  C   UNL     1       1.685  -1.942  -2.216  1.00  0.00     0.303 C 
ATOM     26  O   UNL     1       1.838  -3.046  -1.711  1.00  0.00    -0.253 OA
ATOM     27  C   UNL     1       1.692  -1.839  -3.707  1.00  0.00     0.139 C 
ENDBRANCH  24  25
ENDBRANCH  23  24
BRANCH  23  28
ATOM     28  C   UNL     1       3.005  -0.203   0.350  1.00  0.00    -0.003 A 
ATOM     29  C   UNL     1       3.695  -0.716   1.462  1.00  0.00     0.012 A 
ATOM     30  C   UNL     1       3.537   0.897  -0.339  1.00  0.00     0.058 A 
ATOM     31  C   UNL     1       4.897  -0.144   1.868  1.00  0.00     0.052 A 
ATOM     32  C   UNL     1       4.752   1.481   0.066  1.00  0.00     0.161 A 
ATOM     33  C   UNL     1       5.431   0.943   1.169  1.00  0.00     0.172 A 
BRANCH  32  34
ATOM     34  O   UNL     1       5.291   2.550  -0.577  1.00  0.00    -0.493 OA
ATOM     35  C   UNL     1       4.729   3.196  -1.659  1.00  0.00     0.278 C 
ENDBRANCH  32  34
BRANCH  33  36
ATOM     36  O   UNL     1       6.620   1.462   1.554  1.00  0.00    -0.423 OA
BRANCH  36  37
ATOM     37  C   UNL     1       7.797   0.946   1.116  1.00  0.00     0.308 C 
ATOM     38  O   UNL     1       7.822   0.022   0.312  1.00  0.00    -0.252 OA
ATOM     39  C   UNL     1       9.089   1.506   1.608  1.00  0.00     0.139 C 
ENDBRANCH  36  37
ENDBRANCH  33  36
ENDBRANCH  23  28
ENDBRANCH   4  23
TORSDOF 14
