REMARK SMILES COc1cc(C=O)ccc1OC(=O)N1CCOCC1
REMARK SMILES IDX 3 1 4 2 5 3 8 4 9 5 10 6 2 7 1 8 11 9 12 10 13 11 14 12
REMARK SMILES IDX 15 13 19 14 16 15 18 16 17 17 6 18 7 19
REMARK H PARENT
ROOT
ATOM      1  C   UNL     1       2.063  -0.306   0.553  1.00  0.00     0.162 A 
ATOM      2  C   UNL     1       3.458  -0.219   0.359  1.00  0.00     0.062 A 
ATOM      3  C   UNL     1       4.017   0.866  -0.334  1.00  0.00     0.018 A 
ATOM      4  C   UNL     1       3.175   1.874  -0.830  1.00  0.00     0.015 A 
ATOM      5  C   UNL     1       1.794   1.795  -0.640  1.00  0.00     0.052 A 
ATOM      6  C   UNL     1       1.236   0.709   0.042  1.00  0.00     0.174 A 
ENDROOT
BRANCH   1   7
ATOM      7  O   UNL     1       1.484  -1.342   1.217  1.00  0.00    -0.493 OA
ATOM      8  C   UNL     1       2.149  -2.415   1.777  1.00  0.00     0.278 C 
ENDBRANCH   1   7
BRANCH   6   9
ATOM      9  O   UNL     1      -0.106   0.639   0.198  1.00  0.00    -0.406 OA
BRANCH   9  10
ATOM     10  C   UNL     1      -0.914  -0.019  -0.677  1.00  0.00     0.415 C 
ATOM     11  O   UNL     1      -0.432  -0.528  -1.683  1.00  0.00    -0.224 OA
ATOM     12  N   UNL     1      -2.254  -0.132  -0.434  1.00  0.00    -0.303 N 
ATOM     13  C   UNL     1      -3.120  -0.829  -1.377  1.00  0.00     0.151 C 
ATOM     14  C   UNL     1      -2.884   0.471   0.728  1.00  0.00     0.151 C 
ATOM     15  C   UNL     1      -4.579  -0.800  -0.886  1.00  0.00     0.182 C 
ATOM     16  C   UNL     1      -4.109   1.264   0.232  1.00  0.00     0.182 C 
ATOM     17  O   UNL     1      -5.012   0.523  -0.598  1.00  0.00    -0.378 OA
ENDBRANCH   9  10
ENDBRANCH   6   9
BRANCH   3  18
ATOM     18  C   UNL     1       5.481   0.927  -0.533  1.00  0.00     0.260 C 
ATOM     19  O   UNL     1       5.997   1.854  -1.137  1.00  0.00    -0.298 OA
ENDBRANCH   3  18
TORSDOF 4
