REMARK SMILES [C-]#[N+][C@@H]1[C@]2(C)CC[C@H]3[C@@H](C2)[C@@H](C(C)C)C[C@@]13C
REMARK SMILES IDX 1 1 2 2 3 3 4 4 5 5 6 6 7 7 8 8 9 9 10 10 11 11 15 12 16 13
REMARK SMILES IDX 17 14 12 15 13 16 14 17
REMARK H PARENT
ROOT
ATOM      1  C   UNL     1      -3.927   1.787  -0.448  1.00  0.00    -0.234 C 
ATOM      2  N   UNL     1      -2.900   1.260  -0.538  1.00  0.00    -0.312 N 
ATOM      3  C   UNL     1      -1.645   0.610  -0.664  1.00  0.00     0.359 C 
ATOM      4  C   UNL     1      -1.790  -0.876  -0.191  1.00  0.00     0.044 C 
ATOM      5  C   UNL     1      -2.655  -1.699  -1.162  1.00  0.00     0.020 C 
ATOM      6  C   UNL     1      -2.409  -0.903   1.234  1.00  0.00     0.015 C 
ATOM      7  C   UNL     1      -1.660   0.077   2.159  1.00  0.00     0.005 C 
ATOM      8  C   UNL     1      -0.330   0.515   1.517  1.00  0.00     0.006 C 
ATOM      9  C   UNL     1       0.501  -0.686   0.980  1.00  0.00    -0.003 C 
ATOM     10  C   UNL     1      -0.371  -1.492  -0.063  1.00  0.00     0.019 C 
ATOM     11  C   UNL     1       1.646   0.112   0.336  1.00  0.00    -0.004 C 
ATOM     12  C   UNL     1       0.897   1.158  -0.505  1.00  0.00     0.019 C 
ATOM     13  C   UNL     1      -0.508   1.328   0.193  1.00  0.00     0.047 C 
ATOM     14  C   UNL     1      -0.798   2.826   0.420  1.00  0.00     0.020 C 
ENDROOT
BRANCH  11  15
ATOM     15  C   UNL     1       2.880  -0.612  -0.297  1.00  0.00    -0.014 C 
ATOM     16  C   UNL     1       2.586  -1.580  -1.449  1.00  0.00     0.007 C 
ATOM     17  C   UNL     1       3.916   0.425  -0.764  1.00  0.00     0.007 C 
ENDBRANCH  11  15
TORSDOF 1
