REMARK SMILES C=C(C(=O)OC)[C@@H]1CC[C@@H](C)[C@@H]2CCC(C)=C[C@@H]21
REMARK SMILES IDX 1 1 2 2 3 3 4 4 5 5 6 6 7 7 8 8 18 9 9 10 17 11 12 12 10 13
REMARK SMILES IDX 15 14 13 15 14 16 11 17 16 18
REMARK H PARENT
ROOT
ATOM      1  C   UNL     1       1.340   0.255  -1.690  1.00  0.00     0.020 C 
ATOM      2  C   UNL     1       1.749  -0.063  -0.449  1.00  0.00     0.034 C 
ENDROOT
BRANCH   2   3
ATOM      3  C   UNL     1       3.150  -0.581  -0.289  1.00  0.00     0.333 C 
ATOM      4  O   UNL     1       3.846  -0.800  -1.272  1.00  0.00    -0.247 OA
BRANCH   3   5
ATOM      5  O   UNL     1       3.660  -0.772   0.956  1.00  0.00    -0.466 OA
ATOM      6  C   UNL     1       4.932  -1.242   1.204  1.00  0.00     0.282 C 
ENDBRANCH   3   5
ENDBRANCH   2   3
BRANCH   2   7
ATOM      7  C   UNL     1       0.893   0.148   0.823  1.00  0.00     0.033 C 
ATOM      8  C   UNL     1       0.798  -1.166   1.677  1.00  0.00     0.009 C 
ATOM      9  C   UNL     1      -0.531   0.793   0.709  1.00  0.00     0.023 C 
ATOM     10  C   UNL     1      -0.575  -1.867   1.674  1.00  0.00     0.004 C 
ATOM     11  C   UNL     1      -0.516   2.155   0.038  1.00  0.00    -0.024 C 
ATOM     12  C   UNL     1      -1.664  -0.181   0.187  1.00  0.00    -0.000 C 
ATOM     13  C   UNL     1      -1.268  -1.685   0.324  1.00  0.00    -0.011 C 
ATOM     14  C   UNL     1      -1.412   2.530  -0.899  1.00  0.00    -0.077 C 
ATOM     15  C   UNL     1      -2.207   0.163  -1.219  1.00  0.00     0.009 C 
ATOM     16  C   UNL     1      -2.581   1.642  -1.257  1.00  0.00     0.030 C 
ATOM     17  C   UNL     1      -2.489  -2.613   0.226  1.00  0.00     0.008 C 
ATOM     18  C   UNL     1      -1.262   3.873  -1.562  1.00  0.00     0.039 C 
ENDBRANCH   2   7
TORSDOF 3
