REMARK SMILES CCCCC[C@H](O)[C@@H](O)/C=C/C(=O)N1CCCCC1
REMARK SMILES IDX 5 1 4 2 3 3 2 4 1 5 6 6 7 7 8 9 9 10 10 12 11 13 12 14 13 15
REMARK SMILES IDX 14 16 15 17 19 18 16 19 18 20 17 21
REMARK H PARENT 7 8 9 11
ROOT
ATOM      1  C   UNL     1       2.912   1.114   0.567  1.00  0.00     0.035 C 
ENDROOT
BRANCH   1   2
ATOM      2  C   UNL     1       4.098   1.239  -0.413  1.00  0.00     0.003 C 
BRANCH   2   3
ATOM      3  C   UNL     1       4.918  -0.047  -0.646  1.00  0.00    -0.000 C 
BRANCH   3   4
ATOM      4  C   UNL     1       5.551  -0.655   0.620  1.00  0.00    -0.003 C 
ATOM      5  C   UNL     1       6.540   0.283   1.311  1.00  0.00     0.004 C 
ENDBRANCH   3   4
ENDBRANCH   2   3
ENDBRANCH   1   2
BRANCH   1   6
ATOM      6  C   UNL     1       1.759   0.149   0.194  1.00  0.00     0.147 C 
BRANCH   6   7
ATOM      7  O   UNL     1       2.216  -1.179   0.173  1.00  0.00    -0.390 OA
ATOM      8  H   UNL     1       1.436  -1.761   0.367  1.00  0.00     0.211 HD
ENDBRANCH   6   7
BRANCH   6   9
ATOM      9  C   UNL     1       1.037   0.512  -1.136  1.00  0.00     0.166 C 
BRANCH   9  10
ATOM     10  O   UNL     1       1.878   0.316  -2.246  1.00  0.00    -0.386 OA
ATOM     11  H   UNL     1       2.070  -0.655  -2.316  1.00  0.00     0.211 HD
ENDBRANCH   9  10
BRANCH   9  12
ATOM     12  C   UNL     1      -0.252  -0.267  -1.323  1.00  0.00     0.012 C 
ATOM     13  C   UNL     1      -1.286  -0.140  -0.468  1.00  0.00     0.070 C 
BRANCH  13  14
ATOM     14  C   UNL     1      -2.562  -0.906  -0.646  1.00  0.00     0.246 C 
ATOM     15  O   UNL     1      -2.617  -1.685  -1.589  1.00  0.00    -0.270 OA
ATOM     16  N   UNL     1      -3.655  -0.784   0.191  1.00  0.00    -0.339 N 
ATOM     17  C   UNL     1      -3.722   0.128   1.336  1.00  0.00     0.120 C 
ATOM     18  C   UNL     1      -4.862  -1.585  -0.032  1.00  0.00     0.120 C 
ATOM     19  C   UNL     1      -4.907   1.087   1.153  1.00  0.00     0.022 C 
ATOM     20  C   UNL     1      -6.064  -0.655  -0.238  1.00  0.00     0.022 C 
ATOM     21  C   UNL     1      -6.203   0.290   0.962  1.00  0.00     0.004 C 
ENDBRANCH  13  14
ENDBRANCH   9  12
ENDBRANCH   6   9
ENDBRANCH   1   6
TORSDOF 9
