REMARK SMILES C[C@@H]1C[C@H]2OC(=O)[C@@]3(C)C(=O)CC[C@@](C)([C@@H]23)[C@@]12CC[C@@]1(CO[C@H](O)C1)O2
REMARK SMILES IDX 1 1 2 2 3 3 4 4 5 5 6 6 7 7 8 8 9 9 10 10 11 11 12 12 13 13
REMARK SMILES IDX 14 14 15 15 16 16 17 17 18 18 19 19 20 20 21 21 22 22 23 23
REMARK SMILES IDX 25 24 26 25 24 26
REMARK H PARENT 24 27
ROOT
ATOM      1  C   UNL     1      -0.029  -2.293   1.761  1.00  0.00     0.011 C 
ATOM      2  C   UNL     1       0.081  -0.761   1.960  1.00  0.00     0.022 C 
ATOM      3  C   UNL     1      -1.222  -0.221   2.567  1.00  0.00     0.052 C 
ATOM      4  C   UNL     1      -2.393  -0.360   1.565  1.00  0.00     0.182 C 
ATOM      5  O   UNL     1      -3.372   0.593   1.755  1.00  0.00    -0.461 OA
ATOM      6  C   UNL     1      -3.938   0.933   0.575  1.00  0.00     0.320 C 
ATOM      7  O   UNL     1      -4.964   1.592   0.512  1.00  0.00    -0.251 OA
ATOM      8  C   UNL     1      -3.313   0.228  -0.595  1.00  0.00     0.130 C 
ATOM      9  C   UNL     1      -4.207  -0.974  -0.970  1.00  0.00     0.033 C 
ATOM     10  C   UNL     1      -3.106   1.104  -1.829  1.00  0.00     0.150 C 
ATOM     11  O   UNL     1      -4.087   1.581  -2.380  1.00  0.00    -0.298 OA
ATOM     12  C   UNL     1      -1.742   1.480  -2.375  1.00  0.00     0.077 C 
ATOM     13  C   UNL     1      -0.561   0.821  -1.639  1.00  0.00     0.018 C 
ATOM     14  C   UNL     1      -0.780   0.737  -0.101  1.00  0.00     0.005 C 
ATOM     15  C   UNL     1      -1.062   2.202   0.419  1.00  0.00     0.015 C 
ATOM     16  C   UNL     1      -1.999  -0.230   0.076  1.00  0.00     0.063 C 
ATOM     17  C   UNL     1       0.491   0.052   0.632  1.00  0.00     0.078 C 
ATOM     18  C   UNL     1       1.571   1.112   0.960  1.00  0.00     0.039 C 
ATOM     19  C   UNL     1       2.812   0.278   0.986  1.00  0.00     0.041 C 
ATOM     20  C   UNL     1       2.536  -0.598  -0.240  1.00  0.00     0.097 C 
ATOM     21  C   UNL     1       3.393  -1.859  -0.268  1.00  0.00     0.199 C 
ATOM     22  O   UNL     1       4.668  -1.496  -0.766  1.00  0.00    -0.350 OA
ATOM     23  C   UNL     1       4.495  -0.291  -1.501  1.00  0.00     0.249 C 
ATOM     24  C   UNL     1       2.997  -0.002  -1.553  1.00  0.00     0.100 C 
ATOM     25  O   UNL     1       1.139  -0.872  -0.249  1.00  0.00    -0.365 OA
ENDROOT
BRANCH  23  26
ATOM     26  O   UNL     1       5.172   0.754  -0.855  1.00  0.00    -0.368 OA
ATOM     27  H   UNL     1       6.133   0.507  -0.855  1.00  0.00     0.213 HD
ENDBRANCH  23  26
TORSDOF 1
