REMARK SMILES NC(=S)Nc1cccc([N+](=O)[O-])c1
REMARK SMILES IDX 5 1 6 2 7 3 8 4 9 5 13 6 4 7 1 8 2 9 3 10 10 14 11 15 12 16
REMARK H PARENT 1 11 1 12 4 13
ROOT
ATOM      1  C   UNL     1       0.533  -0.675  -0.032  1.00  0.00     0.047 A 
ATOM      2  C   UNL     1       0.019  -1.805   0.624  1.00  0.00     0.026 A 
ATOM      3  C   UNL     1      -1.320  -1.860   1.010  1.00  0.00     0.009 A 
ATOM      4  C   UNL     1      -2.175  -0.793   0.735  1.00  0.00     0.086 A 
ATOM      5  C   UNL     1      -1.701   0.344   0.058  1.00  0.00     0.271 A 
ATOM      6  C   UNL     1      -0.344   0.392  -0.326  1.00  0.00     0.111 A 
ENDROOT
BRANCH   1   7
ATOM      7  N   UNL     1       1.911  -0.676  -0.418  1.00  0.00    -0.333 N 
ATOM      8  N   UNL     1       2.379   1.775  -0.270  1.00  0.00    -0.376 N 
ATOM      9  C   UNL     1       2.706   0.473  -0.747  1.00  0.00     0.168 C 
ATOM     10  S   UNL     1       3.961   0.283  -1.429  1.00  0.00    -0.041 S 
ATOM     11  H   UNL     1       2.979   2.586  -0.488  1.00  0.00     0.159 HD
ATOM     12  H   UNL     1       1.615   1.927   0.402  1.00  0.00     0.159 HD
ATOM     13  H   UNL     1       2.374  -1.599  -0.463  1.00  0.00     0.169 HD
ENDBRANCH   1   7
BRANCH   5  14
ATOM     14  N   UNL     1      -2.585   1.425  -0.242  1.00  0.00     0.062 N 
ATOM     15  O   UNL     1      -2.188   2.392  -0.820  1.00  0.00    -0.258 OA
ATOM     16  O   UNL     1      -3.850   1.371   0.116  1.00  0.00    -0.258 OA
ENDBRANCH   5  14
TORSDOF 2
