REMARK SMILES C=Cc1c(C)c(O)cc2c1CC[C@@H]1C(C)(C)[C@H](O)[C@H](O)C[C@@]21C
REMARK SMILES IDX 3 1 4 2 5 3 6 4 8 5 9 6 10 7 11 8 12 9 13 10 14 11 15 12
REMARK SMILES IDX 16 13 17 14 19 15 21 16 22 17 23 18 2 19 1 20 7 21 20 23
REMARK SMILES IDX 18 25
REMARK H PARENT 7 22 20 24 18 26
ROOT
ATOM      1  C   UNL     1       3.163  -0.439   0.100  1.00  0.00    -0.016 A 
ATOM      2  C   UNL     1       3.779   0.838  -0.154  1.00  0.00    -0.002 A 
ATOM      3  C   UNL     1       5.276   1.091  -0.054  1.00  0.00     0.049 C 
ATOM      4  C   UNL     1       2.976   1.949  -0.488  1.00  0.00     0.119 A 
ATOM      5  C   UNL     1       1.603   1.825  -0.557  1.00  0.00     0.051 A 
ATOM      6  C   UNL     1       0.948   0.615  -0.305  1.00  0.00    -0.034 A 
ATOM      7  C   UNL     1       1.725  -0.542   0.004  1.00  0.00    -0.036 A 
ATOM      8  C   UNL     1       1.016  -1.875   0.180  1.00  0.00     0.037 C 
ATOM      9  C   UNL     1      -0.429  -1.934  -0.326  1.00  0.00     0.010 C 
ATOM     10  C   UNL     1      -1.191  -0.717   0.192  1.00  0.00     0.008 C 
ATOM     11  C   UNL     1      -2.785  -0.823   0.133  1.00  0.00    -0.003 C 
ATOM     12  C   UNL     1      -3.327  -1.496  -1.157  1.00  0.00     0.014 C 
ATOM     13  C   UNL     1      -3.224  -1.747   1.307  1.00  0.00     0.014 C 
ATOM     14  C   UNL     1      -3.465   0.597   0.347  1.00  0.00     0.149 C 
ATOM     15  C   UNL     1      -2.538   1.492   1.189  1.00  0.00     0.144 C 
ATOM     16  C   UNL     1      -1.194   1.794   0.452  1.00  0.00     0.046 C 
ATOM     17  C   UNL     1      -0.594   0.602  -0.396  1.00  0.00    -0.001 C 
ATOM     18  C   UNL     1      -0.896   0.786  -1.917  1.00  0.00     0.017 C 
ENDROOT
BRANCH   1  19
ATOM     19  C   UNL     1       4.071  -1.617   0.398  1.00  0.00     0.001 C 
ATOM     20  C   UNL     1       3.792  -2.752   1.058  1.00  0.00     0.009 C 
ENDBRANCH   1  19
BRANCH   4  21
ATOM     21  O   UNL     1       3.493   3.174  -0.743  1.00  0.00    -0.508 OA
ATOM     22  H   UNL     1       4.433   3.395  -0.733  1.00  0.00     0.293 HD
ENDBRANCH   4  21
BRANCH  15  23
ATOM     23  O   UNL     1      -3.171   2.675   1.610  1.00  0.00    -0.390 OA
ATOM     24  H   UNL     1      -3.243   3.282   0.829  1.00  0.00     0.211 HD
ENDBRANCH  15  23
BRANCH  14  25
ATOM     25  O   UNL     1      -3.748   1.238  -0.871  1.00  0.00    -0.390 OA
ATOM     26  H   UNL     1      -4.410   1.954  -0.687  1.00  0.00     0.211 HD
ENDBRANCH  14  25
TORSDOF 4
