REMARK SMILES O=C(O)C1=C[C@@H](O)[C@@H](O)[C@H](O)C1
REMARK SMILES IDX 4 1 5 2 6 3 8 4 10 5 12 6 2 7 1 8 3 9 7 11 11 13 9 15
REMARK H PARENT 3 10 7 12 11 14 9 16
ROOT
ATOM      1  C   UNL     1       1.150  -0.105  -0.382  1.00  0.00     0.038 C 
ATOM      2  C   UNL     1       0.517   0.871  -1.083  1.00  0.00     0.018 C 
ATOM      3  C   UNL     1      -0.916   1.293  -0.828  1.00  0.00     0.169 C 
ATOM      4  C   UNL     1      -1.463   0.755   0.515  1.00  0.00     0.176 C 
ATOM      5  C   UNL     1      -1.109  -0.728   0.674  1.00  0.00     0.150 C 
ATOM      6  C   UNL     1       0.424  -0.900   0.697  1.00  0.00     0.077 C 
ENDROOT
BRANCH   1   7
ATOM      7  C   UNL     1       2.594  -0.395  -0.655  1.00  0.00     0.331 C 
ATOM      8  O   UNL     1       3.188   0.224  -1.525  1.00  0.00    -0.247 OA
BRANCH   7   9
ATOM      9  O   UNL     1       3.277  -1.328   0.045  1.00  0.00    -0.478 OA
ATOM     10  H   UNL     1       2.889  -1.849   0.761  1.00  0.00     0.297 HD
ENDBRANCH   7   9
ENDBRANCH   1   7
BRANCH   3  11
ATOM     11  O   UNL     1      -1.724   0.931  -1.922  1.00  0.00    -0.386 OA
ATOM     12  H   UNL     1      -1.598  -0.038  -2.093  1.00  0.00     0.211 HD
ENDBRANCH   3  11
BRANCH   5  13
ATOM     13  O   UNL     1      -1.683  -1.283   1.832  1.00  0.00    -0.390 OA
ATOM     14  H   UNL     1      -1.360  -0.756   2.610  1.00  0.00     0.211 HD
ENDBRANCH   5  13
BRANCH   4  15
ATOM     15  O   UNL     1      -2.844   0.995   0.631  1.00  0.00    -0.387 OA
ATOM     16  H   UNL     1      -3.312   0.383   0.005  1.00  0.00     0.211 HD
ENDBRANCH   4  15
TORSDOF 5
