REMARK SMILES C=C(C)C(=O)O[C@H]1C[C@]23[C@H](O)CC[C@](c4ccccc4)(CO[C@H]2O)[C@@H]3[C@H]2OC(=O)C(=C)[C@@H]21
REMARK SMILES IDX 6 1 4 2 5 3 2 4 1 5 3 6 7 7 8 8 32 9 9 10 30 11 26 12 10 13
REMARK SMILES IDX 23 14 25 15 28 16 31 17 27 18 12 19 22 20 14 21 29 22 13 23
REMARK SMILES IDX 21 24 11 25 24 27 15 29 16 30 20 31 17 32 19 33 18 34
REMARK H PARENT 11 26 24 28
ROOT
ATOM      1  O   UNL     1       3.288  -0.016  -0.004  1.00  0.00    -0.458 OA
ENDROOT
BRANCH   1   2
ATOM      2  C   UNL     1       4.208  -0.490   0.887  1.00  0.00     0.333 C 
ATOM      3  O   UNL     1       3.848  -1.033   1.923  1.00  0.00    -0.247 OA
BRANCH   2   4
ATOM      4  C   UNL     1       5.662  -0.350   0.625  1.00  0.00     0.027 C 
ATOM      5  C   UNL     1       6.107   0.238  -0.496  1.00  0.00     0.020 C 
ATOM      6  C   UNL     1       6.641  -0.875   1.648  1.00  0.00     0.051 C 
ENDBRANCH   2   4
ENDBRANCH   1   2
BRANCH   1   7
ATOM      7  C   UNL     1       1.913  -0.053   0.200  1.00  0.00     0.189 C 
ATOM      8  C   UNL     1       1.349   1.393   0.170  1.00  0.00     0.061 C 
ATOM      9  C   UNL     1       1.192  -0.795  -0.926  1.00  0.00     0.108 C 
ATOM     10  C   UNL     1      -0.216   1.495   0.343  1.00  0.00     0.058 C 
ATOM     11  C   UNL     1       1.493  -2.202  -1.316  1.00  0.00     0.041 C 
ATOM     12  C   UNL     1      -0.303  -0.923  -0.538  1.00  0.00     0.193 C 
ATOM     13  C   UNL     1      -0.652   2.937  -0.128  1.00  0.00     0.126 C 
ATOM     14  C   UNL     1      -0.607   1.257   1.854  1.00  0.00     0.256 C 
ATOM     15  C   UNL     1      -0.987   0.470  -0.587  1.00  0.00     0.058 C 
ATOM     16  C   UNL     1       0.195  -2.773  -1.648  1.00  0.00     0.334 C 
ATOM     17  C   UNL     1       2.690  -2.775  -1.500  1.00  0.00     0.021 C 
ATOM     18  O   UNL     1      -0.792  -1.892  -1.387  1.00  0.00    -0.458 OA
ATOM     19  C   UNL     1      -2.177   3.179  -0.068  1.00  0.00     0.033 C 
ATOM     20  O   UNL     1      -1.998   1.409   2.069  1.00  0.00    -0.351 OA
ATOM     21  C   UNL     1      -2.525   0.587  -0.234  1.00  0.00     0.026 C 
ATOM     22  O   UNL     1       0.011  -3.854  -2.180  1.00  0.00    -0.247 OA
ATOM     23  C   UNL     1      -2.952   2.022  -0.724  1.00  0.00     0.017 C 
ATOM     24  C   UNL     1      -2.745   0.476   1.313  1.00  0.00     0.175 C 
BRANCH  13  25
ATOM     25  O   UNL     1       0.047   3.954   0.551  1.00  0.00    -0.392 OA
ATOM     26  H   UNL     1      -0.361   4.068   1.447  1.00  0.00     0.210 HD
ENDBRANCH  13  25
BRANCH  14  27
ATOM     27  O   UNL     1      -0.161   0.022   2.357  1.00  0.00    -0.367 OA
ATOM     28  H   UNL     1      -0.731  -0.231   3.129  1.00  0.00     0.213 HD
ENDBRANCH  14  27
BRANCH  21  29
ATOM     29  C   UNL     1      -3.406  -0.517  -0.891  1.00  0.00    -0.039 A 
ATOM     30  C   UNL     1      -3.317  -1.860  -0.449  1.00  0.00     0.004 A 
ATOM     31  C   UNL     1      -4.361  -0.241  -1.908  1.00  0.00     0.004 A 
ATOM     32  C   UNL     1      -4.120  -2.869  -0.981  1.00  0.00     0.000 A 
ATOM     33  C   UNL     1      -5.157  -1.262  -2.441  1.00  0.00     0.000 A 
ATOM     34  C   UNL     1      -5.039  -2.571  -1.980  1.00  0.00     0.000 A 
ENDBRANCH  21  29
ENDBRANCH   1   7
TORSDOF 6
