REMARK SMILES COc1cc(C=NNC(=O)CC(=O)Nc2ccc(Cl)c(Cl)c2)ccc1O
REMARK SMILES IDX 8 1 9 2 10 3 7 5 6 6 5 7 3 8 4 9 25 10 24 11 23 12 2 13 1 14
REMARK SMILES IDX 26 15 11 17 12 18 13 19 14 20 15 22 16 23 22 24 17 25 20 26
REMARK SMILES IDX 18 27 21 28 19 29
REMARK H PARENT 8 4 26 16 14 21
ROOT
ATOM      1  N   UNL     1      -0.509   1.362  -0.369  1.00  0.00    -0.247 N 
ATOM      2  C   UNL     1       0.343   0.825   0.540  1.00  0.00     0.249 C 
ATOM      3  O   UNL     1       0.733   1.502   1.481  1.00  0.00    -0.273 OA
ATOM      4  H   UNL     1      -0.872   0.791  -1.148  1.00  0.00     0.193 HD
ENDROOT
BRANCH   1   5
ATOM      5  N   UNL     1      -0.877   2.683  -0.274  1.00  0.00    -0.181 NA
ATOM      6  C   UNL     1      -2.088   3.115  -0.130  1.00  0.00     0.141 C 
BRANCH   6   7
ATOM      7  C   UNL     1      -3.331   2.314   0.133  1.00  0.00    -0.002 A 
ATOM      8  C   UNL     1      -4.610   0.259   0.574  1.00  0.00     0.161 A 
ATOM      9  C   UNL     1      -3.389   0.909   0.290  1.00  0.00     0.060 A 
ATOM     10  C   UNL     1      -5.779   1.018   0.710  1.00  0.00     0.157 A 
ATOM     11  C   UNL     1      -5.732   2.407   0.559  1.00  0.00     0.051 A 
ATOM     12  C   UNL     1      -4.525   3.044   0.274  1.00  0.00     0.014 A 
BRANCH   8  13
ATOM     13  O   UNL     1      -4.698  -1.090   0.729  1.00  0.00    -0.493 OA
ATOM     14  C   UNL     1      -3.660  -1.992   0.610  1.00  0.00     0.278 C 
ENDBRANCH   8  13
BRANCH  10  15
ATOM     15  O   UNL     1      -6.946   0.402   0.994  1.00  0.00    -0.504 OA
ATOM     16  H   UNL     1      -7.773   0.892   1.108  1.00  0.00     0.293 HD
ENDBRANCH  10  15
ENDBRANCH   6   7
ENDBRANCH   1   5
BRANCH   2  17
ATOM     17  C   UNL     1       0.793  -0.611   0.427  1.00  0.00     0.202 C 
BRANCH  17  18
ATOM     18  C   UNL     1       2.302  -0.689   0.429  1.00  0.00     0.233 C 
ATOM     19  O   UNL     1       2.889  -0.278   1.416  1.00  0.00    -0.274 OA
ATOM     20  N   UNL     1       2.977  -1.208  -0.642  1.00  0.00    -0.326 N 
ATOM     21  H   UNL     1       2.400  -1.536  -1.433  1.00  0.00     0.169 HD
BRANCH  20  22
ATOM     22  C   UNL     1       4.404  -1.336  -0.797  1.00  0.00     0.042 A 
ATOM     23  C   UNL     1       4.886  -1.900  -1.994  1.00  0.00     0.028 A 
ATOM     24  C   UNL     1       5.356  -0.928   0.171  1.00  0.00     0.048 A 
ATOM     25  C   UNL     1       6.255  -2.054  -2.222  1.00  0.00     0.024 A 
ATOM     26  C   UNL     1       6.729  -1.083  -0.059  1.00  0.00     0.061 A 
ATOM     27  C   UNL     1       7.180  -1.648  -1.260  1.00  0.00     0.059 A 
ATOM     28  Cl  UNL     1       7.864  -0.557   1.179  1.00  0.00    -0.083 Cl
ATOM     29  Cl  UNL     1       8.896  -1.855  -1.583  1.00  0.00    -0.083 Cl
ENDBRANCH  20  22
ENDBRANCH  17  18
ENDBRANCH   2  17
TORSDOF 7
