REMARK SMILES CC[C@H]1CCC(=O)CC(=O)/C=C\c2cc(OC)c(O)cc2[C@@H]2/C=C\[C@H]1SS[C@@H](Cc1ccccc1)c1cc2cnc1N
REMARK SMILES IDX 36 1 37 2 38 3 39 4 40 5 41 6 28 7 27 8 26 9 25 10 3 12 2 13
REMARK SMILES IDX 1 14 4 15 5 16 29 18 30 19 31 20 35 21 32 22 34 23 33 24
REMARK SMILES IDX 42 25 22 28 21 29 20 30 13 31 18 32 14 33 15 34 12 35 11 36
REMARK SMILES IDX 9 37 10 38 8 39 6 40 7 41 19 43 16 45 17 46 23 47 24 48
REMARK H PARENT 42 26 42 27 19 44
REMARK Flexibility Score:  116.800
ROOT
ATOM      1  C   UNL     1       2.197  -1.500  -0.832  1.00  0.00     0.009 A 
ATOM      2  C   UNL     1       1.069  -1.098  -0.120  1.00  0.00     0.015 A 
ATOM      3  C   UNL     1      -0.203  -1.370  -0.614  1.00  0.00    -0.018 A 
ATOM      4  C   UNL     1      -0.334  -2.231  -1.714  1.00  0.00     0.118 A 
ATOM      5  N   UNL     1       0.770  -2.734  -2.315  1.00  0.00    -0.239 NA
ATOM      6  C   UNL     1       2.027  -2.375  -1.940  1.00  0.00     0.127 A 
ENDROOT
BRANCH   1   7
ATOM      7  C   UNL     1       3.524  -0.872  -0.452  1.00  0.00     0.096 C 
BRANCH   7   8
ATOM      8  S   UNL     1       3.404   0.981  -0.181  1.00  0.00    -0.085 SA
BRANCH   8   9
ATOM      9  S   UNL     1       2.015   1.756  -1.678  1.00  0.00    -0.086 SA
BRANCH   9  10
ATOM     10  C   UNL     1       0.457   1.959  -0.670  1.00  0.00     0.083 CG1
ATOM     11  G   UNL     1      -0.662   1.446  -1.551  1.00  0.00     0.000 G1
BRANCH  10  12
ATOM     12  C   UNL     1       0.111   3.369  -0.063  1.00  0.00     0.007 C 
BRANCH  12  13
ATOM     13  C   UNL     1       1.355   4.109   0.502  1.00  0.00     0.002 C 
ATOM     14  C   UNL     1       1.905   3.474   1.782  1.00  0.00     0.004 C 
ENDBRANCH  12  13
BRANCH  12  15
ATOM     15  C   UNL     1      -0.758   4.346  -0.917  1.00  0.00     0.013 C 
BRANCH  15  16
ATOM     16  C   UNL     1      -2.258   3.956  -1.141  1.00  0.00     0.076 CG0
ATOM     17  G   UNL     1      -2.962   3.402   0.099  1.00  0.00     0.000 G0
ENDBRANCH  15  16
ENDBRANCH  12  15
ENDBRANCH  10  12
ENDBRANCH   9  10
ENDBRANCH   8   9
ENDBRANCH   7   8
BRANCH   7  18
ATOM     18  C   UNL     1       4.070  -1.528   0.831  1.00  0.00     0.055 C 
BRANCH  18  19
ATOM     19  C   UNL     1       5.510  -1.136   1.081  1.00  0.00    -0.047 A 
ATOM     20  C   UNL     1       6.509  -1.532   0.172  1.00  0.00     0.004 A 
ATOM     21  C   UNL     1       5.873  -0.387   2.213  1.00  0.00     0.004 A 
ATOM     22  C   UNL     1       7.843  -1.182   0.388  1.00  0.00     0.000 A 
ATOM     23  C   UNL     1       7.213  -0.035   2.423  1.00  0.00     0.000 A 
ATOM     24  C   UNL     1       8.195  -0.431   1.511  1.00  0.00     0.000 A 
ENDBRANCH  18  19
ENDBRANCH   7  18
ENDBRANCH   1   7
BRANCH   6  25
ATOM     25  N   UNL     1       3.116  -2.893  -2.688  1.00  0.00    -0.383 N 
ATOM     26  H   UNL     1       2.929  -3.517  -3.486  1.00  0.00     0.158 HD
ATOM     27  H   UNL     1       4.099  -2.736  -2.437  1.00  0.00     0.158 HD
ENDBRANCH   6  25
BRANCH   3  28
ATOM     28  C   UNL     1      -1.377  -0.528  -0.154  1.00  0.00     0.074 C 
BRANCH  28  29
ATOM     29  C   UNL     1      -2.590  -1.367   0.247  1.00  0.00    -0.025 A 
ATOM     30  C   UNL     1      -2.354  -2.193   1.367  1.00  0.00     0.055 A 
ATOM     31  C   UNL     1      -3.877  -1.446  -0.392  1.00  0.00    -0.017 A 
ATOM     32  C   UNL     1      -3.304  -3.094   1.843  1.00  0.00     0.157 A 
ATOM     33  C   UNL     1      -4.804  -2.394   0.089  1.00  0.00     0.058 A 
ATOM     34  C   UNL     1      -4.538  -3.212   1.196  1.00  0.00     0.161 A 
BRANCH  31  35
ATOM     35  C   UNL     1      -4.379  -0.743  -1.613  1.00  0.00     0.012 C 
ATOM     36  C   UNL     1      -4.604   0.552  -1.953  1.00  0.00     0.048 C 
BRANCH  36  37
ATOM     37  C   UNL     1      -4.462   1.869  -1.260  1.00  0.00     0.163 C 
ATOM     38  O   UNL     1      -4.970   2.821  -1.836  1.00  0.00    -0.294 OA
BRANCH  37  39
ATOM     39  C   UNL     1      -3.858   2.156   0.091  1.00  0.00     0.155 C 
BRANCH  39  40
ATOM     40  C   UNL     1      -2.962   3.402   0.099  1.00  0.00     0.140 CG0
ATOM     41  O   UNL     1      -2.877   4.032   1.143  1.00  0.00    -0.299 OA
ATOM     42  G   UNL     1      -2.258   3.956  -1.141  1.00  0.00     0.000 G0
ENDBRANCH  39  40
ENDBRANCH  37  39
ENDBRANCH  36  37
ENDBRANCH  31  35
BRANCH  32  43
ATOM     43  O   UNL     1      -2.999  -3.855   2.915  1.00  0.00    -0.504 OA
ATOM     44  H   UNL     1      -3.611  -4.504   3.291  1.00  0.00     0.293 HD
ENDBRANCH  32  43
BRANCH  34  45
ATOM     45  O   UNL     1      -5.436  -4.125   1.656  1.00  0.00    -0.493 OA
ATOM     46  C   UNL     1      -6.664  -4.411   1.091  1.00  0.00     0.278 C 
ENDBRANCH  34  45
ENDBRANCH  28  29
BRANCH  28  47
ATOM     47  C   UNL     1      -1.499   0.415  -1.323  1.00  0.00    -0.017 C 
ATOM     48  C   UNL     1      -0.662   1.446  -1.551  1.00  0.00    -0.015 CG1
ATOM     49  G   UNL     1       0.457   1.959  -0.670  1.00  0.00     0.000 G1
ENDBRANCH  28  47
ENDBRANCH   3  28
TORSDOF 6
