REMARK SMILES CCCCOC[C@@H]1C[C@]2(C[C@@](C)(c3csc(Nc4ccc(C)cc4)n3)OC2=O)C(=O)O1
REMARK SMILES IDX 6 1 5 2 4 3 3 4 2 5 1 6 7 7 8 8 31 9 9 10 29 11 10 12 27 13
REMARK SMILES IDX 30 14 11 15 26 16 28 17 12 18 13 19 14 20 25 21 15 22 16 23
REMARK SMILES IDX 17 24 18 26 19 27 24 28 20 29 23 30 21 31 22 32
REMARK H PARENT 17 25
ROOT
ATOM      1  C   UNL     1      -5.023   1.776  -1.477  1.00  0.00     0.205 C 
ENDROOT
BRANCH   1   2
ATOM      2  O   UNL     1      -5.597   1.630  -0.193  1.00  0.00    -0.378 OA
BRANCH   2   3
ATOM      3  C   UNL     1      -6.480   0.528  -0.142  1.00  0.00     0.160 C 
BRANCH   3   4
ATOM      4  C   UNL     1      -7.380   0.703   1.084  1.00  0.00     0.028 C 
BRANCH   4   5
ATOM      5  C   UNL     1      -8.413  -0.420   1.260  1.00  0.00    -0.001 C 
ATOM      6  C   UNL     1      -7.779  -1.778   1.559  1.00  0.00     0.004 C 
ENDBRANCH   4   5
ENDBRANCH   3   4
ENDBRANCH   2   3
ENDBRANCH   1   2
BRANCH   1   7
ATOM      7  C   UNL     1      -3.877   0.782  -1.717  1.00  0.00     0.204 C 
ATOM      8  C   UNL     1      -2.779   0.849  -0.648  1.00  0.00     0.078 C 
ATOM      9  O   UNL     1      -3.218   1.071  -2.894  1.00  0.00    -0.459 OA
ATOM     10  C   UNL     1      -1.540   0.350  -1.395  1.00  0.00     0.173 C 
ATOM     11  C   UNL     1      -1.900   0.822  -2.774  1.00  0.00     0.324 C 
ATOM     12  C   UNL     1      -0.228   0.828  -0.756  1.00  0.00     0.086 C 
ATOM     13  C   UNL     1      -1.297  -1.125  -1.385  1.00  0.00     0.324 C 
ATOM     14  O   UNL     1      -1.161   0.818  -3.743  1.00  0.00    -0.251 OA
ATOM     15  C   UNL     1       0.783  -0.304  -1.048  1.00  0.00     0.154 C 
ATOM     16  O   UNL     1      -0.000  -1.437  -1.178  1.00  0.00    -0.452 OA
ATOM     17  O   UNL     1      -2.131  -1.966  -1.677  1.00  0.00    -0.251 OA
ATOM     18  C   UNL     1       1.570  -0.085  -2.354  1.00  0.00     0.064 C 
BRANCH  15  19
ATOM     19  C   UNL     1       1.808  -0.453   0.054  1.00  0.00     0.097 A 
ATOM     20  C   UNL     1       2.041  -1.650   0.735  1.00  0.00     0.096 A 
ATOM     21  N   UNL     1       2.655   0.563   0.374  1.00  0.00    -0.221 NA
ATOM     22  S   UNL     1       3.385  -1.440   1.721  1.00  0.00    -0.105 S 
ATOM     23  C   UNL     1       3.589   0.170   1.262  1.00  0.00     0.187 A 
BRANCH  23  24
ATOM     24  N   UNL     1       4.658   1.012   1.660  1.00  0.00    -0.332 N 
ATOM     25  H   UNL     1       4.461   2.017   1.774  1.00  0.00     0.169 HD
BRANCH  24  26
ATOM     26  C   UNL     1       6.030   0.633   1.536  1.00  0.00     0.040 A 
ATOM     27  C   UNL     1       6.421  -0.543   0.858  1.00  0.00     0.026 A 
ATOM     28  C   UNL     1       7.030   1.493   2.018  1.00  0.00     0.026 A 
ATOM     29  C   UNL     1       7.769  -0.837   0.661  1.00  0.00     0.005 A 
ATOM     30  C   UNL     1       8.383   1.190   1.830  1.00  0.00     0.005 A 
ATOM     31  C   UNL     1       8.760   0.029   1.141  1.00  0.00    -0.051 A 
ATOM     32  C   UNL     1      10.210  -0.267   0.900  1.00  0.00     0.044 C 
ENDBRANCH  24  26
ENDBRANCH  23  24
ENDBRANCH  15  19
ENDBRANCH   1   7
TORSDOF 8
