REMARK SMILES COc1cc2c3cc1Oc1c(OC)c(OC)cc4c1[C@H](Cc1ccc(O)c(c1)-c1cc(ccc1OC)C[C@@H]3NCC2)NCC4
REMARK SMILES IDX 10 1 11 2 14 3 17 4 18 5 19 6 20 7 42 8 43 9 44 10 9 12 8 13
REMARK SMILES IDX 3 14 4 15 5 16 7 17 6 18 41 19 38 20 40 21 39 22 2 25 1 26
REMARK SMILES IDX 12 27 13 28 15 29 16 30 21 31 22 32 23 33 28 34 24 35 27 36
REMARK SMILES IDX 25 37 29 38 30 39 34 40 31 41 33 42 32 43 35 44 36 45 37 46
REMARK SMILES IDX 26 48
REMARK H PARENT 42 11 39 23 26 49
REMARK Flexibility Score:   80.900
ROOT
ATOM      1  C   UNL     1      -2.574  -0.437   0.105  1.00  0.00     0.178 A 
ATOM      2  C   UNL     1      -3.777   0.302   0.171  1.00  0.00     0.204 A 
ATOM      3  C   UNL     1      -5.022  -0.375   0.062  1.00  0.00     0.164 A 
ATOM      4  C   UNL     1      -5.036  -1.776  -0.101  1.00  0.00     0.054 A 
ATOM      5  C   UNL     1      -3.847  -2.500  -0.134  1.00  0.00    -0.034 A 
ATOM      6  C   UNL     1      -2.624  -1.845  -0.014  1.00  0.00     0.019 A 
ATOM      7  C   UNL     1      -1.345  -2.664   0.112  1.00  0.00     0.092 C 
ATOM      8  N   UNL     1      -1.536  -4.029   0.667  1.00  0.00    -0.309 NA
ATOM      9  C   UNL     1      -2.919  -4.503   0.867  1.00  0.00     0.086 C 
ATOM     10  C   UNL     1      -3.830  -3.993  -0.243  1.00  0.00     0.051 C 
ATOM     11  H   UNL     1      -0.985  -4.163   1.547  1.00  0.00     0.123 HD
ENDROOT
BRANCH   1  12
ATOM     12  O   UNL     1      -1.339   0.115   0.266  1.00  0.00    -0.449 OA
BRANCH  12  13
ATOM     13  C   UNL     1      -0.760   1.322   0.032  1.00  0.00     0.169 A 
ATOM     14  C   UNL     1      -1.156   2.235  -0.972  1.00  0.00     0.161 A 
ATOM     15  C   UNL     1      -0.450   3.459  -1.095  1.00  0.00     0.054 A 
ATOM     16  C   UNL     1       0.662   3.724  -0.279  1.00  0.00    -0.038 A 
ATOM     17  C   UNL     1       0.354   1.609   0.821  1.00  0.00     0.056 A 
ATOM     18  C   UNL     1       1.101   2.780   0.652  1.00  0.00    -0.023 A 
ATOM     19  C   UNL     1       1.429   5.018  -0.311  1.00  0.00     0.051 C 
ATOM     20  C   UNL     1       2.343   3.170   1.460  1.00  0.00     0.088 CG0
ATOM     21  C   UNL     1       1.577   5.511   1.161  1.00  0.00     0.086 C 
ATOM     22  N   UNL     1       2.047   4.457   2.119  1.00  0.00    -0.309 NA
ATOM     23  H   UNL     1       2.902   4.800   2.617  1.00  0.00     0.123 HD
ATOM     24  G   UNL     1       2.892   2.073   2.428  1.00  0.00     0.000 G0
BRANCH  14  25
ATOM     25  O   UNL     1      -2.178   1.906  -1.805  1.00  0.00    -0.493 OA
ATOM     26  C   UNL     1      -2.526   2.588  -2.954  1.00  0.00     0.278 C 
ENDBRANCH  14  25
ENDBRANCH  12  13
ENDBRANCH   1  12
BRANCH   2  27
ATOM     27  O   UNL     1      -3.706   1.636   0.402  1.00  0.00    -0.490 OA
ATOM     28  C   UNL     1      -4.341   2.282   1.446  1.00  0.00     0.278 C 
ENDBRANCH   2  27
BRANCH   3  29
ATOM     29  O   UNL     1      -6.180   0.336   0.129  1.00  0.00    -0.493 OA
ATOM     30  C   UNL     1      -7.456  -0.194   0.157  1.00  0.00     0.278 C 
ENDBRANCH   3  29
BRANCH   7  31
ATOM     31  C   UNL     1      -0.615  -2.776  -1.240  1.00  0.00     0.059 C 
BRANCH  31  32
ATOM     32  C   UNL     1       0.844  -3.080  -1.009  1.00  0.00    -0.045 A 
ATOM     33  C   UNL     1       1.430  -4.299  -1.352  1.00  0.00     0.007 A 
ATOM     34  C   UNL     1       1.634  -2.077  -0.442  1.00  0.00     0.016 A 
ATOM     35  C   UNL     1       2.793  -4.507  -1.113  1.00  0.00     0.047 A 
ATOM     36  C   UNL     1       3.011  -2.245  -0.210  1.00  0.00     0.027 A 
ATOM     37  C   UNL     1       3.592  -3.492  -0.547  1.00  0.00     0.123 A 
BRANCH  36  38
ATOM     38  C   UNL     1       3.761  -1.048   0.316  1.00  0.00     0.028 A 
ATOM     39  C   UNL     1       3.107  -0.181   1.224  1.00  0.00     0.016 A 
ATOM     40  C   UNL     1       5.043  -0.680  -0.167  1.00  0.00     0.126 A 
ATOM     41  C   UNL     1       3.661   1.047   1.602  1.00  0.00    -0.045 A 
ATOM     42  C   UNL     1       5.621   0.529   0.265  1.00  0.00     0.047 A 
ATOM     43  C   UNL     1       4.931   1.385   1.120  1.00  0.00     0.007 A 
BRANCH  40  44
ATOM     44  O   UNL     1       5.659  -1.457  -1.098  1.00  0.00    -0.496 OA
ATOM     45  C   UNL     1       6.843  -1.172  -1.743  1.00  0.00     0.278 C 
ENDBRANCH  40  44
BRANCH  41  46
ATOM     46  C   UNL     1       2.892   2.073   2.428  1.00  0.00     0.059 CG0
ATOM     47  G   UNL     1       2.343   3.170   1.460  1.00  0.00     0.000 G0
ENDBRANCH  41  46
ENDBRANCH  36  38
BRANCH  37  48
ATOM     48  O   UNL     1       4.896  -3.734  -0.310  1.00  0.00    -0.507 OA
ATOM     49  H   UNL     1       5.314  -4.582  -0.524  1.00  0.00     0.293 HD
ENDBRANCH  37  48
ENDBRANCH  31  32
ENDBRANCH   7  31
TORSDOF 5
