REMARK SMILES CC(C=CC1=C(C)C(=O)CCC1(C)C)=CC=CC(C)=CC(=O)O[C@H]1O[C@@H](C(=O)O)[C@@H](O)[C@@H](O)[C@@H]1O
REMARK SMILES IDX 18 1 19 2 20 3 17 4 16 5 15 6 2 7 1 8 3 9 4 10 5 11 6 12
REMARK SMILES IDX 12 13 8 14 11 15 9 16 10 17 7 18 13 19 14 20 21 21 22 22
REMARK SMILES IDX 23 23 24 24 25 25 34 26 26 27 32 28 30 29 35 30 27 32 28 33
REMARK SMILES IDX 29 34 33 36 31 38
REMARK H PARENT 35 31 29 35 33 37 31 39
ROOT
ATOM      1  C   UNL     1       2.063   0.788   0.673  1.00  0.00    -0.044 C 
ATOM      2  C   UNL     1       2.250   0.981   2.170  1.00  0.00     0.044 C 
ATOM      3  C   UNL     1       3.138   0.797  -0.163  1.00  0.00     0.096 C 
ENDROOT
BRANCH   1   4
ATOM      4  C   UNL     1       0.705   0.575   0.062  1.00  0.00     0.003 C 
ATOM      5  C   UNL     1      -0.417   0.342   0.768  1.00  0.00     0.001 C 
BRANCH   5   6
ATOM      6  C   UNL     1      -1.743   0.143   0.117  1.00  0.00     0.003 C 
ATOM      7  C   UNL     1      -2.865  -0.203   0.803  1.00  0.00    -0.051 C 
ATOM      8  C   UNL     1      -2.789  -0.413   2.309  1.00  0.00     0.044 C 
BRANCH   7   9
ATOM      9  C   UNL     1      -4.149  -0.356   0.034  1.00  0.00     0.004 C 
ATOM     10  C   UNL     1      -5.280  -0.896   0.544  1.00  0.00     0.005 C 
BRANCH  10  11
ATOM     11  C   UNL     1      -6.625  -1.031  -0.133  1.00  0.00    -0.036 C 
ATOM     12  C   UNL     1      -6.813  -1.173  -1.494  1.00  0.00    -0.004 C 
ATOM     13  C   UNL     1      -7.882  -1.053   0.787  1.00  0.00    -0.010 C 
ATOM     14  C   UNL     1      -8.200  -1.175  -2.067  1.00  0.00     0.158 C 
ATOM     15  C   UNL     1      -8.996  -0.229   0.107  1.00  0.00     0.019 C 
ATOM     16  O   UNL     1      -8.379  -1.493  -3.234  1.00  0.00    -0.295 OA
ATOM     17  C   UNL     1      -9.403  -0.815  -1.243  1.00  0.00     0.081 C 
ATOM     18  C   UNL     1      -5.705  -1.393  -2.507  1.00  0.00     0.048 C 
ATOM     19  C   UNL     1      -8.323  -2.518   1.010  1.00  0.00     0.016 C 
ATOM     20  C   UNL     1      -7.648  -0.415   2.184  1.00  0.00     0.016 C 
ENDBRANCH  10  11
ENDBRANCH   7   9
ENDBRANCH   5   6
ENDBRANCH   1   4
BRANCH   3  21
ATOM     21  C   UNL     1       4.564   0.986   0.236  1.00  0.00     0.333 C 
ATOM     22  O   UNL     1       4.870   1.230   1.393  1.00  0.00    -0.247 OA
BRANCH  21  23
ATOM     23  O   UNL     1       5.533   0.845  -0.709  1.00  0.00    -0.430 OA
BRANCH  23  24
ATOM     24  C   UNL     1       6.890   1.050  -0.503  1.00  0.00     0.343 C 
ATOM     25  O   UNL     1       7.573  -0.184  -0.574  1.00  0.00    -0.322 OA
ATOM     26  C   UNL     1       7.439   2.037  -1.571  1.00  0.00     0.214 C 
ATOM     27  C   UNL     1       8.939  -0.079  -0.139  1.00  0.00     0.263 C 
ATOM     28  C   UNL     1       8.996   1.930  -1.704  1.00  0.00     0.181 C 
ATOM     29  C   UNL     1       9.562   1.349  -0.392  1.00  0.00     0.186 C 
BRANCH  26  30
ATOM     30  O   UNL     1       7.035   3.344  -1.247  1.00  0.00    -0.384 OA
ATOM     31  H   UNL     1       7.511   3.611  -0.418  1.00  0.00     0.211 HD
ENDBRANCH  26  30
BRANCH  27  32
ATOM     32  C   UNL     1       9.742  -1.183  -0.812  1.00  0.00     0.335 C 
ATOM     33  O   UNL     1      10.911  -1.352  -0.499  1.00  0.00    -0.249 OA
BRANCH  32  34
ATOM     34  O   UNL     1       9.191  -2.025  -1.717  1.00  0.00    -0.479 OA
ATOM     35  H   UNL     1       8.269  -1.971  -2.001  1.00  0.00     0.296 HD
ENDBRANCH  32  34
ENDBRANCH  27  32
BRANCH  28  36
ATOM     36  O   UNL     1       9.378   1.125  -2.798  1.00  0.00    -0.387 OA
ATOM     37  H   UNL     1       8.746   0.366  -2.882  1.00  0.00     0.211 HD
ENDBRANCH  28  36
BRANCH  29  38
ATOM     38  O   UNL     1      10.968   1.359  -0.325  1.00  0.00    -0.387 OA
ATOM     39  H   UNL     1      11.325   1.102  -1.214  1.00  0.00     0.211 HD
ENDBRANCH  29  38
ENDBRANCH  23  24
ENDBRANCH  21  23
ENDBRANCH   3  21
TORSDOF 12
