REMARK SMILES C[C@@H]1O[C@@H](O[C@H]2[C@@H]3C=CO[C@@H](O[C@@H]4O[C@H](CO)[C@@H](O)[C@H](O)[C@H]4O)[C@@H]3[C@@]3(COC(=O)/C=C/c4ccccc4)O[C@@H]23)[C@H](O)[C@H](O)[C@H]1O
REMARK SMILES IDX 6 1 7 2 8 3 9 4 10 5 11 6 24 7 25 8 38 9 39 10 5 11 4 12
REMARK SMILES IDX 2 13 3 14 44 15 42 16 40 17 1 18 45 19 43 21 41 23 26 25
REMARK SMILES IDX 27 26 28 27 29 28 30 29 31 30 32 31 33 32 37 33 34 34 36 35
REMARK SMILES IDX 35 36 12 37 13 38 14 39 22 40 15 41 20 42 18 43 23 44 16 46
REMARK SMILES IDX 17 47 21 49 19 51
REMARK H PARENT 45 20 43 22 41 24 23 45 17 48 21 50 19 52
ROOT
ATOM      1  C   UNL     1      -0.834  -2.532  -0.095  1.00  0.00     0.161 C 
ATOM      2  C   UNL     1      -1.079  -1.746  -1.384  1.00  0.00     0.059 C 
ATOM      3  C   UNL     1      -0.327  -2.292  -2.574  1.00  0.00     0.018 C 
ATOM      4  C   UNL     1       0.700  -1.604  -3.102  1.00  0.00     0.186 C 
ATOM      5  O   UNL     1       1.114  -0.434  -2.542  1.00  0.00    -0.472 OA
ATOM      6  C   UNL     1       0.809  -0.090  -1.233  1.00  0.00     0.315 C 
ATOM      7  C   UNL     1      -0.704  -0.299  -1.008  1.00  0.00     0.106 C 
ATOM      8  C   UNL     1      -1.133  -0.206   0.474  1.00  0.00     0.141 C 
ATOM      9  O   UNL     1      -2.389  -0.794   0.741  1.00  0.00    -0.359 OA
ATOM     10  C   UNL     1      -1.230  -1.567   1.021  1.00  0.00     0.185 C 
ENDROOT
BRANCH   1  11
ATOM     11  O   UNL     1      -1.615  -3.717  -0.046  1.00  0.00    -0.343 OA
BRANCH  11  12
ATOM     12  C   UNL     1      -0.837  -4.904  -0.095  1.00  0.00     0.282 C 
ATOM     13  C   UNL     1      -0.392  -6.789  -1.473  1.00  0.00     0.150 C 
ATOM     14  O   UNL     1      -1.100  -5.558  -1.334  1.00  0.00    -0.344 OA
ATOM     15  C   UNL     1      -0.715  -7.776  -0.310  1.00  0.00     0.174 C 
ATOM     16  C   UNL     1      -0.480  -7.123   1.064  1.00  0.00     0.179 C 
ATOM     17  C   UNL     1      -1.247  -5.788   1.107  1.00  0.00     0.202 C 
ATOM     18  C   UNL     1       1.110  -6.569  -1.741  1.00  0.00     0.041 C 
BRANCH  15  19
ATOM     19  O   UNL     1      -2.046  -8.235  -0.396  1.00  0.00    -0.388 OA
ATOM     20  H   UNL     1      -2.636  -7.485  -0.666  1.00  0.00     0.211 HD
ENDBRANCH  15  19
BRANCH  16  21
ATOM     21  O   UNL     1       0.896  -6.912   1.259  1.00  0.00    -0.387 OA
ATOM     22  H   UNL     1       1.049  -6.867   2.239  1.00  0.00     0.211 HD
ENDBRANCH  16  21
BRANCH  17  23
ATOM     23  O   UNL     1      -1.047  -5.129   2.334  1.00  0.00    -0.385 OA
ATOM     24  H   UNL     1      -0.134  -4.740   2.332  1.00  0.00     0.211 HD
ENDBRANCH  17  23
ENDBRANCH  11  12
ENDBRANCH   1  11
BRANCH   8  25
ATOM     25  C   UNL     1      -0.741   0.914   1.448  1.00  0.00     0.272 C 
BRANCH  25  26
ATOM     26  O   UNL     1      -1.156   2.161   1.021  1.00  0.00    -0.459 OA
BRANCH  26  27
ATOM     27  C   UNL     1      -2.446   2.584   0.998  1.00  0.00     0.330 C 
ATOM     28  O   UNL     1      -3.358   1.821   1.284  1.00  0.00    -0.247 OA
BRANCH  27  29
ATOM     29  C   UNL     1      -2.720   4.008   0.706  1.00  0.00     0.094 C 
ATOM     30  C   UNL     1      -3.964   4.524   0.764  1.00  0.00     0.015 C 
BRANCH  30  31
ATOM     31  C   UNL     1      -4.306   5.954   0.524  1.00  0.00    -0.025 A 
ATOM     32  C   UNL     1      -3.349   6.934   0.180  1.00  0.00     0.008 A 
ATOM     33  C   UNL     1      -5.651   6.346   0.660  1.00  0.00     0.008 A 
ATOM     34  C   UNL     1      -3.737   8.263  -0.020  1.00  0.00     0.001 A 
ATOM     35  C   UNL     1      -6.031   7.675   0.460  1.00  0.00     0.001 A 
ATOM     36  C   UNL     1      -5.076   8.633   0.120  1.00  0.00     0.000 A 
ENDBRANCH  30  31
ENDBRANCH  27  29
ENDBRANCH  26  27
ENDBRANCH  25  26
ENDBRANCH   8  25
BRANCH   6  37
ATOM     37  O   UNL     1       1.133   1.273  -1.026  1.00  0.00    -0.310 OA
BRANCH  37  38
ATOM     38  C   UNL     1       2.361   1.454  -0.343  1.00  0.00     0.286 C 
ATOM     39  O   UNL     1       2.354   2.747   0.226  1.00  0.00    -0.341 OA
ATOM     40  C   UNL     1       3.573   1.316  -1.313  1.00  0.00     0.202 C 
ATOM     41  C   UNL     1       3.419   2.931   1.166  1.00  0.00     0.178 C 
ATOM     42  C   UNL     1       4.827   2.081  -0.768  1.00  0.00     0.179 C 
ATOM     43  C   UNL     1       4.749   2.190   0.767  1.00  0.00     0.177 C 
BRANCH  40  44
ATOM     44  O   UNL     1       3.854  -0.043  -1.546  1.00  0.00    -0.385 OA
ATOM     45  H   UNL     1       4.138  -0.452  -0.688  1.00  0.00     0.211 HD
ENDBRANCH  40  44
BRANCH  41  46
ATOM     46  C   UNL     1       3.652   4.446   1.321  1.00  0.00     0.191 C 
BRANCH  46  47
ATOM     47  O   UNL     1       2.483   5.075   1.775  1.00  0.00    -0.394 OA
ATOM     48  H   UNL     1       1.909   5.223   0.979  1.00  0.00     0.210 HD
ENDBRANCH  46  47
ENDBRANCH  41  46
BRANCH  42  49
ATOM     49  O   UNL     1       4.941   3.370  -1.329  1.00  0.00    -0.387 OA
ATOM     50  H   UNL     1       4.038   3.727  -1.531  1.00  0.00     0.211 HD
ENDBRANCH  42  49
BRANCH  43  51
ATOM     51  O   UNL     1       4.760   0.893   1.308  1.00  0.00    -0.387 OA
ATOM     52  H   UNL     1       4.938   0.987   2.281  1.00  0.00     0.211 HD
ENDBRANCH  43  51
ENDBRANCH  37  38
ENDBRANCH   6  37
TORSDOF 17
