REMARK SMILES COc1cc(/C=C/C(=O)OC[C@@H]2O[C@H](Oc3cc(O)c4c(=O)c(O[C@@H]5O[C@H](CO)[C@@H](O)[C@H](O)[C@H]5O[C@H]5O[C@@H](CO)[C@H](O)[C@H](O)[C@H]5O)c(-c5ccc(O)cc5)oc4c3)[C@H](O)[C@H](O)[C@H]2O)cc(OC)c1O
REMARK SMILES IDX 15 1 14 2 12 3 13 4 62 5 60 6 58 7 11 8 10 9 8 10 9 11 7 12
REMARK SMILES IDX 6 13 5 14 3 15 4 16 68 17 65 18 64 19 2 20 1 21 69 22 66 24
REMARK SMILES IDX 67 25 63 26 61 28 59 30 16 32 17 33 57 34 18 35 56 36 20 37
REMARK SMILES IDX 55 38 21 39 47 40 22 41 23 42 19 43 48 45 49 46 54 47 50 48
REMARK SMILES IDX 53 49 51 50 52 51 24 53 25 54 26 55 34 56 27 57 32 58 30 59
REMARK SMILES IDX 35 60 36 61 37 62 45 63 38 64 43 65 41 66 46 67 39 69 40 70
REMARK SMILES IDX 44 72 42 74 28 76 29 77 33 79 31 81
REMARK H PARENT 69 23 63 27 61 29 59 31 19 44 52 52 46 68 40 71 44 73 42 75
REMARK H PARENT 29 78 33 80 31 82
ROOT
ATOM      1  O   UNL     1       1.993  -0.135  -0.119  1.00  0.00    -0.462 OA
ENDROOT
BRANCH   1   2
ATOM      2  C   UNL     1       3.183  -0.215   0.574  1.00  0.00     0.339 C 
ATOM      3  C   UNL     1       5.515  -0.064   0.035  1.00  0.00     0.191 C 
ATOM      4  O   UNL     1       4.173  -0.024  -0.414  1.00  0.00    -0.331 OA
ATOM      5  C   UNL     1       5.773   0.915   1.218  1.00  0.00     0.178 C 
ATOM      6  C   UNL     1       4.701   0.744   2.307  1.00  0.00     0.181 C 
ATOM      7  C   UNL     1       3.303   0.869   1.677  1.00  0.00     0.214 C 
BRANCH   3   8
ATOM      8  C   UNL     1       6.306   0.390  -1.200  1.00  0.00     0.268 C 
BRANCH   8   9
ATOM      9  O   UNL     1       7.658   0.568  -0.985  1.00  0.00    -0.460 OA
BRANCH   9  10
ATOM     10  C   UNL     1       8.402   1.333  -1.836  1.00  0.00     0.330 C 
ATOM     11  O   UNL     1       7.862   1.965  -2.736  1.00  0.00    -0.247 OA
BRANCH  10  12
ATOM     12  C   UNL     1       9.858   1.463  -1.691  1.00  0.00     0.094 C 
ATOM     13  C   UNL     1      10.571   0.742  -0.813  1.00  0.00     0.016 C 
BRANCH  13  14
ATOM     14  C   UNL     1      12.053   0.839  -0.674  1.00  0.00    -0.018 A 
ATOM     15  C   UNL     1      14.099  -0.073   0.302  1.00  0.00     0.165 A 
ATOM     16  C   UNL     1      12.700  -0.095   0.144  1.00  0.00     0.058 A 
ATOM     17  C   UNL     1      14.854   0.905  -0.362  1.00  0.00     0.200 A 
ATOM     18  C   UNL     1      14.223   1.859  -1.183  1.00  0.00     0.165 A 
ATOM     19  C   UNL     1      12.824   1.815  -1.335  1.00  0.00     0.058 A 
BRANCH  15  20
ATOM     20  O   UNL     1      14.752  -0.980   1.076  1.00  0.00    -0.493 OA
ATOM     21  C   UNL     1      14.167  -2.024   1.762  1.00  0.00     0.278 C 
ENDBRANCH  15  20
BRANCH  17  22
ATOM     22  O   UNL     1      16.195   0.913  -0.201  1.00  0.00    -0.502 OA
ATOM     23  H   UNL     1      16.774   1.557  -0.634  1.00  0.00     0.293 HD
ENDBRANCH  17  22
BRANCH  18  24
ATOM     24  O   UNL     1      14.986   2.797  -1.808  1.00  0.00    -0.493 OA
ATOM     25  C   UNL     1      14.524   3.804  -2.632  1.00  0.00     0.278 C 
ENDBRANCH  18  24
ENDBRANCH  13  14
ENDBRANCH  10  12
ENDBRANCH   9  10
ENDBRANCH   8   9
ENDBRANCH   3   8
BRANCH   5  26
ATOM     26  O   UNL     1       7.064   0.742   1.748  1.00  0.00    -0.387 OA
ATOM     27  H   UNL     1       7.120  -0.186   2.099  1.00  0.00     0.211 HD
ENDBRANCH   5  26
BRANCH   6  28
ATOM     28  O   UNL     1       4.878   1.663   3.358  1.00  0.00    -0.387 OA
ATOM     29  H   UNL     1       4.862   2.576   2.970  1.00  0.00     0.211 HD
ENDBRANCH   6  28
BRANCH   7  30
ATOM     30  O   UNL     1       3.067   2.166   1.174  1.00  0.00    -0.384 OA
ATOM     31  H   UNL     1       3.515   2.261   0.294  1.00  0.00     0.211 HD
ENDBRANCH   7  30
ENDBRANCH   1   2
BRANCH   1  32
ATOM     32  C   UNL     1       0.696  -0.323   0.208  1.00  0.00     0.130 A 
ATOM     33  C   UNL     1       0.216  -0.543   1.510  1.00  0.00     0.093 A 
ATOM     34  C   UNL     1      -0.201  -0.309  -0.856  1.00  0.00     0.094 A 
ATOM     35  C   UNL     1      -1.162  -0.729   1.736  1.00  0.00     0.134 A 
ATOM     36  C   UNL     1      -1.557  -0.520  -0.656  1.00  0.00     0.146 A 
ATOM     37  C   UNL     1      -2.064  -0.727   0.640  1.00  0.00     0.111 A 
ATOM     38  O   UNL     1      -2.353  -0.535  -1.711  1.00  0.00    -0.452 OA
ATOM     39  C   UNL     1      -3.450  -0.946   0.766  1.00  0.00     0.239 A 
ATOM     40  C   UNL     1      -3.663  -0.747  -1.657  1.00  0.00     0.180 A 
ATOM     41  O   UNL     1      -3.945  -1.114   1.867  1.00  0.00    -0.285 OA
ATOM     42  C   UNL     1      -4.262  -0.980  -0.393  1.00  0.00     0.214 A 
BRANCH  35  43
ATOM     43  O   UNL     1      -1.608  -0.924   2.996  1.00  0.00    -0.507 OA
ATOM     44  H   UNL     1      -1.016  -0.923   3.762  1.00  0.00     0.293 HD
ENDBRANCH  35  43
BRANCH  40  45
ATOM     45  C   UNL     1      -4.387  -0.794  -2.978  1.00  0.00     0.021 A 
ATOM     46  C   UNL     1      -5.796  -0.745  -3.124  1.00  0.00     0.016 A 
ATOM     47  C   UNL     1      -3.612  -0.904  -4.154  1.00  0.00     0.016 A 
ATOM     48  C   UNL     1      -6.389  -0.822  -4.388  1.00  0.00     0.047 A 
ATOM     49  C   UNL     1      -4.212  -0.985  -5.413  1.00  0.00     0.047 A 
ATOM     50  C   UNL     1      -5.600  -0.948  -5.535  1.00  0.00     0.115 A 
BRANCH  50  51
ATOM     51  O   UNL     1      -6.164  -1.032  -6.757  1.00  0.00    -0.508 OA
ATOM     52  H   UNL     1      -7.123  -1.015  -6.883  1.00  0.00     0.293 HD
ENDBRANCH  50  51
ENDBRANCH  40  45
BRANCH  42  53
ATOM     53  O   UNL     1      -5.579  -1.281  -0.349  1.00  0.00    -0.454 OA
BRANCH  53  54
ATOM     54  C   UNL     1      -6.191  -2.283   0.377  1.00  0.00     0.340 C 
ATOM     55  O   UNL     1      -6.402  -3.363  -0.537  1.00  0.00    -0.332 OA
ATOM     56  C   UNL     1      -7.500  -1.718   0.952  1.00  0.00     0.221 C 
ATOM     57  C   UNL     1      -7.517  -4.220  -0.281  1.00  0.00     0.179 C 
ATOM     58  C   UNL     1      -8.257  -2.806   1.742  1.00  0.00     0.181 C 
ATOM     59  C   UNL     1      -7.949  -4.233   1.217  1.00  0.00     0.177 C 
BRANCH  56  60
ATOM     60  O   UNL     1      -7.239  -0.608   1.803  1.00  0.00    -0.337 OA
BRANCH  60  61
ATOM     61  C   UNL     1      -7.872   0.601   1.401  1.00  0.00     0.282 C 
ATOM     62  O   UNL     1      -8.694   1.052   2.471  1.00  0.00    -0.341 OA
ATOM     63  C   UNL     1      -6.768   1.647   1.094  1.00  0.00     0.202 C 
ATOM     64  C   UNL     1      -9.414   2.226   2.108  1.00  0.00     0.178 C 
ATOM     65  C   UNL     1      -7.408   3.002   0.726  1.00  0.00     0.179 C 
ATOM     66  C   UNL     1      -8.433   3.401   1.814  1.00  0.00     0.177 C 
BRANCH  63  67
ATOM     67  O   UNL     1      -5.884   1.792   2.183  1.00  0.00    -0.385 OA
ATOM     68  H   UNL     1      -6.409   1.884   3.019  1.00  0.00     0.211 HD
ENDBRANCH  63  67
BRANCH  64  69
ATOM     69  C   UNL     1     -10.379   2.584   3.250  1.00  0.00     0.191 C 
BRANCH  69  70
ATOM     70  O   UNL     1      -9.684   2.882   4.432  1.00  0.00    -0.394 OA
ATOM     71  H   UNL     1      -9.425   2.015   4.838  1.00  0.00     0.210 HD
ENDBRANCH  69  70
ENDBRANCH  64  69
BRANCH  65  72
ATOM     72  O   UNL     1      -7.981   2.954  -0.563  1.00  0.00    -0.387 OA
ATOM     73  H   UNL     1      -8.796   2.397  -0.548  1.00  0.00     0.211 HD
ENDBRANCH  65  72
BRANCH  66  74
ATOM     74  O   UNL     1      -9.107   4.585   1.462  1.00  0.00    -0.387 OA
ATOM     75  H   UNL     1      -9.717   4.372   0.709  1.00  0.00     0.211 HD
ENDBRANCH  66  74
ENDBRANCH  60  61
ENDBRANCH  56  60
BRANCH  57  76
ATOM     76  C   UNL     1      -8.640  -3.929  -1.293  1.00  0.00     0.191 C 
BRANCH  76  77
ATOM     77  O   UNL     1      -9.688  -4.849  -1.149  1.00  0.00    -0.394 OA
ATOM     78  H   UNL     1      -9.402  -5.680  -1.611  1.00  0.00     0.210 HD
ENDBRANCH  76  77
ENDBRANCH  57  76
BRANCH  58  79
ATOM     79  O   UNL     1      -9.633  -2.520   1.766  1.00  0.00    -0.387 OA
ATOM     80  H   UNL     1      -9.998  -2.687   0.861  1.00  0.00     0.211 HD
ENDBRANCH  58  79
BRANCH  59  81
ATOM     81  O   UNL     1      -6.934  -4.801   2.027  1.00  0.00    -0.387 OA
ATOM     82  H   UNL     1      -6.071  -4.850   1.540  1.00  0.00     0.211 HD
ENDBRANCH  59  81
ENDBRANCH  53  54
ENDBRANCH  42  53
ENDBRANCH   1  32
TORSDOF 29
