REMARK SMILES C=C1CC[C@@H]2[C@](C)(CO)CCC[C@@]2(C)[C@@H]1CC[C@@H](C)CCO
REMARK SMILES IDX 17 1 16 2 15 3 1 4 2 5 3 6 4 7 13 8 5 9 12 10 6 11 11 12
REMARK SMILES IDX 10 13 14 14 7 15 8 16 9 17 18 19 19 20 20 21 21 22 22 23
REMARK H PARENT 9 18 22 24
ROOT
ATOM      1  C   UNL     1       2.504  -0.180  -0.323  1.00  0.00     0.004 C 
ENDROOT
BRANCH   1   2
ATOM      2  C   UNL     1       1.579  -1.371   0.038  1.00  0.00     0.009 C 
BRANCH   2   3
ATOM      3  C   UNL     1       0.250  -0.977   0.767  1.00  0.00     0.021 C 
ATOM      4  C   UNL     1       0.031  -3.431   1.463  1.00  0.00     0.008 C 
ATOM      5  C   UNL     1      -0.354  -2.143   1.573  1.00  0.00    -0.074 C 
ATOM      6  C   UNL     1      -1.472  -1.782   2.520  1.00  0.00     0.031 C 
ATOM      7  C   UNL     1      -2.598  -1.035   1.785  1.00  0.00     0.009 C 
ATOM      8  C   UNL     1      -0.948  -0.361  -0.088  1.00  0.00    -0.023 C 
ATOM      9  C   UNL     1      -2.015   0.170   0.993  1.00  0.00     0.004 C 
ATOM     10  C   UNL     1      -0.563   0.849  -0.962  1.00  0.00     0.008 C 
ATOM     11  C   UNL     1      -3.043   1.308   0.503  1.00  0.00    -0.006 C 
ATOM     12  C   UNL     1      -1.767   1.474  -1.721  1.00  0.00     0.001 C 
ATOM     13  C   UNL     1      -3.140   1.304  -1.028  1.00  0.00     0.009 C 
ATOM     14  C   UNL     1      -1.464  -1.481  -1.061  1.00  0.00     0.012 C 
ATOM     15  C   UNL     1      -2.548   2.719   0.949  1.00  0.00     0.014 C 
BRANCH  11  16
ATOM     16  C   UNL     1      -4.472   1.166   1.109  1.00  0.00     0.163 C 
BRANCH  16  17
ATOM     17  O   UNL     1      -5.087  -0.042   0.739  1.00  0.00    -0.396 OA
ATOM     18  H   UNL     1      -5.653   0.145  -0.055  1.00  0.00     0.210 HD
ENDBRANCH  16  17
ENDBRANCH  11  16
ENDBRANCH   2   3
ENDBRANCH   1   2
BRANCH   1  19
ATOM     19  C   UNL     1       3.918  -0.601  -0.802  1.00  0.00    -0.012 C 
ATOM     20  C   UNL     1       3.847  -1.489  -2.057  1.00  0.00     0.008 C 
BRANCH  19  21
ATOM     21  C   UNL     1       4.797   0.637  -1.128  1.00  0.00     0.031 C 
BRANCH  21  22
ATOM     22  C   UNL     1       5.054   1.562   0.070  1.00  0.00     0.156 C 
BRANCH  22  23
ATOM     23  O   UNL     1       5.887   2.623  -0.313  1.00  0.00    -0.396 OA
ATOM     24  H   UNL     1       6.813   2.268  -0.327  1.00  0.00     0.210 HD
ENDBRANCH  22  23
ENDBRANCH  21  22
ENDBRANCH  19  21
ENDBRANCH   1  19
TORSDOF 8
