REMARK SMILES O[C@H]1[C@H](O)[C@@H](O)[C@H](O)[C@H](O)[C@H]1O
REMARK SMILES IDX 2 1 3 2 5 3 7 4 9 5 11 6 1 7 4 9 12 11 6 13 10 15 8 17
REMARK H PARENT 1 8 4 10 12 12 6 14 10 16 8 18
ROOT
ATOM      1  C   UNL     1       1.111   1.124  -0.317  1.00  0.00     0.177 C 
ATOM      2  C   UNL     1       1.397  -0.334  -0.770  1.00  0.00     0.177 C 
ATOM      3  C   UNL     1       0.645  -1.351   0.124  1.00  0.00     0.177 C 
ATOM      4  C   UNL     1      -0.891  -1.073   0.143  1.00  0.00     0.177 C 
ATOM      5  C   UNL     1      -1.202   0.409   0.520  1.00  0.00     0.177 C 
ATOM      6  C   UNL     1      -0.410   1.417  -0.360  1.00  0.00     0.177 C 
ENDROOT
BRANCH   1   7
ATOM      7  O   UNL     1       1.601   1.336   0.984  1.00  0.00    -0.387 OA
ATOM      8  H   UNL     1       2.589   1.403   0.911  1.00  0.00     0.211 HD
ENDBRANCH   1   7
BRANCH   2   9
ATOM      9  O   UNL     1       1.017  -0.508  -2.111  1.00  0.00    -0.387 OA
ATOM     10  H   UNL     1       1.666   0.001  -2.663  1.00  0.00     0.211 HD
ENDBRANCH   2   9
BRANCH   6  11
ATOM     11  O   UNL     1      -0.675   2.744   0.027  1.00  0.00    -0.387 OA
ATOM     12  H   UNL     1      -0.440   2.835   0.987  1.00  0.00     0.211 HD
ENDBRANCH   6  11
BRANCH   3  13
ATOM     13  O   UNL     1       1.224  -1.357   1.414  1.00  0.00    -0.387 OA
ATOM     14  H   UNL     1       0.619  -0.930   2.071  1.00  0.00     0.211 HD
ENDBRANCH   3  13
BRANCH   5  15
ATOM     15  O   UNL     1      -2.585   0.659   0.479  1.00  0.00    -0.387 OA
ATOM     16  H   UNL     1      -2.866   0.659  -0.473  1.00  0.00     0.211 HD
ENDBRANCH   5  15
BRANCH   4  17
ATOM     17  O   UNL     1      -1.479  -1.458  -1.081  1.00  0.00    -0.387 OA
ATOM     18  H   UNL     1      -1.372  -0.738  -1.748  1.00  0.00     0.211 HD
ENDBRANCH   4  17
TORSDOF 6
