REMARK SMILES O=C1O[C@@]23[C@H](c4ccccc4)C[C@@H](O)[C@@](O)(c4ccccc4)[C@@]2(O[C@H]3c2ccccc2)[C@]1(O)Cc1ccccc1
REMARK SMILES IDX 1 1 2 2 3 3 4 4 5 5 12 6 13 7 15 8 23 9 24 10 25 11 32 12
REMARK SMILES IDX 33 13 34 15 35 16 36 17 40 18 37 19 39 20 38 21 6 22 7 23
REMARK SMILES IDX 11 24 8 25 10 26 9 27 26 28 27 29 31 30 28 31 30 32 29 33
REMARK SMILES IDX 16 34 17 36 18 37 22 38 19 39 21 40 20 41 14 42
REMARK H PARENT 33 14 16 35 14 43
ROOT
ATOM      1  O   UNL     1       1.125   1.524   2.091  1.00  0.00    -0.249 OA
ATOM      2  C   UNL     1       0.719   0.839   1.165  1.00  0.00     0.342 C 
ATOM      3  O   UNL     1      -0.592   0.623   0.967  1.00  0.00    -0.450 OA
ATOM      4  C   UNL     1      -0.864  -0.161  -0.136  1.00  0.00     0.185 C 
ATOM      5  C   UNL     1      -1.929   0.427  -1.085  1.00  0.00     0.072 C 
ATOM      6  C   UNL     1      -2.036  -0.313  -2.450  1.00  0.00     0.048 C 
ATOM      7  C   UNL     1      -0.702  -0.972  -2.940  1.00  0.00     0.154 C 
ATOM      8  C   UNL     1       0.607  -0.310  -2.353  1.00  0.00     0.152 C 
ATOM      9  C   UNL     1       0.503  -0.465  -0.766  1.00  0.00     0.187 C 
ATOM     10  O   UNL     1       0.372  -1.839  -0.415  1.00  0.00    -0.351 OA
ATOM     11  C   UNL     1      -0.920  -1.668   0.130  1.00  0.00     0.197 C 
ATOM     12  C   UNL     1       1.608   0.176   0.166  1.00  0.00     0.202 C 
ENDROOT
BRANCH  12  13
ATOM     13  O   UNL     1       2.373   1.154  -0.485  1.00  0.00    -0.375 OA
ATOM     14  H   UNL     1       2.917   0.691  -1.174  1.00  0.00     0.212 HD
ENDBRANCH  12  13
BRANCH  12  15
ATOM     15  C   UNL     1       2.547  -0.858   0.869  1.00  0.00     0.086 C 
BRANCH  15  16
ATOM     16  C   UNL     1       3.520  -0.233   1.852  1.00  0.00    -0.044 A 
ATOM     17  C   UNL     1       3.400  -0.504   3.228  1.00  0.00     0.004 A 
ATOM     18  C   UNL     1       4.556   0.615   1.415  1.00  0.00     0.004 A 
ATOM     19  C   UNL     1       4.285   0.072   4.144  1.00  0.00     0.000 A 
ATOM     20  C   UNL     1       5.440   1.185   2.335  1.00  0.00     0.000 A 
ATOM     21  C   UNL     1       5.304   0.917   3.698  1.00  0.00     0.000 A 
ENDBRANCH  15  16
ENDBRANCH  12  15
BRANCH   5  22
ATOM     22  C   UNL     1      -3.280   0.597  -0.407  1.00  0.00    -0.041 A 
ATOM     23  C   UNL     1      -4.045  -0.515  -0.002  1.00  0.00     0.004 A 
ATOM     24  C   UNL     1      -3.783   1.889  -0.159  1.00  0.00     0.004 A 
ATOM     25  C   UNL     1      -5.276  -0.337   0.634  1.00  0.00     0.000 A 
ATOM     26  C   UNL     1      -5.016   2.061   0.479  1.00  0.00     0.000 A 
ATOM     27  C   UNL     1      -5.761   0.950   0.876  1.00  0.00     0.000 A 
ENDBRANCH   5  22
BRANCH  11  28
ATOM     28  C   UNL     1      -0.995  -2.182   1.557  1.00  0.00    -0.015 A 
ATOM     29  C   UNL     1      -1.622  -1.467   2.598  1.00  0.00     0.006 A 
ATOM     30  C   UNL     1      -0.460  -3.453   1.837  1.00  0.00     0.006 A 
ATOM     31  C   UNL     1      -1.682  -2.003   3.888  1.00  0.00     0.000 A 
ATOM     32  C   UNL     1      -0.522  -3.983   3.129  1.00  0.00     0.000 A 
ATOM     33  C   UNL     1      -1.129  -3.257   4.154  1.00  0.00     0.000 A 
ENDBRANCH  11  28
BRANCH   8  34
ATOM     34  O   UNL     1       1.759  -1.047  -2.709  1.00  0.00    -0.379 OA
ATOM     35  H   UNL     1       1.626  -1.476  -3.592  1.00  0.00     0.212 HD
ENDBRANCH   8  34
BRANCH   8  36
ATOM     36  C   UNL     1       0.766   1.121  -2.941  1.00  0.00    -0.011 A 
ATOM     37  C   UNL     1       0.628   2.317  -2.196  1.00  0.00     0.007 A 
ATOM     38  C   UNL     1       1.094   1.252  -4.312  1.00  0.00     0.007 A 
ATOM     39  C   UNL     1       0.801   3.569  -2.794  1.00  0.00     0.000 A 
ATOM     40  C   UNL     1       1.267   2.506  -4.904  1.00  0.00     0.000 A 
ATOM     41  C   UNL     1       1.119   3.664  -4.146  1.00  0.00     0.000 A 
ENDBRANCH   8  36
BRANCH   7  42
ATOM     42  O   UNL     1      -0.694  -1.135  -4.338  1.00  0.00    -0.390 OA
ATOM     43  H   UNL     1      -1.026  -0.299  -4.754  1.00  0.00     0.211 HD
ENDBRANCH   7  42
TORSDOF 8
