REMARK SMILES CN1CCc2cc3c(c4c2[C@H]1Cc1ccc(O)cc1-4)OCO3
REMARK SMILES IDX 1 1 2 2 3 3 4 4 5 5 6 6 7 7 8 8 20 9 21 10 22 11 9 12 10 13
REMARK SMILES IDX 11 14 12 15 13 16 14 17 15 18 16 19 18 20 19 21 17 22
REMARK H PARENT 17 23
ROOT
ATOM      1  C   UNL     1      -3.505   1.909  -0.491  1.00  0.00     0.106 C 
ATOM      2  N   UNL     1      -2.589   0.775  -0.708  1.00  0.00    -0.299 NA
ATOM      3  C   UNL     1      -3.342  -0.505  -0.877  1.00  0.00     0.089 C 
ATOM      4  C   UNL     1      -2.943  -1.573   0.142  1.00  0.00     0.051 C 
ATOM      5  C   UNL     1      -1.457  -1.732   0.076  1.00  0.00    -0.037 A 
ATOM      6  C   UNL     1      -0.855  -2.993  -0.061  1.00  0.00     0.054 A 
ATOM      7  C   UNL     1       0.528  -3.041  -0.093  1.00  0.00     0.166 A 
ATOM      8  C   UNL     1       1.299  -1.929   0.001  1.00  0.00     0.173 A 
ATOM      9  O   UNL     1       2.579  -2.311  -0.048  1.00  0.00    -0.453 OA
ATOM     10  C   UNL     1       2.624  -3.695  -0.179  1.00  0.00     0.468 C 
ATOM     11  O   UNL     1       1.304  -4.121  -0.206  1.00  0.00    -0.454 OA
ATOM     12  C   UNL     1       0.748  -0.631   0.128  1.00  0.00     0.033 A 
ATOM     13  C   UNL     1      -0.672  -0.554   0.139  1.00  0.00    -0.015 A 
ATOM     14  C   UNL     1      -1.440   0.749   0.256  1.00  0.00     0.092 C 
ATOM     15  C   UNL     1      -0.569   2.011   0.061  1.00  0.00     0.060 C 
ATOM     16  C   UNL     1       0.910   1.874   0.283  1.00  0.00    -0.038 A 
ATOM     17  C   UNL     1       1.659   3.058   0.389  1.00  0.00     0.008 A 
ATOM     18  C   UNL     1       3.042   3.015   0.522  1.00  0.00     0.046 A 
ATOM     19  C   UNL     1       3.703   1.787   0.537  1.00  0.00     0.116 A 
ATOM     20  C   UNL     1       2.970   0.601   0.420  1.00  0.00     0.055 A 
ATOM     21  C   UNL     1       1.561   0.619   0.285  1.00  0.00    -0.007 A 
ENDROOT
BRANCH  19  22
ATOM     22  O   UNL     1       5.045   1.729   0.653  1.00  0.00    -0.508 OA
ATOM     23  H   UNL     1       5.590   2.526   0.721  1.00  0.00     0.293 HD
ENDBRANCH  19  22
TORSDOF 1
