REMARK SMILES CC(=O)OCC(=O)[C@@]1(O)[C@H](C)C[C@H]2[C@@H]3CC[C@H]4C[C@@H](O)CC[C@]4(C)[C@H]3CC[C@@]21C
REMARK SMILES IDX 6 1 7 2 5 3 4 4 2 5 3 6 1 7 8 8 10 9 28 10 12 11 27 12 13 13
REMARK SMILES IDX 26 14 14 15 25 16 15 17 23 18 16 19 22 20 17 21 21 22 18 23
REMARK SMILES IDX 19 24 11 25 29 26 24 27 9 28 20 30
REMARK H PARENT 9 29 20 31
ROOT
ATOM      1  C   UNL     1       3.928  -1.424   0.604  1.00  0.00     0.202 C 
ATOM      2  O   UNL     1       3.977  -2.552   1.073  1.00  0.00    -0.293 OA
ENDROOT
BRANCH   1   3
ATOM      3  C   UNL     1       5.122  -0.548   0.937  1.00  0.00     0.311 C 
BRANCH   3   4
ATOM      4  O   UNL     1       5.077   0.706   0.371  1.00  0.00    -0.458 OA
BRANCH   4   5
ATOM      5  C   UNL     1       6.072   1.621   0.509  1.00  0.00     0.303 C 
ATOM      6  O   UNL     1       7.047   1.390   1.209  1.00  0.00    -0.253 OA
ATOM      7  C   UNL     1       5.976   2.916  -0.229  1.00  0.00     0.139 C 
ENDBRANCH   4   5
ENDBRANCH   3   4
ENDBRANCH   1   3
BRANCH   1   8
ATOM      8  C   UNL     1       2.706  -1.059  -0.276  1.00  0.00     0.134 C 
ATOM      9  C   UNL     1       2.481  -2.130  -1.440  1.00  0.00     0.026 C 
ATOM     10  C   UNL     1       1.317  -1.102   0.452  1.00  0.00     0.007 C 
ATOM     11  C   UNL     1       0.940  -2.308  -1.604  1.00  0.00     0.011 C 
ATOM     12  C   UNL     1       0.905   0.102   1.386  1.00  0.00     0.011 C 
ATOM     13  C   UNL     1       0.410  -1.128  -0.829  1.00  0.00     0.002 C 
ATOM     14  C   UNL     1       0.056   1.164   0.664  1.00  0.00     0.005 C 
ATOM     15  C   UNL     1      -1.051  -0.954  -0.429  1.00  0.00    -0.004 C 
ATOM     16  C   UNL     1      -1.233   0.564  -0.036  1.00  0.00    -0.001 C 
ATOM     17  C   UNL     1      -2.101  -1.353  -1.466  1.00  0.00     0.004 C 
ATOM     18  C   UNL     1      -2.641   0.794   0.630  1.00  0.00    -0.026 C 
ATOM     19  C   UNL     1      -3.498  -1.190  -0.836  1.00  0.00     0.004 C 
ATOM     20  C   UNL     1      -2.921   2.320   0.829  1.00  0.00     0.010 C 
ATOM     21  C   UNL     1      -3.724   0.273  -0.398  1.00  0.00    -0.002 C 
ATOM     22  C   UNL     1      -4.359   2.603   1.316  1.00  0.00     0.032 C 
ATOM     23  C   UNL     1      -5.161   0.499   0.116  1.00  0.00     0.036 C 
ATOM     24  C   UNL     1      -5.396   2.004   0.349  1.00  0.00     0.114 C 
ATOM     25  C   UNL     1       3.164  -1.784  -2.772  1.00  0.00     0.011 C 
ATOM     26  C   UNL     1       1.201  -2.383   1.360  1.00  0.00     0.015 C 
ATOM     27  C   UNL     1      -2.705   0.077   2.013  1.00  0.00     0.012 C 
BRANCH   8  28
ATOM     28  O   UNL     1       2.832   0.247  -0.803  1.00  0.00    -0.381 OA
ATOM     29  H   UNL     1       3.612   0.278  -1.411  1.00  0.00     0.212 HD
ENDBRANCH   8  28
BRANCH  24  30
ATOM     30  O   UNL     1      -6.702   2.241   0.808  1.00  0.00    -0.393 OA
ATOM     31  H   UNL     1      -6.804   1.769   1.676  1.00  0.00     0.210 HD
ENDBRANCH  24  30
ENDBRANCH   1   8
TORSDOF 6
