REMARK SMILES CCC(=O)[C@H](C)[C@H]1O[C@H]1C[C@@H](C)/C=C/C=C(\C)[C@H]1OC(=O)C[C@@H](O)CC[C@@](C)(O)[C@@H](OC(C)=O)/C=C/[C@@H]1C
REMARK SMILES IDX 13 1 14 2 11 3 12 4 10 5 9 6 7 7 8 8 5 9 6 10 3 11 4 12 2 13
REMARK SMILES IDX 1 14 15 15 16 16 17 17 18 18 19 19 20 20 21 21 22 22 23 23
REMARK SMILES IDX 24 24 25 26 37 28 38 29 36 30 35 31 30 32 27 33 28 34 26 35
REMARK SMILES IDX 29 37 31 39 32 40 34 41 33 42
REMARK H PARENT 24 25 29 38
REMARK Flexibility Score:   65.900
ROOT
ATOM      1  C   UNL     1       2.505   0.795  -0.055  1.00  0.00    -0.024 C 
ATOM      2  C   UNL     1       1.591   1.060   0.893  1.00  0.00    -0.004 C 
ENDROOT
BRANCH   1   3
ATOM      3  C   UNL     1       3.769   1.623  -0.184  1.00  0.00     0.011 C 
ATOM      4  C   UNL     1       3.788   2.336  -1.540  1.00  0.00     0.012 C 
BRANCH   3   5
ATOM      5  C   UNL     1       5.043   0.779   0.051  1.00  0.00     0.042 C 
BRANCH   5   6
ATOM      6  C   UNL     1       5.222  -0.376  -0.953  1.00  0.00     0.149 C 
ATOM      7  C   UNL     1       6.224  -1.453  -0.709  1.00  0.00     0.157 C 
ATOM      8  O   UNL     1       4.848  -1.621  -0.412  1.00  0.00    -0.369 OA
BRANCH   7   9
ATOM      9  C   UNL     1       7.101  -1.506   0.562  1.00  0.00     0.084 C 
ATOM     10  C   UNL     1       7.084  -2.933   1.130  1.00  0.00     0.019 C 
BRANCH   9  11
ATOM     11  C   UNL     1       8.510  -1.053   0.218  1.00  0.00     0.138 C 
ATOM     12  O   UNL     1       9.457  -1.816   0.363  1.00  0.00    -0.299 OA
BRANCH  11  13
ATOM     13  C   UNL     1       8.743   0.353  -0.292  1.00  0.00     0.072 C 
ATOM     14  C   UNL     1      10.216   0.654  -0.576  1.00  0.00     0.012 C 
ENDBRANCH  11  13
ENDBRANCH   9  11
ENDBRANCH   7   9
ENDBRANCH   5   6
ENDBRANCH   3   5
ENDBRANCH   1   3
BRANCH   2  15
ATOM     15  C   UNL     1       0.342   0.255   1.021  1.00  0.00     0.002 C 
ATOM     16  C   UNL     1      -0.597   0.410   2.000  1.00  0.00    -0.032 C 
ATOM     17  C   UNL     1      -0.469   1.452   3.102  1.00  0.00     0.043 C 
BRANCH  16  18
ATOM     18  C   UNL     1      -1.852  -0.469   2.132  1.00  0.00     0.209 C 
BRANCH  18  19
ATOM     19  O   UNL     1      -2.955   0.367   2.092  1.00  0.00    -0.457 OA
BRANCH  19  20
ATOM     20  C   UNL     1      -3.808   0.729   3.084  1.00  0.00     0.309 C 
ATOM     21  O   UNL     1      -3.726   0.247   4.206  1.00  0.00    -0.252 OA
BRANCH  20  22
ATOM     22  C   UNL     1      -4.743   1.878   2.794  1.00  0.00     0.154 C 
BRANCH  22  23
ATOM     23  C   UNL     1      -5.849   1.582   1.743  1.00  0.00     0.125 C 
BRANCH  23  24
ATOM     24  O   UNL     1      -6.370   2.795   1.259  1.00  0.00    -0.393 OA
ATOM     25  H   UNL     1      -5.660   3.224   0.712  1.00  0.00     0.210 HD
ENDBRANCH  23  24
BRANCH  23  26
ATOM     26  C   UNL     1      -5.386   0.655   0.600  1.00  0.00     0.035 CG0
ATOM     27  G   UNL     1      -6.361   0.555  -0.581  1.00  0.00     0.000 G0
ENDBRANCH  23  26
ENDBRANCH  22  23
ENDBRANCH  20  22
ENDBRANCH  19  20
ENDBRANCH  18  19
BRANCH  18  28
ATOM     28  C   UNL     1      -2.047  -1.613   1.080  1.00  0.00     0.054 C 
ATOM     29  C   UNL     1      -2.876  -2.741   1.734  1.00  0.00     0.016 C 
BRANCH  28  30
ATOM     30  C   UNL     1      -2.687  -1.049  -0.211  1.00  0.00    -0.020 C 
ATOM     31  C   UNL     1      -3.839  -1.536  -0.733  1.00  0.00     0.016 C 
BRANCH  31  32
ATOM     32  C   UNL     1      -4.643  -0.975  -1.903  1.00  0.00     0.230 C 
BRANCH  32  33
ATOM     33  C   UNL     1      -6.147  -0.681  -1.528  1.00  0.00     0.102 C 
ATOM     34  C   UNL     1      -6.804  -1.937  -0.893  1.00  0.00     0.046 C 
BRANCH  33  35
ATOM     35  C   UNL     1      -6.361   0.555  -0.581  1.00  0.00     0.042 CG0
ATOM     36  G   UNL     1      -5.386   0.655   0.600  1.00  0.00     0.000 G0
ENDBRANCH  33  35
BRANCH  33  37
ATOM     37  O   UNL     1      -6.818  -0.418  -2.740  1.00  0.00    -0.386 OA
ATOM     38  H   UNL     1      -7.774  -0.232  -2.540  1.00  0.00     0.211 HD
ENDBRANCH  33  37
ENDBRANCH  32  33
BRANCH  32  39
ATOM     39  O   UNL     1      -4.079   0.178  -2.428  1.00  0.00    -0.455 OA
BRANCH  39  40
ATOM     40  C   UNL     1      -3.700   0.347  -3.723  1.00  0.00     0.303 C 
ATOM     41  O   UNL     1      -3.721  -0.583  -4.517  1.00  0.00    -0.253 OA
ATOM     42  C   UNL     1      -3.296   1.704  -4.199  1.00  0.00     0.139 C 
ENDBRANCH  39  40
ENDBRANCH  32  39
ENDBRANCH  31  32
ENDBRANCH  28  30
ENDBRANCH  18  28
ENDBRANCH  16  18
ENDBRANCH   2  15
TORSDOF 12
