REMARK SMILES CCOC(=O)C1=C(C)[C@H]2[C@H]3C(=O)N(c4ccccc4[N+](=O)[O-])C(=O)[C@@H]3[C@]1(C)[C@H]1C(=O)N(c3ccccc3[N+](=O)[O-])C(=O)[C@H]21
REMARK SMILES IDX 6 1 7 2 8 3 9 4 43 5 41 6 42 7 31 8 29 9 30 10 28 11 26 12
REMARK SMILES IDX 27 13 25 14 23 15 24 16 13 17 11 18 12 19 10 20 4 21 5 22
REMARK SMILES IDX 3 23 2 24 1 25 32 26 33 27 37 28 34 29 36 30 35 31 38 32
REMARK SMILES IDX 39 33 40 34 14 35 15 36 19 37 16 38 18 39 17 40 20 41 21 42
REMARK SMILES IDX 22 43
REMARK H PARENT
ROOT
ATOM      1  C   UNL     1       0.358   2.234   0.167  1.00  0.00     0.044 C 
ATOM      2  C   UNL     1      -0.019   2.138  -1.179  1.00  0.00    -0.058 C 
ATOM      3  C   UNL     1      -0.207   3.269  -2.161  1.00  0.00     0.040 C 
ATOM      4  C   UNL     1      -0.343   0.708  -1.678  1.00  0.00     0.042 C 
ATOM      5  C   UNL     1       0.895  -0.196  -1.498  1.00  0.00     0.101 C 
ATOM      6  C   UNL     1       2.032  -0.637  -2.336  1.00  0.00     0.238 C 
ATOM      7  O   UNL     1       2.029  -0.757  -3.552  1.00  0.00    -0.274 OA
ATOM      8  N   UNL     1       2.953  -1.202  -1.511  1.00  0.00    -0.243 N 
ATOM      9  C   UNL     1       2.672  -0.876  -0.217  1.00  0.00     0.238 C 
ATOM     10  O   UNL     1       3.357  -1.216   0.736  1.00  0.00    -0.274 OA
ATOM     11  C   UNL     1       1.667   0.228  -0.222  1.00  0.00     0.104 C 
ATOM     12  C   UNL     1       0.645   0.833   0.827  1.00  0.00     0.024 C 
ATOM     13  C   UNL     1       1.251   0.815   2.237  1.00  0.00     0.018 C 
ATOM     14  C   UNL     1      -0.639  -0.036   0.739  1.00  0.00     0.104 C 
ATOM     15  C   UNL     1      -1.787  -0.349   1.619  1.00  0.00     0.238 C 
ATOM     16  O   UNL     1      -1.767  -0.378   2.841  1.00  0.00    -0.274 OA
ATOM     17  N   UNL     1      -2.727  -0.972   0.857  1.00  0.00    -0.243 N 
ATOM     18  C   UNL     1      -2.428  -0.807  -0.464  1.00  0.00     0.238 C 
ATOM     19  O   UNL     1      -3.080  -1.281  -1.380  1.00  0.00    -0.274 OA
ATOM     20  C   UNL     1      -1.394   0.266  -0.581  1.00  0.00     0.101 C 
ENDROOT
BRANCH   1  21
ATOM     21  C   UNL     1       0.521   3.529   0.910  1.00  0.00     0.334 C 
ATOM     22  O   UNL     1       1.015   3.540   2.026  1.00  0.00    -0.247 OA
BRANCH  21  23
ATOM     23  O   UNL     1      -0.001   4.678   0.409  1.00  0.00    -0.463 OA
BRANCH  23  24
ATOM     24  C   UNL     1      -0.210   5.840   1.129  1.00  0.00     0.230 C 
ATOM     25  C   UNL     1      -1.307   5.643   2.178  1.00  0.00     0.049 C 
ENDBRANCH  23  24
ENDBRANCH  21  23
ENDBRANCH   1  21
BRANCH   8  26
ATOM     26  C   UNL     1       4.060  -1.982  -1.933  1.00  0.00     0.129 A 
ATOM     27  C   UNL     1       5.274  -1.325  -2.168  1.00  0.00     0.034 A 
ATOM     28  C   UNL     1       3.960  -3.389  -2.117  1.00  0.00     0.293 A 
ATOM     29  C   UNL     1       6.397  -2.039  -2.581  1.00  0.00     0.003 A 
ATOM     30  C   UNL     1       5.112  -4.088  -2.532  1.00  0.00     0.088 A 
ATOM     31  C   UNL     1       6.316  -3.419  -2.762  1.00  0.00     0.007 A 
BRANCH  28  32
ATOM     32  N   UNL     1       2.743  -4.113  -1.891  1.00  0.00     0.065 N 
ATOM     33  O   UNL     1       1.746  -3.557  -1.545  1.00  0.00    -0.258 OA
ATOM     34  O   UNL     1       2.707  -5.418  -2.065  1.00  0.00    -0.258 OA
ENDBRANCH  28  32
ENDBRANCH   8  26
BRANCH  17  35
ATOM     35  C   UNL     1      -3.784  -1.755   1.387  1.00  0.00     0.129 A 
ATOM     36  C   UNL     1      -3.520  -3.104   1.672  1.00  0.00     0.034 A 
ATOM     37  C   UNL     1      -5.065  -1.207   1.674  1.00  0.00     0.293 A 
ATOM     38  C   UNL     1      -4.501  -3.918   2.232  1.00  0.00     0.003 A 
ATOM     39  C   UNL     1      -6.041  -2.054   2.244  1.00  0.00     0.088 A 
ATOM     40  C   UNL     1      -5.760  -3.394   2.518  1.00  0.00     0.007 A 
BRANCH  37  41
ATOM     41  N   UNL     1      -5.384   0.167   1.415  1.00  0.00     0.065 N 
ATOM     42  O   UNL     1      -6.469   0.592   1.684  1.00  0.00    -0.258 OA
ATOM     43  O   UNL     1      -4.505   0.985   0.882  1.00  0.00    -0.258 OA
ENDBRANCH  37  41
ENDBRANCH  17  35
TORSDOF 7
