REMARK SMILES CCC[C]CC[C]CCCCCCCCC[C]CC[C]CCCC(=O)O[C@@H](COC(=O)C[C]CC[C]CCCCCCCCC)COC(=O)CCC/C=C\C/C=C\C/C=C\CCCCCCCC
REMARK SMILES IDX 23 1 24 2 25 3 26 4 27 5 46 6 47 7 48 8 49 9 50 10 51 11
REMARK SMILES IDX 52 12 53 13 54 14 55 15 56 16 57 17 58 18 59 19 60 20 61 21
REMARK SMILES IDX 62 22 63 23 64 24 65 25 66 26 67 27 68 28 28 29 29 30 30 31
REMARK SMILES IDX 31 32 32 33 33 34 34 35 35 36 36 37 37 38 38 39 39 40 40 41
REMARK SMILES IDX 41 42 42 43 43 44 44 45 45 46 22 47 21 48 20 49 19 50 18 51
REMARK SMILES IDX 17 52 16 53 15 54 14 55 13 56 12 57 11 58 10 59 9 60 8 61
REMARK SMILES IDX 7 62 6 63 5 64 4 65 3 66 2 67 1 68
REMARK H PARENT
ROOT
ATOM      1  C   UNL     1      12.410 -13.303   0.212  1.00  0.00     0.123 C 
ENDROOT
BRANCH   1   2
ATOM      2  C   UNL     1      11.967 -11.830   0.456  1.00  0.00     0.306 C 
ATOM      3  O   UNL     1      10.768 -11.646   0.295  1.00  0.00    -0.252 OA
BRANCH   2   4
ATOM      4  O   UNL     1      12.735 -10.752   0.850  1.00  0.00    -0.455 OA
BRANCH   4   5
ATOM      5  C   UNL     1      12.193  -9.475   1.184  1.00  0.00     0.251 C 
BRANCH   5   6
ATOM      6  C   UNL     1      11.487  -8.743  -0.026  1.00  0.00     0.281 C 
BRANCH   6   7
ATOM      7  O   UNL     1      10.801  -7.548   0.309  1.00  0.00    -0.462 OA
BRANCH   7   8
ATOM      8  C   UNL     1      11.193  -6.308  -0.134  1.00  0.00     0.305 C 
ATOM      9  O   UNL     1      12.340  -6.184  -0.544  1.00  0.00    -0.252 OA
BRANCH   8  10
ATOM     10  C   UNL     1      10.356  -5.006  -0.171  1.00  0.00     0.123 C 
BRANCH  10  11
ATOM     11  C   UNL     1       8.825  -4.735   0.146  1.00  0.00     0.016 C 
BRANCH  11  12
ATOM     12  C   UNL     1       8.615  -3.187  -0.085  1.00  0.00     0.027 C 
BRANCH  12  13
ATOM     13  C   UNL     1       7.399  -2.235  -0.058  1.00  0.00    -0.031 C 
ATOM     14  C   UNL     1       6.048  -2.219   0.115  1.00  0.00    -0.027 C 
BRANCH  14  15
ATOM     15  C   UNL     1       5.019  -3.287   0.401  1.00  0.00     0.054 C 
BRANCH  15  16
ATOM     16  C   UNL     1       4.076  -3.386  -0.794  1.00  0.00    -0.027 C 
ATOM     17  C   UNL     1       2.739  -3.121  -0.919  1.00  0.00    -0.027 C 
BRANCH  17  18
ATOM     18  C   UNL     1       1.711  -2.603   0.079  1.00  0.00     0.054 C 
BRANCH  18  19
ATOM     19  C   UNL     1       1.093  -1.323  -0.471  1.00  0.00    -0.027 C 
ATOM     20  C   UNL     1      -0.168  -1.012  -0.912  1.00  0.00    -0.031 C 
BRANCH  20  21
ATOM     21  C   UNL     1      -1.510  -1.756  -1.059  1.00  0.00     0.027 C 
BRANCH  21  22
ATOM     22  C   UNL     1      -1.643  -3.170  -0.509  1.00  0.00     0.004 C 
BRANCH  22  23
ATOM     23  C   UNL     1      -3.018  -3.889  -0.819  1.00  0.00     0.000 C 
BRANCH  23  24
ATOM     24  C   UNL     1      -3.000  -5.196   0.000  1.00  0.00     0.000 C 
BRANCH  24  25
ATOM     25  C   UNL     1      -3.750  -6.495   0.000  1.00  0.00    -0.000 C 
BRANCH  25  26
ATOM     26  C   UNL     1      -4.500  -7.794   0.000  1.00  0.00    -0.000 C 
BRANCH  26  27
ATOM     27  C   UNL     1      -5.250  -9.093   0.000  1.00  0.00    -0.003 C 
ATOM     28  C   UNL     1      -6.000 -10.392   0.000  1.00  0.00     0.004 C 
ENDBRANCH  26  27
ENDBRANCH  25  26
ENDBRANCH  24  25
ENDBRANCH  23  24
ENDBRANCH  22  23
ENDBRANCH  21  22
ENDBRANCH  20  21
ENDBRANCH  18  19
ENDBRANCH  17  18
ENDBRANCH  15  16
ENDBRANCH  14  15
ENDBRANCH  12  13
ENDBRANCH  11  12
ENDBRANCH  10  11
ENDBRANCH   8  10
ENDBRANCH   7   8
ENDBRANCH   6   7
ENDBRANCH   5   6
BRANCH   5  29
ATOM     29  C   UNL     1      13.298  -8.577   1.810  1.00  0.00     0.281 C 
BRANCH  29  30
ATOM     30  O   UNL     1      14.328  -8.356   0.915  1.00  0.00    -0.462 OA
BRANCH  30  31
ATOM     31  C   UNL     1      15.457  -7.611   1.124  1.00  0.00     0.306 C 
ATOM     32  O   UNL     1      15.646  -7.001   2.166  1.00  0.00    -0.252 OA
BRANCH  31  33
ATOM     33  C   UNL     1      16.446  -7.593   0.000  1.00  0.00     0.131 C 
BRANCH  33  34
ATOM     34  C   UNL     1      17.745  -6.843   0.000  1.00  0.00    -0.006 C 
BRANCH  34  35
ATOM     35  C   UNL     1      19.044  -6.093   0.000  1.00  0.00     0.009 C 
BRANCH  35  36
ATOM     36  C   UNL     1      20.343  -5.343   0.000  1.00  0.00     0.009 C 
BRANCH  36  37
ATOM     37  C   UNL     1      21.642  -4.593   0.000  1.00  0.00    -0.017 C 
BRANCH  37  38
ATOM     38  C   UNL     1      22.941  -3.843   0.000  1.00  0.00     0.008 C 
BRANCH  38  39
ATOM     39  C   UNL     1      24.481  -3.307  -0.412  1.00  0.00     0.001 C 
BRANCH  39  40
ATOM     40  C   UNL     1      25.308  -2.105   0.467  1.00  0.00     0.000 C 
BRANCH  40  41
ATOM     41  C   UNL     1      26.838  -1.593   0.000  1.00  0.00     0.000 C 
BRANCH  41  42
ATOM     42  C   UNL     1      28.137  -0.843   0.000  1.00  0.00    -0.000 C 
BRANCH  42  43
ATOM     43  C   UNL     1      29.436  -0.093   0.000  1.00  0.00    -0.000 C 
BRANCH  43  44
ATOM     44  C   UNL     1      30.736   0.657   0.000  1.00  0.00    -0.000 C 
BRANCH  44  45
ATOM     45  C   UNL     1      32.035   1.407   0.000  1.00  0.00    -0.003 C 
ATOM     46  C   UNL     1      33.334   2.157   0.000  1.00  0.00     0.004 C 
ENDBRANCH  44  45
ENDBRANCH  43  44
ENDBRANCH  42  43
ENDBRANCH  41  42
ENDBRANCH  40  41
ENDBRANCH  39  40
ENDBRANCH  38  39
ENDBRANCH  37  38
ENDBRANCH  36  37
ENDBRANCH  35  36
ENDBRANCH  34  35
ENDBRANCH  33  34
ENDBRANCH  31  33
ENDBRANCH  30  31
ENDBRANCH  29  30
ENDBRANCH   5  29
ENDBRANCH   4   5
ENDBRANCH   2   4
ENDBRANCH   1   2
BRANCH   1  47
ATOM     47  C   UNL     1      13.789 -14.075   0.392  1.00  0.00     0.012 C 
BRANCH  47  48
ATOM     48  C   UNL     1      13.500 -15.588   0.000  1.00  0.00     0.009 C 
BRANCH  48  49
ATOM     49  C   UNL     1      14.250 -16.887   0.000  1.00  0.00    -0.017 C 
BRANCH  49  50
ATOM     50  C   UNL     1      15.000 -18.186   0.000  1.00  0.00     0.009 C 
BRANCH  50  51
ATOM     51  C   UNL     1      15.750 -19.486   0.000  1.00  0.00     0.009 C 
BRANCH  51  52
ATOM     52  C   UNL     1      16.500 -20.785   0.000  1.00  0.00    -0.017 C 
BRANCH  52  53
ATOM     53  C   UNL     1      17.250 -22.084   0.000  1.00  0.00     0.008 C 
BRANCH  53  54
ATOM     54  C   UNL     1      17.761 -23.637  -0.391  1.00  0.00     0.001 C 
BRANCH  54  55
ATOM     55  C   UNL     1      19.012 -24.436   0.444  1.00  0.00     0.000 C 
BRANCH  55  56
ATOM     56  C   UNL     1      19.500 -25.981   0.000  1.00  0.00     0.000 C 
BRANCH  56  57
ATOM     57  C   UNL     1      20.250 -27.280   0.000  1.00  0.00     0.000 C 
BRANCH  57  58
ATOM     58  C   UNL     1      21.000 -28.579   0.000  1.00  0.00     0.000 C 
BRANCH  58  59
ATOM     59  C   UNL     1      21.319 -30.227   0.070  1.00  0.00     0.000 C 
BRANCH  59  60
ATOM     60  C   UNL     1      22.901 -30.834  -0.084  1.00  0.00     0.001 C 
BRANCH  60  61
ATOM     61  C   UNL     1      23.250 -32.476   0.000  1.00  0.00     0.008 C 
BRANCH  61  62
ATOM     62  C   UNL     1      24.000 -33.775   0.000  1.00  0.00    -0.017 C 
BRANCH  62  63
ATOM     63  C   UNL     1      24.750 -35.074   0.000  1.00  0.00     0.009 C 
BRANCH  63  64
ATOM     64  C   UNL     1      25.500 -36.373   0.000  1.00  0.00     0.009 C 
BRANCH  64  65
ATOM     65  C   UNL     1      26.250 -37.672   0.000  1.00  0.00    -0.017 C 
BRANCH  65  66
ATOM     66  C   UNL     1      27.000 -38.971   0.000  1.00  0.00     0.008 C 
BRANCH  66  67
ATOM     67  C   UNL     1      27.750 -40.270   0.000  1.00  0.00    -0.003 C 
ATOM     68  C   UNL     1      28.500 -41.569   0.000  1.00  0.00     0.004 C 
ENDBRANCH  66  67
ENDBRANCH  65  66
ENDBRANCH  64  65
ENDBRANCH  63  64
ENDBRANCH  62  63
ENDBRANCH  61  62
ENDBRANCH  60  61
ENDBRANCH  59  60
ENDBRANCH  58  59
ENDBRANCH  57  58
ENDBRANCH  56  57
ENDBRANCH  55  56
ENDBRANCH  54  55
ENDBRANCH  53  54
ENDBRANCH  52  53
ENDBRANCH  51  52
ENDBRANCH  50  51
ENDBRANCH  49  50
ENDBRANCH  48  49
ENDBRANCH  47  48
ENDBRANCH   1  47
TORSDOF 58
