REMARK SMILES C/C=C(C)/C=C\[C@@H]1[C@@]2(C)CCCC(C)(C)[C@@H]2CC[C@@]1(C)O
REMARK SMILES IDX 7 1 8 2 9 3 10 4 11 5 12 6 13 7 14 8 15 9 16 10 17 11 18 12
REMARK SMILES IDX 19 13 20 14 6 15 5 16 3 17 2 18 1 19 4 20 21 21
REMARK H PARENT 21 22
ROOT
ATOM      1  C   UNL     1       0.643  -0.789  -0.066  1.00  0.00     0.049 C 
ATOM      2  C   UNL     1      -0.724  -0.299   0.595  1.00  0.00    -0.020 C 
ATOM      3  C   UNL     1      -1.219  -1.270   1.717  1.00  0.00     0.012 C 
ATOM      4  C   UNL     1      -0.460   1.087   1.275  1.00  0.00     0.008 C 
ATOM      5  C   UNL     1      -1.753   1.825   1.663  1.00  0.00     0.001 C 
ATOM      6  C   UNL     1      -2.585   2.104   0.403  1.00  0.00     0.007 C 
ATOM      7  C   UNL     1      -3.011   0.808  -0.342  1.00  0.00    -0.032 C 
ATOM      8  C   UNL     1      -3.638   1.234  -1.694  1.00  0.00     0.011 C 
ATOM      9  C   UNL     1      -4.133   0.087   0.454  1.00  0.00     0.011 C 
ATOM     10  C   UNL     1      -1.721  -0.071  -0.612  1.00  0.00     0.001 C 
ATOM     11  C   UNL     1      -1.985  -1.353  -1.459  1.00  0.00     0.008 C 
ATOM     12  C   UNL     1      -0.926  -2.458  -1.305  1.00  0.00     0.036 C 
ATOM     13  C   UNL     1       0.525  -1.949  -1.160  1.00  0.00     0.069 C 
ATOM     14  C   UNL     1       1.425  -3.168  -0.831  1.00  0.00     0.042 C 
ENDROOT
BRANCH   1  15
ATOM     15  C   UNL     1       1.765  -0.990   0.949  1.00  0.00    -0.020 C 
ATOM     16  C   UNL     1       2.957  -0.348   1.068  1.00  0.00    -0.001 C 
BRANCH  16  17
ATOM     17  C   UNL     1       3.607   0.744   0.250  1.00  0.00    -0.056 C 
ATOM     18  C   UNL     1       4.831   1.159   0.666  1.00  0.00    -0.027 C 
ATOM     19  C   UNL     1       5.656   2.222  -0.008  1.00  0.00     0.036 C 
ATOM     20  C   UNL     1       2.977   1.355  -0.986  1.00  0.00     0.044 C 
ENDBRANCH  16  17
ENDBRANCH   1  15
BRANCH  13  21
ATOM     21  O   UNL     1       0.939  -1.415  -2.402  1.00  0.00    -0.390 OA
ATOM     22  H   UNL     1       0.884  -2.130  -3.089  1.00  0.00     0.211 HD
ENDBRANCH  13  21
TORSDOF 3
