REMARK SMILES CO[C@H]1C[C@H](O[C@H]2CC[C@@]3(COC(C)=O)C(=CC[C@@H]4[C@@H]3CC[C@]3(C)[C@@H]5[C@H]6CO[C@]5(C)O[C@@]43O6)C2)O[C@@H](C)[C@@H]1O[C@@H]1C[C@@H](OC)[C@H](O[C@H]2C[C@@H](O)[C@@H](O[C@H]3C[C@H](O)[C@H](O[C@@H]4C[C@H](OC)[C@@H](O[C@@H]5O[C@@H](CO)[C@@H](O)[C@H](O)[C@H]5O)[C@H](C)O4)[C@H](C)O3)[C@@H](C)O2)[C@@H](C)O1
REMARK SMILES IDX 47 1 48 2 49 3 51 4 83 5 84 6 85 7 46 8 45 9 42 10 41 11
REMARK SMILES IDX 40 12 86 13 88 14 87 15 43 16 44 17 39 18 38 19 36 20 3 21
REMARK SMILES IDX 35 22 4 23 5 24 37 25 2 26 1 27 6 28 7 29 8 30 34 31 9 32
REMARK SMILES IDX 16 33 10 34 17 35 20 36 18 37 19 38 21 39 32 40 22 41 31 42
REMARK SMILES IDX 33 43 23 44 29 45 26 46 25 47 28 48 27 49 24 50 30 51 11 52
REMARK SMILES IDX 12 53 13 54 15 55 14 56 50 57 52 59 53 60 54 61 82 62 55 63
REMARK SMILES IDX 80 64 57 65 81 66 56 67 58 69 59 70 60 71 79 72 61 73 77 74
REMARK SMILES IDX 64 75 78 76 62 77 63 78 65 79 66 80 67 81 75 82 68 83 73 84
REMARK SMILES IDX 71 85 76 86 69 88 70 89 74 91 72 93
REMARK H PARENT 50 58 56 68 76 87 70 90 74 92 72 94
ROOT
ATOM      1  C   UNL     1       0.554 -22.259  -0.202  1.00  0.00     0.253 C 
ATOM      2  C   UNL     1      -0.653 -23.196  -0.546  1.00  0.00     0.096 C 
ATOM      3  C   UNL     1      -0.475 -24.648   0.108  1.00  0.00     0.151 C 
ATOM      4  C   UNL     1       0.920 -25.406  -0.081  1.00  0.00     0.179 C 
ATOM      5  C   UNL     1       1.978 -24.190   0.000  1.00  0.00     0.150 C 
ATOM      6  C   UNL     1       3.478 -24.137  -0.000  1.00  0.00     0.041 C 
ATOM      7  O   UNL     1       1.633 -23.009  -0.774  1.00  0.00    -0.347 OA
ENDROOT
BRANCH   1   8
ATOM      8  O   UNL     1       0.482 -20.881  -0.769  1.00  0.00    -0.344 OA
BRANCH   8   9
ATOM      9  C   UNL     1       0.614 -19.697   0.134  1.00  0.00     0.179 C 
ATOM     10  C   UNL     1       1.813 -18.665  -0.245  1.00  0.00     0.154 C 
ATOM     11  C   UNL     1       1.968 -17.431   0.687  1.00  0.00     0.097 C 
ATOM     12  C   UNL     1       0.697 -16.602   0.828  1.00  0.00     0.253 C 
ATOM     13  C   UNL     1      -0.512 -18.721   0.000  1.00  0.00     0.150 C 
ATOM     14  O   UNL     1      -0.400 -17.545   0.892  1.00  0.00    -0.347 OA
ATOM     15  C   UNL     1      -2.011 -18.773   0.000  1.00  0.00     0.041 C 
BRANCH  10  16
ATOM     16  O   UNL     1       2.824 -19.453   0.000  1.00  0.00    -0.378 OA
ATOM     17  C   UNL     1       4.323 -19.400  -0.000  1.00  0.00     0.195 C 
ENDBRANCH  10  16
BRANCH  12  18
ATOM     18  O   UNL     1       0.544 -15.430  -0.075  1.00  0.00    -0.344 OA
BRANCH  18  19
ATOM     19  C   UNL     1       0.531 -14.060   0.551  1.00  0.00     0.179 C 
ATOM     20  C   UNL     1       1.591 -13.091  -0.000  1.00  0.00     0.150 C 
ATOM     21  C   UNL     1      -0.714 -13.173   0.132  1.00  0.00     0.154 C 
ATOM     22  O   UNL     1       1.264 -11.616   0.062  1.00  0.00    -0.347 OA
ATOM     23  C   UNL     1      -0.898 -12.005   1.122  1.00  0.00     0.097 C 
ATOM     24  C   UNL     1       0.362 -11.073   1.073  1.00  0.00     0.253 C 
ATOM     25  C   UNL     1       3.090 -13.039   0.000  1.00  0.00     0.041 C 
BRANCH  21  26
ATOM     26  O   UNL     1      -1.686 -14.054  -0.000  1.00  0.00    -0.378 OA
ATOM     27  C   UNL     1      -3.185 -14.107   0.000  1.00  0.00     0.195 C 
ENDBRANCH  21  26
BRANCH  24  28
ATOM     28  O   UNL     1      -0.173  -9.710   0.805  1.00  0.00    -0.349 OA
BRANCH  28  29
ATOM     29  C   UNL     1       0.515  -8.398   0.825  1.00  0.00     0.125 C 
ATOM     30  C   UNL     1       0.267  -7.766  -0.573  1.00  0.00     0.033 C 
ATOM     31  C   UNL     1      -0.084  -7.324   1.887  1.00  0.00     0.063 C 
ATOM     32  C   UNL     1       0.620  -6.241  -0.710  1.00  0.00     0.018 C 
ATOM     33  C   UNL     1       0.191  -5.764   1.603  1.00  0.00    -0.062 C 
ATOM     34  C   UNL     1      -0.222  -5.270   0.231  1.00  0.00     0.029 C 
ATOM     35  C   UNL     1       0.802  -4.877   2.472  1.00  0.00    -0.026 C 
ATOM     36  C   UNL     1       0.201  -3.752  -0.057  1.00  0.00     0.011 C 
ATOM     37  C   UNL     1       1.137  -3.355   2.176  1.00  0.00     0.036 C 
ATOM     38  C   UNL     1       0.192  -2.683   1.132  1.00  0.00     0.057 C 
ATOM     39  C   UNL     1      -0.493  -3.194  -1.292  1.00  0.00     0.006 C 
ATOM     40  C   UNL     1       0.358  -1.131   0.460  1.00  0.00     0.181 C 
ATOM     41  C   UNL     1      -1.503  -2.087  -0.887  1.00  0.00     0.013 C 
ATOM     42  O   UNL     1       0.694   0.134   1.033  1.00  0.00    -0.317 OA
ATOM     43  O   UNL     1       1.215  -1.205  -0.705  1.00  0.00    -0.343 OA
ATOM     44  C   UNL     1      -1.032  -0.750   0.000  1.00  0.00     0.033 C 
ATOM     45  C   UNL     1       0.394   1.214   0.000  1.00  0.00     0.175 C 
ATOM     46  C   UNL     1       0.531  -0.443  -1.701  1.00  0.00     0.157 C 
ATOM     47  C   UNL     1      -0.461   0.290  -0.899  1.00  0.00     0.091 C 
ATOM     48  O   UNL     1       0.895   1.730  -1.291  1.00  0.00    -0.347 OA
ATOM     49  C   UNL     1       1.190   0.720  -2.272  1.00  0.00     0.196 C 
ATOM     50  C   UNL     1      -2.403  -0.140   0.000  1.00  0.00     0.018 C 
ATOM     51  C   UNL     1       1.821   1.677   0.000  1.00  0.00     0.076 C 
BRANCH  34  52
ATOM     52  C   UNL     1      -1.746  -5.547  -0.082  1.00  0.00     0.244 C 
BRANCH  52  53
ATOM     53  O   UNL     1      -2.822  -4.714   0.322  1.00  0.00    -0.465 OA
BRANCH  53  54
ATOM     54  C   UNL     1      -4.065  -5.228   0.000  1.00  0.00     0.302 C 
ATOM     55  O   UNL     1      -4.086  -6.410  -0.346  1.00  0.00    -0.253 OA
ATOM     56  C   UNL     1      -5.491  -4.765   0.000  1.00  0.00     0.139 C 
ENDBRANCH  53  54
ENDBRANCH  52  53
ENDBRANCH  34  52
ENDBRANCH  28  29
ENDBRANCH  24  28
ENDBRANCH  18  19
ENDBRANCH  12  18
ENDBRANCH   8   9
ENDBRANCH   1   8
BRANCH   3  57
ATOM     57  O   UNL     1      -1.544 -25.490  -0.231  1.00  0.00    -0.390 OA
ATOM     58  H   UNL     1      -2.314 -25.227   0.339  1.00  0.00     0.211 HD
ENDBRANCH   3  57
BRANCH   4  59
ATOM     59  O   UNL     1       1.047 -26.317  -1.214  1.00  0.00    -0.344 OA
BRANCH  59  60
ATOM     60  C   UNL     1       0.390 -27.660  -1.200  1.00  0.00     0.253 C 
ATOM     61  C   UNL     1       1.081 -28.524  -2.284  1.00  0.00     0.096 C 
ATOM     62  O   UNL     1       0.440 -28.434   0.035  1.00  0.00    -0.347 OA
ATOM     63  C   UNL     1       0.386 -29.901  -2.468  1.00  0.00     0.151 C 
ATOM     64  C   UNL     1      -0.124 -29.819   0.000  1.00  0.00     0.150 C 
ATOM     65  C   UNL     1       0.348 -30.701  -1.136  1.00  0.00     0.179 C 
ATOM     66  C   UNL     1      -1.623 -29.871   0.000  1.00  0.00     0.041 C 
BRANCH  63  67
ATOM     67  O   UNL     1      -0.912 -29.712  -2.975  1.00  0.00    -0.390 OA
ATOM     68  H   UNL     1      -0.820 -29.573  -3.955  1.00  0.00     0.211 HD
ENDBRANCH  63  67
BRANCH  65  69
ATOM     69  O   UNL     1      -0.547 -31.818  -1.253  1.00  0.00    -0.344 OA
BRANCH  69  70
ATOM     70  C   UNL     1      -0.853 -32.443   0.012  1.00  0.00     0.253 C 
ATOM     71  C   UNL     1      -0.850 -33.897  -0.223  1.00  0.00     0.097 C 
ATOM     72  O   UNL     1      -2.128 -31.990   0.680  1.00  0.00    -0.347 OA
ATOM     73  C   UNL     1      -2.275 -34.194  -0.102  1.00  0.00     0.154 C 
ATOM     74  C   UNL     1      -3.442 -32.200   0.000  1.00  0.00     0.150 C 
ATOM     75  C   UNL     1      -3.240 -33.224  -1.068  1.00  0.00     0.179 C 
ATOM     76  C   UNL     1      -4.237 -30.927   0.000  1.00  0.00     0.041 C 
BRANCH  73  77
ATOM     77  O   UNL     1      -2.408 -35.455   0.000  1.00  0.00    -0.378 OA
ATOM     78  C   UNL     1      -3.907 -35.507   0.000  1.00  0.00     0.195 C 
ENDBRANCH  73  77
BRANCH  75  79
ATOM     79  O   UNL     1      -4.550 -33.676  -1.449  1.00  0.00    -0.341 OA
BRANCH  79  80
ATOM     80  C   UNL     1      -5.099 -33.113  -2.635  1.00  0.00     0.282 C 
ATOM     81  O   UNL     1      -6.188 -32.261  -2.307  1.00  0.00    -0.341 OA
ATOM     82  C   UNL     1      -5.551 -34.252  -3.601  1.00  0.00     0.202 C 
ATOM     83  C   UNL     1      -7.261 -32.909  -1.598  1.00  0.00     0.178 C 
ATOM     84  C   UNL     1      -6.986 -34.763  -3.284  1.00  0.00     0.179 C 
ATOM     85  C   UNL     1      -7.346 -34.459  -1.825  1.00  0.00     0.177 C 
BRANCH  82  86
ATOM     86  O   UNL     1      -5.511 -33.809  -4.930  1.00  0.00    -0.385 OA
ATOM     87  H   UNL     1      -5.503 -34.624  -5.498  1.00  0.00     0.211 HD
ENDBRANCH  82  86
BRANCH  83  88
ATOM     88  C   UNL     1      -8.568 -32.206  -2.015  1.00  0.00     0.191 C 
BRANCH  88  89
ATOM     89  O   UNL     1      -8.476 -30.837  -1.736  1.00  0.00    -0.394 OA
ATOM     90  H   UNL     1      -9.367 -30.453  -1.946  1.00  0.00     0.210 HD
ENDBRANCH  88  89
ENDBRANCH  83  88
BRANCH  84  91
ATOM     91  O   UNL     1      -7.120 -36.123  -3.606  1.00  0.00    -0.387 OA
ATOM     92  H   UNL     1      -6.568 -36.637  -2.957  1.00  0.00     0.211 HD
ENDBRANCH  84  91
BRANCH  85  93
ATOM     93  O   UNL     1      -8.588 -34.993  -1.426  1.00  0.00    -0.387 OA
ATOM     94  H   UNL     1      -9.226 -34.894  -2.178  1.00  0.00     0.211 HD
ENDBRANCH  85  93
ENDBRANCH  79  80
ENDBRANCH  75  79
ENDBRANCH  69  70
ENDBRANCH  65  69
ENDBRANCH  59  60
ENDBRANCH   4  59
TORSDOF 25
