REMARK SMILES CC(C)(C(=O)O)[C@@H]1CC[C@]23C=C[C@](C)(CC[C@@H]2[C@]1(C)CC(=O)O)C3
REMARK SMILES IDX 7 1 8 2 9 3 10 4 11 5 12 6 13 7 14 8 15 9 16 10 17 11 18 12
REMARK SMILES IDX 19 13 24 14 2 15 1 16 3 17 4 18 5 19 6 20 20 22 21 23 22 24
REMARK SMILES IDX 23 25
REMARK H PARENT 6 21 23 26
ROOT
ATOM      1  C   UNL     1      -0.028   4.218   0.952  1.00  0.00     0.013 C 
ATOM      2  C   UNL     1       1.316   3.393   1.333  1.00  0.00     0.006 C 
ATOM      3  C   UNL     1       1.028   1.931   1.847  1.00  0.00     0.012 C 
ATOM      4  C   UNL     1       0.269   1.058   0.808  1.00  0.00    -0.008 C 
ATOM      5  C   UNL     1       1.056   0.291  -0.267  1.00  0.00    -0.024 C 
ATOM      6  C   UNL     1       0.275  -0.797  -0.752  1.00  0.00    -0.024 C 
ATOM      7  C   UNL     1      -1.032  -0.750   0.000  1.00  0.00    -0.014 C 
ATOM      8  C   UNL     1      -2.246  -1.632   0.000  1.00  0.00     0.016 C 
ATOM      9  C   UNL     1      -2.059   0.161  -0.768  1.00  0.00     0.011 C 
ATOM     10  C   UNL     1      -1.474   1.332  -1.113  1.00  0.00     0.006 C 
ATOM     11  C   UNL     1      -0.863   1.988   0.269  1.00  0.00     0.006 C 
ATOM     12  C   UNL     1      -0.662   3.587   0.000  1.00  0.00    -0.015 C 
ATOM     13  C   UNL     1      -2.159   3.482   0.000  1.00  0.00     0.012 C 
ATOM     14  C   UNL     1      -0.492  -0.197   1.353  1.00  0.00     0.022 C 
ENDROOT
BRANCH   1  15
ATOM     15  C   UNL     1      -0.131   5.441   0.000  1.00  0.00     0.066 C 
ATOM     16  C   UNL     1       0.784   6.259   1.094  1.00  0.00     0.024 C 
ATOM     17  C   UNL     1      -0.970   6.684   0.000  1.00  0.00     0.024 C 
BRANCH  15  18
ATOM     18  C   UNL     1       0.829   5.770  -1.255  1.00  0.00     0.309 C 
ATOM     19  O   UNL     1       0.332   6.145  -2.311  1.00  0.00    -0.252 OA
BRANCH  18  20
ATOM     20  O   UNL     1       2.187   5.699  -1.216  1.00  0.00    -0.481 OA
ATOM     21  H   UNL     1       2.705   5.355  -0.480  1.00  0.00     0.296 HD
ENDBRANCH  18  20
ENDBRANCH  15  18
ENDBRANCH   1  15
BRANCH  12  22
ATOM     22  C   UNL     1       0.212   3.282  -1.432  1.00  0.00     0.130 C 
BRANCH  22  23
ATOM     23  C   UNL     1      -0.443   3.565  -2.784  1.00  0.00     0.303 C 
ATOM     24  O   UNL     1      -1.565   4.034  -2.864  1.00  0.00    -0.252 OA
BRANCH  23  25
ATOM     25  O   UNL     1       0.238   3.314  -3.922  1.00  0.00    -0.481 OA
ATOM     26  H   UNL     1       1.136   2.955  -3.907  1.00  0.00     0.296 HD
ENDBRANCH  23  25
ENDBRANCH  22  23
ENDBRANCH  12  22
TORSDOF 6
