REMARK SMILES C[C][C][C][C]/C=C\C/C=C\[C]/C=C\CC[C]CC(=O)OCC(COC(=O)CCCC[C]CCCC[C]C/C=C\C/C=C\CC[C]CC)OC(=O)CCCCC/C=C\C/C=C\C/C=C\C/C=C\C/C=C\CC
REMARK SMILES IDX 24 1 23 2 22 3 48 4 49 5 50 6 51 7 52 8 53 9 54 10 55 11
REMARK SMILES IDX 56 12 57 13 58 14 59 15 60 16 61 17 62 18 63 19 64 20 65 21
REMARK SMILES IDX 66 22 67 23 68 24 69 25 70 26 71 27 21 28 20 29 18 30 19 31
REMARK SMILES IDX 17 32 16 33 15 34 14 35 13 36 12 37 11 38 10 39 9 40 8 41
REMARK SMILES IDX 7 42 6 43 5 44 4 45 3 46 2 47 1 48 25 49 26 50 27 51 28 52
REMARK SMILES IDX 29 53 30 54 31 55 32 56 33 57 34 58 35 59 36 60 37 61 38 62
REMARK SMILES IDX 39 63 40 64 41 65 42 66 43 67 44 68 45 69 46 70 47 71
REMARK H PARENT
ROOT
ATOM      1  O   UNL     1      21.028 -10.569  -0.198  1.00  0.00    -0.462 OA
ENDROOT
BRANCH   1   2
ATOM      2  C   UNL     1      19.759  -9.827  -0.091  1.00  0.00     0.281 C 
BRANCH   2   3
ATOM      3  C   UNL     1      18.000 -10.392   0.000  1.00  0.00     0.251 C 
BRANCH   3   4
ATOM      4  O   UNL     1      17.250  -9.093   0.000  1.00  0.00    -0.455 OA
BRANCH   4   5
ATOM      5  C   UNL     1      18.000  -7.794   0.000  1.00  0.00     0.306 C 
ATOM      6  O   UNL     1      19.172  -7.563   0.274  1.00  0.00    -0.252 OA
BRANCH   5   7
ATOM      7  C   UNL     1      17.250  -6.495   0.000  1.00  0.00     0.123 C 
BRANCH   7   8
ATOM      8  C   UNL     1      16.500  -5.196   0.000  1.00  0.00     0.012 C 
BRANCH   8   9
ATOM      9  C   UNL     1      16.769  -3.688   0.073  1.00  0.00     0.001 C 
BRANCH   9  10
ATOM     10  C   UNL     1      15.360  -2.942   0.031  1.00  0.00     0.004 C 
BRANCH  10  11
ATOM     11  C   UNL     1      15.534  -1.427   0.060  1.00  0.00     0.027 C 
BRANCH  11  12
ATOM     12  C   UNL     1      14.398  -0.397   0.052  1.00  0.00    -0.031 C 
ATOM     13  C   UNL     1      13.030  -0.222   0.025  1.00  0.00    -0.027 C 
BRANCH  13  14
ATOM     14  C   UNL     1      11.656  -0.910  -0.004  1.00  0.00     0.054 C 
BRANCH  14  15
ATOM     15  C   UNL     1      11.359  -2.381  -0.036  1.00  0.00    -0.027 C 
ATOM     16  C   UNL     1      10.096  -2.943  -0.073  1.00  0.00    -0.027 C 
BRANCH  16  17
ATOM     17  C   UNL     1       8.626  -2.386  -0.092  1.00  0.00     0.054 C 
BRANCH  17  18
ATOM     18  C   UNL     1       8.382  -0.890  -0.045  1.00  0.00    -0.027 C 
ATOM     19  C   UNL     1       7.226  -0.165   0.005  1.00  0.00    -0.027 C 
BRANCH  19  20
ATOM     20  C   UNL     1       5.711  -0.391   0.025  1.00  0.00     0.054 C 
BRANCH  20  21
ATOM     21  C   UNL     1       4.969  -1.688  -0.237  1.00  0.00    -0.027 C 
ATOM     22  C   UNL     1       3.601  -1.775  -0.104  1.00  0.00    -0.027 C 
BRANCH  22  23
ATOM     23  C   UNL     1       2.690  -0.637   0.400  1.00  0.00     0.054 C 
BRANCH  23  24
ATOM     24  C   UNL     1       1.533  -0.123  -0.441  1.00  0.00    -0.027 C 
ATOM     25  C   UNL     1       0.259  -0.583  -0.602  1.00  0.00    -0.031 C 
BRANCH  25  26
ATOM     26  C   UNL     1      -0.460  -1.819  -0.096  1.00  0.00     0.023 C 
ATOM     27  C   UNL     1       0.393  -2.982   0.369  1.00  0.00     0.008 C 
ENDBRANCH  25  26
ENDBRANCH  23  24
ENDBRANCH  22  23
ENDBRANCH  20  21
ENDBRANCH  19  20
ENDBRANCH  17  18
ENDBRANCH  16  17
ENDBRANCH  14  15
ENDBRANCH  13  14
ENDBRANCH  11  12
ENDBRANCH  10  11
ENDBRANCH   9  10
ENDBRANCH   8   9
ENDBRANCH   7   8
ENDBRANCH   5   7
ENDBRANCH   4   5
ENDBRANCH   3   4
BRANCH   3  28
ATOM     28  C   UNL     1      18.750 -11.691   0.000  1.00  0.00     0.281 C 
BRANCH  28  29
ATOM     29  O   UNL     1      18.503 -13.105   0.069  1.00  0.00    -0.462 OA
BRANCH  29  30
ATOM     30  C   UNL     1      19.615 -14.028   0.189  1.00  0.00     0.306 C 
ATOM     31  O   UNL     1      20.731 -13.594   0.433  1.00  0.00    -0.252 OA
BRANCH  30  32
ATOM     32  C   UNL     1      19.500 -15.588   0.000  1.00  0.00     0.131 C 
BRANCH  32  33
ATOM     33  C   UNL     1      20.250 -16.887   0.000  1.00  0.00    -0.005 C 
BRANCH  33  34
ATOM     34  C   UNL     1      21.000 -18.186   0.000  1.00  0.00     0.013 C 
BRANCH  34  35
ATOM     35  C   UNL     1      20.721 -19.633  -0.003  1.00  0.00     0.028 C 
BRANCH  35  36
ATOM     36  C   UNL     1      21.981 -20.699  -0.001  1.00  0.00    -0.030 C 
ATOM     37  C   UNL     1      21.750 -22.084   0.000  1.00  0.00    -0.018 C 
BRANCH  37  38
ATOM     38  C   UNL     1      20.250 -22.084   0.000  1.00  0.00     0.034 C 
BRANCH  38  39
ATOM     39  C   UNL     1      18.750 -22.084   0.000  1.00  0.00    -0.018 C 
ATOM     40  C   UNL     1      18.307 -23.426   0.000  1.00  0.00    -0.026 C 
BRANCH  40  41
ATOM     41  C   UNL     1      19.365 -24.616   0.000  1.00  0.00     0.054 C 
BRANCH  41  42
ATOM     42  C   UNL     1      19.527 -26.166   0.000  1.00  0.00    -0.027 C 
ATOM     43  C   UNL     1      18.750 -27.280   0.000  1.00  0.00    -0.022 C 
BRANCH  43  44
ATOM     44  C   UNL     1      17.250 -27.280   0.000  1.00  0.00     0.017 C 
BRANCH  44  45
ATOM     45  C   UNL     1      15.750 -27.280   0.000  1.00  0.00     0.004 C 
BRANCH  45  46
ATOM     46  C   UNL     1      14.250 -27.280   0.000  1.00  0.00    -0.001 C 
BRANCH  46  47
ATOM     47  C   UNL     1      12.750 -27.280   0.000  1.00  0.00    -0.012 C 
ATOM     48  C   UNL     1      11.250 -27.280   0.000  1.00  0.00     0.013 C 
ENDBRANCH  46  47
ENDBRANCH  45  46
ENDBRANCH  44  45
ENDBRANCH  43  44
ENDBRANCH  41  42
ENDBRANCH  40  41
ENDBRANCH  38  39
ENDBRANCH  37  38
ENDBRANCH  35  36
ENDBRANCH  34  35
ENDBRANCH  33  34
ENDBRANCH  32  33
ENDBRANCH  30  32
ENDBRANCH  29  30
ENDBRANCH  28  29
ENDBRANCH   3  28
ENDBRANCH   2   3
ENDBRANCH   1   2
BRANCH   1  49
ATOM     49  C   UNL     1      22.453 -10.294  -0.182  1.00  0.00     0.305 C 
ATOM     50  O   UNL     1      23.192 -11.250  -0.343  1.00  0.00    -0.252 OA
BRANCH  49  51
ATOM     51  C   UNL     1      23.196  -8.892   0.000  1.00  0.00     0.123 C 
BRANCH  51  52
ATOM     52  C   UNL     1      24.495  -8.142   0.000  1.00  0.00     0.012 C 
BRANCH  52  53
ATOM     53  C   UNL     1      25.794  -7.392   0.000  1.00  0.00     0.001 C 
BRANCH  53  54
ATOM     54  C   UNL     1      27.093  -6.642   0.000  1.00  0.00     0.008 C 
BRANCH  54  55
ATOM     55  C   UNL     1      28.392  -5.892   0.000  1.00  0.00    -0.017 C 
BRANCH  55  56
ATOM     56  C   UNL     1      29.691  -5.142   0.000  1.00  0.00     0.008 C 
BRANCH  56  57
ATOM     57  C   UNL     1      31.339  -4.811  -0.012  1.00  0.00     0.001 C 
BRANCH  57  58
ATOM     58  C   UNL     1      31.941  -3.223   0.012  1.00  0.00     0.001 C 
BRANCH  58  59
ATOM     59  C   UNL     1      33.589  -2.892   0.000  1.00  0.00     0.008 C 
BRANCH  59  60
ATOM     60  C   UNL     1      34.888  -2.142   0.000  1.00  0.00    -0.013 C 
BRANCH  60  61
ATOM     61  C   UNL     1      36.187  -1.392   0.000  1.00  0.00     0.035 C 
BRANCH  61  62
ATOM     62  C   UNL     1      36.689   0.111  -0.005  1.00  0.00    -0.030 C 
ATOM     63  C   UNL     1      36.266   1.433  -0.027  1.00  0.00    -0.027 C 
BRANCH  63  64
ATOM     64  C   UNL     1      34.865   1.979  -0.065  1.00  0.00     0.054 C 
BRANCH  64  65
ATOM     65  C   UNL     1      34.487   3.509  -0.114  1.00  0.00    -0.027 C 
ATOM     66  C   UNL     1      34.883   4.858  -0.137  1.00  0.00    -0.031 C 
BRANCH  66  67
ATOM     67  C   UNL     1      36.076   5.879  -0.119  1.00  0.00     0.027 C 
BRANCH  67  68
ATOM     68  C   UNL     1      37.486   5.358   0.000  1.00  0.00     0.012 C 
BRANCH  68  69
ATOM     69  C   UNL     1      38.785   6.108   0.000  1.00  0.00    -0.017 C 
BRANCH  69  70
ATOM     70  C   UNL     1      40.084   6.858   0.000  1.00  0.00     0.005 C 
ATOM     71  C   UNL     1      41.383   7.608   0.000  1.00  0.00     0.004 C 
ENDBRANCH  69  70
ENDBRANCH  68  69
ENDBRANCH  67  68
ENDBRANCH  66  67
ENDBRANCH  64  65
ENDBRANCH  63  64
ENDBRANCH  61  62
ENDBRANCH  60  61
ENDBRANCH  59  60
ENDBRANCH  58  59
ENDBRANCH  57  58
ENDBRANCH  56  57
ENDBRANCH  55  56
ENDBRANCH  54  55
ENDBRANCH  53  54
ENDBRANCH  52  53
ENDBRANCH  51  52
ENDBRANCH  49  51
ENDBRANCH   1  49
TORSDOF 54
