REMARK SMILES CC(C)C[C]CCCCCCCC(=O)OC[C@@H](COC(=O)CCCCCCCCCCCC[C]CC[C]CCCCC(C)C)OC(=O)CCCCCCCCCCCCC(C)C
REMARK SMILES IDX 23 1 24 2 25 3 26 4 27 5 28 6 29 7 30 8 31 9 32 10 33 11
REMARK SMILES IDX 34 12 35 13 36 14 37 15 38 16 39 17 40 18 41 19 42 20 43 21
REMARK SMILES IDX 44 22 22 23 20 24 21 25 19 26 18 27 17 28 16 29 15 30 13 31
REMARK SMILES IDX 14 32 12 33 11 34 10 35 9 36 8 37 7 38 6 39 5 40 4 41 2 42
REMARK SMILES IDX 1 43 3 44 45 45 46 46 47 47 48 48 49 49 50 50 51 51 52 52
REMARK SMILES IDX 53 53 54 54 55 55 56 56 57 57 58 58 59 59 60 60 61 61 62 62
REMARK H PARENT
ROOT
ATOM      1  C   UNL     1       2.679   1.732  -0.090  1.00  0.00     0.012 C 
ENDROOT
BRANCH   1   2
ATOM      2  C   UNL     1       3.558   3.131   0.136  1.00  0.00     0.001 C 
BRANCH   2   3
ATOM      3  C   UNL     1       5.196   3.000   0.000  1.00  0.00     0.000 C 
BRANCH   3   4
ATOM      4  C   UNL     1       6.495   3.750   0.000  1.00  0.00     0.000 C 
BRANCH   4   5
ATOM      5  C   UNL     1       7.794   4.500   0.000  1.00  0.00     0.000 C 
BRANCH   5   6
ATOM      6  C   UNL     1       9.093   5.250   0.000  1.00  0.00     0.000 C 
BRANCH   6   7
ATOM      7  C   UNL     1      10.392   6.000   0.000  1.00  0.00     0.000 C 
BRANCH   7   8
ATOM      8  C   UNL     1      11.691   6.750   0.000  1.00  0.00     0.000 C 
BRANCH   8   9
ATOM      9  C   UNL     1      13.342   7.063  -0.003  1.00  0.00     0.000 C 
BRANCH   9  10
ATOM     10  C   UNL     1      13.944   8.654  -0.006  1.00  0.00     0.001 C 
BRANCH  10  11
ATOM     11  C   UNL     1      15.588   9.000   0.000  1.00  0.00     0.008 C 
BRANCH  11  12
ATOM     12  C   UNL     1      16.887   9.750   0.000  1.00  0.00    -0.017 C 
BRANCH  12  13
ATOM     13  C   UNL     1      18.186  10.500   0.000  1.00  0.00     0.009 C 
BRANCH  13  14
ATOM     14  C   UNL     1      19.486  11.250   0.000  1.00  0.00     0.009 C 
BRANCH  14  15
ATOM     15  C   UNL     1      20.785  12.000   0.000  1.00  0.00    -0.017 C 
BRANCH  15  16
ATOM     16  C   UNL     1      22.084  12.750   0.000  1.00  0.00     0.008 C 
BRANCH  16  17
ATOM     17  C   UNL     1      23.441  13.300  -0.791  1.00  0.00     0.001 C 
BRANCH  17  18
ATOM     18  C   UNL     1      24.548  14.282   0.022  1.00  0.00     0.000 C 
BRANCH  18  19
ATOM     19  C   UNL     1      25.908  14.894  -0.729  1.00  0.00     0.003 C 
BRANCH  19  20
ATOM     20  C   UNL     1      27.280  15.750   0.000  1.00  0.00    -0.017 C 
ATOM     21  C   UNL     1      26.530  17.049   0.000  1.00  0.00     0.007 C 
ATOM     22  C   UNL     1      28.030  14.451   0.000  1.00  0.00     0.007 C 
ENDBRANCH  19  20
ENDBRANCH  18  19
ENDBRANCH  17  18
ENDBRANCH  16  17
ENDBRANCH  15  16
ENDBRANCH  14  15
ENDBRANCH  13  14
ENDBRANCH  12  13
ENDBRANCH  11  12
ENDBRANCH  10  11
ENDBRANCH   9  10
ENDBRANCH   8   9
ENDBRANCH   7   8
ENDBRANCH   6   7
ENDBRANCH   5   6
ENDBRANCH   4   5
ENDBRANCH   3   4
ENDBRANCH   2   3
ENDBRANCH   1   2
BRANCH   1  23
ATOM     23  C   UNL     1       1.040   1.594   0.134  1.00  0.00     0.123 C 
BRANCH  23  24
ATOM     24  C   UNL     1       0.268   0.207  -0.226  1.00  0.00     0.305 C 
ATOM     25  O   UNL     1       0.950  -0.665  -0.742  1.00  0.00    -0.252 OA
BRANCH  24  26
ATOM     26  O   UNL     1      -1.123  -0.088   0.003  1.00  0.00    -0.462 OA
BRANCH  26  27
ATOM     27  C   UNL     1      -1.875  -1.214  -0.551  1.00  0.00     0.281 C 
BRANCH  27  28
ATOM     28  C   UNL     1      -3.438  -1.566  -0.094  1.00  0.00     0.251 C 
BRANCH  28  29
ATOM     29  C   UNL     1      -4.145  -2.756  -1.010  1.00  0.00     0.281 C 
BRANCH  29  30
ATOM     30  O   UNL     1      -5.416  -3.505  -0.936  1.00  0.00    -0.462 OA
BRANCH  30  31
ATOM     31  C   UNL     1      -6.635  -3.838  -0.279  1.00  0.00     0.305 C 
ATOM     32  O   UNL     1      -6.883  -3.300   0.785  1.00  0.00    -0.252 OA
BRANCH  31  33
ATOM     33  C   UNL     1      -7.727  -4.929  -0.867  1.00  0.00     0.123 C 
BRANCH  33  34
ATOM     34  C   UNL     1      -9.093  -5.250   0.000  1.00  0.00     0.012 C 
BRANCH  34  35
ATOM     35  C   UNL     1     -10.392  -6.000   0.000  1.00  0.00     0.001 C 
BRANCH  35  36
ATOM     36  C   UNL     1     -11.691  -6.750   0.000  1.00  0.00     0.000 C 
BRANCH  36  37
ATOM     37  C   UNL     1     -13.341  -7.066  -0.001  1.00  0.00     0.000 C 
BRANCH  37  38
ATOM     38  C   UNL     1     -13.943  -8.657   0.010  1.00  0.00     0.001 C 
BRANCH  38  39
ATOM     39  C   UNL     1     -15.588  -9.000   0.000  1.00  0.00     0.008 C 
BRANCH  39  40
ATOM     40  C   UNL     1     -16.887  -9.750   0.000  1.00  0.00    -0.017 C 
BRANCH  40  41
ATOM     41  C   UNL     1     -18.186 -10.500   0.000  1.00  0.00     0.011 C 
BRANCH  41  42
ATOM     42  C   UNL     1     -19.486 -11.250   0.000  1.00  0.00    -0.017 C 
ATOM     43  C   UNL     1     -20.785 -12.000   0.000  1.00  0.00     0.007 C 
ATOM     44  C   UNL     1     -18.736 -12.549   0.000  1.00  0.00     0.007 C 
ENDBRANCH  41  42
ENDBRANCH  40  41
ENDBRANCH  39  40
ENDBRANCH  38  39
ENDBRANCH  37  38
ENDBRANCH  36  37
ENDBRANCH  35  36
ENDBRANCH  34  35
ENDBRANCH  33  34
ENDBRANCH  31  33
ENDBRANCH  30  31
ENDBRANCH  29  30
ENDBRANCH  28  29
BRANCH  28  45
ATOM     45  O   UNL     1      -4.156  -0.380  -0.159  1.00  0.00    -0.455 OA
BRANCH  45  46
ATOM     46  C   UNL     1      -4.944   0.106   0.840  1.00  0.00     0.306 C 
ATOM     47  O   UNL     1      -5.573  -0.662   1.553  1.00  0.00    -0.252 OA
BRANCH  46  48
ATOM     48  C   UNL     1      -5.020   1.594   1.108  1.00  0.00     0.123 C 
BRANCH  48  49
ATOM     49  C   UNL     1      -6.404   2.169   0.783  1.00  0.00     0.012 C 
BRANCH  49  50
ATOM     50  C   UNL     1      -6.559   3.652   1.210  1.00  0.00     0.001 C 
BRANCH  50  51
ATOM     51  C   UNL     1      -7.844   4.219   0.594  1.00  0.00     0.000 C 
BRANCH  51  52
ATOM     52  C   UNL     1      -8.234   5.674   0.985  1.00  0.00     0.000 C 
BRANCH  52  53
ATOM     53  C   UNL     1      -9.348   6.093   0.000  1.00  0.00     0.000 C 
BRANCH  53  54
ATOM     54  C   UNL     1     -10.098   7.392   0.000  1.00  0.00     0.000 C 
BRANCH  54  55
ATOM     55  C   UNL     1     -10.848   8.691   0.000  1.00  0.00     0.000 C 
BRANCH  55  56
ATOM     56  C   UNL     1     -11.309  10.257  -0.415  1.00  0.00     0.000 C 
BRANCH  56  57
ATOM     57  C   UNL     1     -12.801  10.933   0.073  1.00  0.00     0.000 C 
BRANCH  57  58
ATOM     58  C   UNL     1     -13.098  12.588   0.000  1.00  0.00     0.000 C 
BRANCH  58  59
ATOM     59  C   UNL     1     -13.848  13.887   0.000  1.00  0.00     0.003 C 
BRANCH  59  60
ATOM     60  C   UNL     1     -14.598  15.187   0.000  1.00  0.00    -0.017 C 
ATOM     61  C   UNL     1     -15.348  16.486   0.000  1.00  0.00     0.007 C 
ATOM     62  C   UNL     1     -15.897  14.437   0.000  1.00  0.00     0.007 C 
ENDBRANCH  59  60
ENDBRANCH  58  59
ENDBRANCH  57  58
ENDBRANCH  56  57
ENDBRANCH  55  56
ENDBRANCH  54  55
ENDBRANCH  53  54
ENDBRANCH  52  53
ENDBRANCH  51  52
ENDBRANCH  50  51
ENDBRANCH  49  50
ENDBRANCH  48  49
ENDBRANCH  46  48
ENDBRANCH  45  46
ENDBRANCH  28  45
ENDBRANCH  27  28
ENDBRANCH  26  27
ENDBRANCH  24  26
ENDBRANCH  23  24
ENDBRANCH   1  23
TORSDOF 52
