REMARK SMILES COc1ccc2oc3cc(OC)c(OC)c(OC)c3c(=O)c2c1
REMARK SMILES IDX 3 1 4 2 5 3 6 4 7 5 8 6 9 7 10 8 13 9 16 10 19 11 20 12
REMARK SMILES IDX 21 13 22 14 23 15 2 16 1 17 17 18 18 19 14 20 15 21 11 22
REMARK SMILES IDX 12 23
REMARK H PARENT
ROOT
ATOM      1  C   UNL     1       4.404   0.978  -0.051  1.00  0.00     0.119 A 
ATOM      2  C   UNL     1       4.005   2.314  -0.178  1.00  0.00     0.050 A 
ATOM      3  C   UNL     1       2.652   2.648  -0.289  1.00  0.00     0.052 A 
ATOM      4  C   UNL     1       1.675   1.646  -0.273  1.00  0.00     0.138 A 
ATOM      5  O   UNL     1       0.392   1.973  -0.375  1.00  0.00    -0.456 OA
ATOM      6  C   UNL     1      -0.587   1.073  -0.359  1.00  0.00     0.146 A 
ATOM      7  C   UNL     1      -1.910   1.506  -0.476  1.00  0.00     0.098 A 
ATOM      8  C   UNL     1      -2.975   0.585  -0.465  1.00  0.00     0.168 A 
ATOM      9  C   UNL     1      -2.693  -0.789  -0.324  1.00  0.00     0.204 A 
ATOM     10  C   UNL     1      -1.365  -1.236  -0.204  1.00  0.00     0.179 A 
ATOM     11  C   UNL     1      -0.297  -0.306  -0.230  1.00  0.00     0.111 A 
ATOM     12  C   UNL     1       1.060  -0.689  -0.136  1.00  0.00     0.204 A 
ATOM     13  O   UNL     1       1.374  -1.865  -0.048  1.00  0.00    -0.288 OA
ATOM     14  C   UNL     1       2.059   0.296  -0.149  1.00  0.00     0.069 A 
ATOM     15  C   UNL     1       3.422  -0.032  -0.040  1.00  0.00     0.062 A 
ENDROOT
BRANCH   1  16
ATOM     16  O   UNL     1       5.730   0.703   0.062  1.00  0.00    -0.497 OA
ATOM     17  C   UNL     1       6.277  -0.555   0.221  1.00  0.00     0.278 C 
ENDBRANCH   1  16
BRANCH  10  18
ATOM     18  O   UNL     1      -1.142  -2.561  -0.054  1.00  0.00    -0.492 OA
ATOM     19  C   UNL     1      -0.993  -3.140   1.192  1.00  0.00     0.278 C 
ENDBRANCH  10  18
BRANCH   9  20
ATOM     20  O   UNL     1      -3.683  -1.713  -0.313  1.00  0.00    -0.490 OA
ATOM     21  C   UNL     1      -4.613  -1.821   0.699  1.00  0.00     0.278 C 
ENDBRANCH   9  20
BRANCH   8  22
ATOM     22  O   UNL     1      -4.269   0.980  -0.606  1.00  0.00    -0.493 OA
ATOM     23  C   UNL     1      -4.705   2.278  -0.788  1.00  0.00     0.278 C 
ENDBRANCH   8  22
TORSDOF 4
