REMARK SMILES CC(=O)c1c(C)c(O)c2cc(C(=O)O)cc(O[C@@H]3O[C@@H]4[C@H](O)[C@]5(CCCC5)C[C@H]5O[C@@]4(C[C@@H]4C6=C5CC=C6[C@@]5(CCCO)COC[C@H]6C[C@@]78C[C@]4(NN[C@H]7C[C@]4(C8)C[C@]7(C[C@]48CC[C@@]4(CCCC4)C8)C[C@@]4(CCC[C@]48CCCC8)C[C@]74CCCC4)[C@@H]65)[C@H](O)[C@H]3O)c2c1O
REMARK SMILES IDX 32 1 31 2 18 3 19 4 89 5 20 6 87 7 17 8 16 9 4 10 5 11 92 12
REMARK SMILES IDX 7 13 91 14 9 15 10 16 15 17 11 18 6 19 2 20 3 21 1 22 93 23
REMARK SMILES IDX 8 25 12 27 13 28 14 29 90 31 21 33 22 34 23 36 24 37 27 38
REMARK SMILES IDX 25 39 26 40 88 42 30 44 29 45 28 47 33 49 34 50 51 51 35 52
REMARK SMILES IDX 38 53 50 54 52 55 86 56 36 57 37 58 39 59 49 60 53 61 47 62
REMARK SMILES IDX 44 63 48 64 54 65 57 66 46 67 45 68 55 69 56 70 58 71 61 72
REMARK SMILES IDX 59 73 60 74 62 75 69 76 70 77 81 78 63 79 64 80 71 81 80 82
REMARK SMILES IDX 85 83 82 84 65 85 68 86 72 87 75 88 84 89 83 90 66 91 67 92
REMARK SMILES IDX 73 93 74 94 79 95 76 96 78 97 77 98 40 102 41 103 42 104
REMARK SMILES IDX 43 105
REMARK H PARENT 93 24 8 26 14 30 90 32 22 35 88 43 52 99 53 100 43 106
REMARK Flexibility Score:  101.800
ROOT
ATOM      1  C   UNL     1       2.167  -2.469  -0.638  1.00  0.00     0.051 C 
ENDROOT
BRANCH   1   2
ATOM      2  C   UNL     1       3.668  -2.388  -0.147  1.00  0.00     0.127 C 
ATOM      3  C   UNL     1       5.707  -0.159  -0.044  1.00  0.00     0.339 C 
ATOM      4  O   UNL     1       4.899  -0.513  -1.174  1.00  0.00    -0.331 OA
ATOM      5  C   UNL     1       5.101  -0.701   1.297  1.00  0.00     0.215 C 
ATOM      6  C   UNL     1       4.749  -1.922  -1.181  1.00  0.00     0.186 C 
ATOM      7  C   UNL     1       3.706  -1.329   1.056  1.00  0.00     0.184 C 
BRANCH   3   8
ATOM      8  O   UNL     1       5.860   1.220  -0.008  1.00  0.00    -0.461 OA
BRANCH   8   9
ATOM      9  C   UNL     1       7.000   1.962  -0.151  1.00  0.00     0.135 A 
ATOM     10  C   UNL     1       5.919   5.458   0.890  1.00  0.00     0.066 A 
ATOM     11  C   UNL     1       7.142   6.151   0.768  1.00  0.00     0.006 A 
ATOM     12  C   UNL     1       5.829   4.082   0.592  1.00  0.00     0.138 A 
ATOM     13  C   UNL     1       8.287   5.457   0.329  1.00  0.00     0.127 A 
ATOM     14  C   UNL     1       6.992   3.358   0.154  1.00  0.00     0.070 A 
ATOM     15  C   UNL     1       8.217   4.083   0.023  1.00  0.00     0.032 A 
ATOM     16  C   UNL     1       9.383   3.432  -0.416  1.00  0.00     0.028 A 
ATOM     17  C   UNL     1       8.203   1.362  -0.613  1.00  0.00     0.063 A 
ATOM     18  C   UNL     1       9.394   2.077  -0.742  1.00  0.00     0.064 A 
ATOM     19  C   UNL     1       7.245   7.633   1.065  1.00  0.00     0.049 C 
BRANCH  10  20
ATOM     20  C   UNL     1       4.699   6.174   1.332  1.00  0.00     0.163 C 
ATOM     21  O   UNL     1       4.599   6.550   2.490  1.00  0.00    -0.294 OA
ATOM     22  C   UNL     1       3.632   6.520   0.337  1.00  0.00     0.093 C 
ENDBRANCH  10  20
BRANCH  12  23
ATOM     23  O   UNL     1       4.603   3.524   0.760  1.00  0.00    -0.506 OA
ATOM     24  H   UNL     1       4.315   2.620   0.623  1.00  0.00     0.293 HD
ENDBRANCH  12  23
BRANCH  13  25
ATOM     25  O   UNL     1       9.473   6.098   0.188  1.00  0.00    -0.507 OA
ATOM     26  H   UNL     1       9.623   7.035   0.366  1.00  0.00     0.293 HD
ENDBRANCH  13  25
BRANCH  18  27
ATOM     27  C   UNL     1      10.665   1.431  -1.214  1.00  0.00     0.335 C 
ATOM     28  O   UNL     1      11.675   2.117  -1.329  1.00  0.00    -0.246 OA
BRANCH  27  29
ATOM     29  O   UNL     1      10.763   0.116  -1.516  1.00  0.00    -0.478 OA
ATOM     30  H   UNL     1      10.049  -0.528  -1.450  1.00  0.00     0.297 HD
ENDBRANCH  27  29
ENDBRANCH  18  27
ENDBRANCH   8   9
ENDBRANCH   3   8
BRANCH   5  31
ATOM     31  O   UNL     1       5.973  -1.612   1.929  1.00  0.00    -0.384 OA
ATOM     32  H   UNL     1       6.083  -2.406   1.352  1.00  0.00     0.211 HD
ENDBRANCH   5  31
BRANCH   6  33
ATOM     33  C   UNL     1       4.711  -2.490  -2.602  1.00  0.00     0.153 C 
BRANCH  33  34
ATOM     34  O   UNL     1       3.483  -2.166  -3.206  1.00  0.00    -0.390 OA
ATOM     35  H   UNL     1       3.477  -2.535  -4.124  1.00  0.00     0.211 HD
ENDBRANCH  33  34
BRANCH  33  36
ATOM     36  C   UNL     1       5.051  -4.029  -2.652  1.00  0.00     0.002 CG0
ATOM     37  C   UNL     1       6.472  -4.344  -2.123  1.00  0.00     0.010 C 
ATOM     38  C   UNL     1       5.255  -4.468  -4.126  1.00  0.00     0.010 C 
ATOM     39  C   UNL     1       6.915  -5.643  -2.800  1.00  0.00     0.001 C 
ATOM     40  C   UNL     1       6.013  -5.787  -4.030  1.00  0.00     0.001 C 
ATOM     41  G   UNL     1       3.935  -4.861  -1.940  1.00  0.00     0.000 G0
ENDBRANCH  33  36
ENDBRANCH   6  33
BRANCH   7  42
ATOM     42  O   UNL     1       2.786  -0.270   0.872  1.00  0.00    -0.387 OA
ATOM     43  H   UNL     1       3.044   0.266   0.080  1.00  0.00     0.211 HD
ENDBRANCH   7  42
BRANCH   2  44
ATOM     44  O   UNL     1       4.138  -3.624   0.360  1.00  0.00    -0.362 OA
BRANCH  44  45
ATOM     45  C   UNL     1       3.838  -4.803  -0.371  1.00  0.00     0.146 CG1
ATOM     46  G   UNL     1       2.531  -5.379   0.111  1.00  0.00     0.000 G1
BRANCH  45  47
ATOM     47  C   UNL     1       3.935  -4.861  -1.940  1.00  0.00     0.046 CG0
ATOM     48  G   UNL     1       5.051  -4.029  -2.652  1.00  0.00     0.000 G0
ENDBRANCH  45  47
ENDBRANCH  44  45
ENDBRANCH   2  44
ENDBRANCH   1   2
BRANCH   1  49
ATOM     49  C   UNL     1       1.249  -3.159   0.412  1.00  0.00     0.044 C 
ATOM     50  C   UNL     1       1.429  -4.677   0.419  1.00  0.00    -0.037 C 
ATOM     51  C   UNL     1      -0.266  -2.755   0.330  1.00  0.00     0.044 C 
ATOM     52  C   UNL     1       2.531  -5.379   0.111  1.00  0.00    -0.034 CG1
ATOM     53  C   UNL     1       0.376  -5.618   0.814  1.00  0.00    -0.039 C 
ATOM     54  C   UNL     1      -0.401  -1.241   0.743  1.00  0.00     0.033 C 
ATOM     55  N   UNL     1      -0.753  -2.889  -1.066  1.00  0.00    -0.250 NA
ATOM     56  C   UNL     1      -1.050  -3.639   1.387  1.00  0.00     0.029 C 
ATOM     57  C   UNL     1       2.286  -6.844   0.304  1.00  0.00     0.061 C 
ATOM     58  C   UNL     1       0.866  -6.855   0.763  1.00  0.00    -0.018 C 
ATOM     59  C   UNL     1      -1.049  -5.205   1.170  1.00  0.00     0.024 C 
ATOM     60  C   UNL     1      -1.885  -0.885   0.695  1.00  0.00    -0.010 C 
ATOM     61  N   UNL     1      -2.116  -2.538  -1.239  1.00  0.00    -0.254 NA
ATOM     62  C   UNL     1      -2.479  -3.177   1.753  1.00  0.00     0.021 C 
ATOM     63  C   UNL     1      -1.516  -5.775   2.538  1.00  0.00     0.172 C 
ATOM     64  C   UNL     1      -2.569  -1.655   1.890  1.00  0.00     0.015 C 
ATOM     65  C   UNL     1      -2.334  -1.175  -0.757  1.00  0.00     0.076 C 
ATOM     66  C   UNL     1      -2.285   0.618   0.814  1.00  0.00     0.016 C 
ATOM     67  C   UNL     1      -2.891  -3.935   3.036  1.00  0.00     0.164 C 
ATOM     68  O   UNL     1      -2.840  -5.344   2.842  1.00  0.00    -0.380 OA
ATOM     69  C   UNL     1      -3.737  -0.673  -0.740  1.00  0.00     0.028 C 
ATOM     70  C   UNL     1      -3.543   0.764  -0.151  1.00  0.00    -0.021 C 
ATOM     71  C   UNL     1      -4.803   1.176   0.635  1.00  0.00     0.015 C 
ATOM     72  C   UNL     1      -3.426   1.930  -1.249  1.00  0.00    -0.023 C 
ATOM     73  C   UNL     1      -4.935   2.734   0.617  1.00  0.00    -0.022 C 
ATOM     74  C   UNL     1      -3.838   3.149  -0.419  1.00  0.00     0.015 C 
ATOM     75  C   UNL     1      -4.360   1.750  -2.473  1.00  0.00     0.008 C 
ATOM     76  C   UNL     1      -2.020   2.151  -1.923  1.00  0.00     0.014 C 
ATOM     77  C   UNL     1      -4.526   3.391   1.973  1.00  0.00     0.015 C 
ATOM     78  C   UNL     1      -6.481   3.160   0.540  1.00  0.00    -0.023 C 
ATOM     79  C   UNL     1      -3.461   1.118  -3.543  1.00  0.00     0.007 C 
ATOM     80  C   UNL     1      -2.181   1.963  -3.439  1.00  0.00    -0.029 C 
ATOM     81  C   UNL     1      -5.777   3.464   2.910  1.00  0.00    -0.023 C 
ATOM     82  C   UNL     1      -6.894   2.881   2.007  1.00  0.00     0.015 C 
ATOM     83  C   UNL     1      -7.477   2.450  -0.428  1.00  0.00     0.007 C 
ATOM     84  C   UNL     1      -6.741   4.626   0.111  1.00  0.00     0.007 C 
ATOM     85  C   UNL     1      -0.954   1.338  -4.115  1.00  0.00     0.007 C 
ATOM     86  C   UNL     1      -2.248   3.299  -4.207  1.00  0.00     0.007 C 
ATOM     87  C   UNL     1      -6.140   4.959   3.255  1.00  0.00     0.007 C 
ATOM     88  C   UNL     1      -5.652   2.783   4.351  1.00  0.00    -0.024 C 
ATOM     89  C   UNL     1      -7.524   3.247  -1.730  1.00  0.00     0.001 C 
ATOM     90  C   UNL     1      -6.805   4.556  -1.414  1.00  0.00     0.001 C 
ATOM     91  C   UNL     1      -1.093   1.669  -5.602  1.00  0.00     0.001 C 
ATOM     92  C   UNL     1      -2.068   2.858  -5.658  1.00  0.00     0.001 C 
ATOM     93  C   UNL     1      -5.840   5.132   4.727  1.00  0.00     0.001 C 
ATOM     94  C   UNL     1      -6.338   3.811   5.282  1.00  0.00     0.007 C 
ATOM     95  C   UNL     1      -4.195   2.514   4.824  1.00  0.00     0.007 C 
ATOM     96  C   UNL     1      -6.197   1.354   4.533  1.00  0.00     0.007 C 
ATOM     97  C   UNL     1      -4.345   1.672   6.091  1.00  0.00     0.001 C 
ATOM     98  C   UNL     1      -5.675   0.922   5.905  1.00  0.00     0.001 C 
ATOM     99  H   UNL     1      -0.513  -3.782  -1.543  1.00  0.00     0.142 HD
ATOM    100  H   UNL     1      -2.781  -3.269  -0.938  1.00  0.00     0.142 HD
ATOM    101  G   UNL     1       3.838  -4.803  -0.371  1.00  0.00     0.000 G1
BRANCH  59 102
ATOM    102  C   UNL     1      -2.046  -5.696   0.039  1.00  0.00     0.017 C 
BRANCH 102 103
ATOM    103  C   UNL     1      -2.176  -7.207  -0.239  1.00  0.00     0.029 C 
BRANCH 103 104
ATOM    104  C   UNL     1      -3.212  -7.479  -1.342  1.00  0.00     0.156 C 
BRANCH 104 105
ATOM    105  O   UNL     1      -2.805  -6.918  -2.565  1.00  0.00    -0.396 OA
ATOM    106  H   UNL     1      -3.231  -6.024  -2.635  1.00  0.00     0.210 HD
ENDBRANCH 104 105
ENDBRANCH 103 104
ENDBRANCH 102 103
ENDBRANCH  59 102
ENDBRANCH   1  49
TORSDOF 14
