REMARK SMILES CN1CC[C@]23C(=O)C[C@@]4(O)C(=CCOC5=CC(=O)N(c6c(O)cccc62)[C@H]3[C@H]54)C1
REMARK SMILES IDX 11 1 12 2 29 4 2 5 1 6 3 7 9 9 8 10 28 11 6 12 27 13 15 14
REMARK SMILES IDX 5 15 7 16 19 17 16 18 26 19 17 20 20 21 25 22 18 23 21 24
REMARK SMILES IDX 24 25 23 26 10 27 14 29 13 30 4 32 22 34
REMARK H PARENT 10 28 22 35
REMARK Flexibility Score:   25.800
ROOT
ATOM      1  C   UNL     1      -2.361  -0.949   0.161  1.00  0.00    -0.024 C 
ATOM      2  C   UNL     1      -2.813  -1.934  -0.654  1.00  0.00     0.017 CG1
ATOM      3  G   UNL     1      -2.375  -3.378  -0.541  1.00  0.00     0.000 G1
ENDROOT
BRANCH   1   4
ATOM      4  C   UNL     1      -2.926   0.436  -0.027  1.00  0.00     0.118 C 
BRANCH   4   5
ATOM      5  N   UNL     1      -2.289   1.088  -1.201  1.00  0.00    -0.302 NA
ATOM      6  C   UNL     1      -3.315   1.436  -2.200  1.00  0.00     0.105 C 
BRANCH   5   7
ATOM      7  C   UNL     1      -1.516   2.297  -0.809  1.00  0.00     0.086 CG0
ATOM      8  G   UNL     1       0.009   2.074  -0.662  1.00  0.00     0.000 G0
ENDBRANCH   5   7
ENDBRANCH   4   5
ENDBRANCH   1   4
BRANCH   1   9
ATOM      9  C   UNL     1      -1.312  -1.256   1.239  1.00  0.00     0.106 C 
ATOM     10  C   UNL     1      -0.981  -0.095   2.233  1.00  0.00     0.117 C 
ATOM     11  C   UNL     1      -0.001  -1.622   0.525  1.00  0.00     0.116 C 
ATOM     12  C   UNL     1      -0.185   1.068   1.678  1.00  0.00     0.148 C 
ATOM     13  C   UNL     1       0.584  -0.436  -0.259  1.00  0.00     0.123 C 
ATOM     14  C   UNL     1       0.015  -2.774  -0.514  1.00  0.00     0.110 C 
ATOM     15  C   UNL     1       0.553   1.004   0.350  1.00  0.00     0.079 C 
ATOM     16  O   UNL     1      -0.107   2.082   2.356  1.00  0.00    -0.298 OA
ATOM     17  N   UNL     1       1.988  -0.788  -0.458  1.00  0.00    -0.300 N 
ATOM     18  C   UNL     1       1.159  -2.964  -1.214  1.00  0.00     0.114 C 
ATOM     19  C   UNL     1       2.037   1.281   0.508  1.00  0.00    -0.005 A 
ATOM     20  C   UNL     1       2.274  -1.995  -1.051  1.00  0.00     0.254 C 
ATOM     21  C   UNL     1       2.832   0.244   0.043  1.00  0.00     0.091 A 
ATOM     22  C   UNL     1       2.598   2.454   1.034  1.00  0.00     0.007 A 
ATOM     23  O   UNL     1       3.373  -2.273  -1.485  1.00  0.00    -0.269 OA
ATOM     24  C   UNL     1       4.256   0.341   0.168  1.00  0.00     0.139 A 
ATOM     25  C   UNL     1       3.983   2.577   1.107  1.00  0.00     0.004 A 
ATOM     26  C   UNL     1       4.801   1.528   0.684  1.00  0.00     0.048 A 
BRANCH   9  27
ATOM     27  O   UNL     1      -1.741  -2.337   2.030  1.00  0.00    -0.384 OA
ATOM     28  H   UNL     1      -2.611  -2.085   2.440  1.00  0.00     0.211 HD
ENDBRANCH   9  27
BRANCH  14  29
ATOM     29  O   UNL     1      -1.046  -3.549  -0.860  1.00  0.00    -0.493 OA
BRANCH  29  30
ATOM     30  C   UNL     1      -2.375  -3.378  -0.541  1.00  0.00     0.257 CG1
ATOM     31  G   UNL     1      -2.813  -1.934  -0.654  1.00  0.00     0.000 G1
ENDBRANCH  29  30
ENDBRANCH  14  29
BRANCH  15  32
ATOM     32  C   UNL     1       0.009   2.074  -0.662  1.00  0.00     0.037 CG0
ATOM     33  G   UNL     1      -1.516   2.297  -0.809  1.00  0.00     0.000 G0
ENDBRANCH  15  32
BRANCH  24  34
ATOM     34  O   UNL     1       5.145  -0.629  -0.124  1.00  0.00    -0.506 OA
ATOM     35  H   UNL     1       4.956  -1.566  -0.173  1.00  0.00     0.293 HD
ENDBRANCH  24  34
ENDBRANCH   1   9
TORSDOF 2
