REMARK SMILES CCC[C]CC[C]CCCCCCCCCCCCC(=O)OC[C@H](COC(=O)CCCCCCCC[C]CCC(C)C)OC(=O)CCCCCCCCC(C)C
REMARK SMILES IDX 20 1 21 2 19 3 18 4 17 5 16 6 15 7 14 8 13 9 12 10 11 11
REMARK SMILES IDX 10 12 9 13 8 14 7 15 6 16 5 17 4 18 3 19 2 20 1 21 22 22
REMARK SMILES IDX 23 23 24 24 25 25 26 26 27 27 28 28 29 29 30 30 31 31 32 32
REMARK SMILES IDX 33 33 34 34 35 35 36 36 37 37 38 38 39 39 40 40 41 41 42 42
REMARK SMILES IDX 43 43 44 44 45 45 46 46 47 47 48 48 49 49 50 50 51 51 52 52
REMARK SMILES IDX 53 53 54 54 55 55 56 56
REMARK H PARENT
ROOT
ATOM      1  C   UNL     1       0.338  -0.216   0.001  1.00  0.00     0.305 C 
ATOM      2  O   UNL     1       1.068  -1.081  -0.459  1.00  0.00    -0.252 OA
ENDROOT
BRANCH   1   3
ATOM      3  C   UNL     1       1.066   1.240   0.281  1.00  0.00     0.123 C 
BRANCH   3   4
ATOM      4  C   UNL     1       2.709   1.504   0.012  1.00  0.00     0.012 C 
BRANCH   4   5
ATOM      5  C   UNL     1       3.538   2.963   0.230  1.00  0.00     0.001 C 
BRANCH   5   6
ATOM      6  C   UNL     1       5.196   3.000   0.000  1.00  0.00     0.000 C 
BRANCH   6   7
ATOM      7  C   UNL     1       6.495   3.750   0.000  1.00  0.00     0.000 C 
BRANCH   7   8
ATOM      8  C   UNL     1       7.794   4.500   0.000  1.00  0.00     0.000 C 
BRANCH   8   9
ATOM      9  C   UNL     1       9.093   5.250   0.000  1.00  0.00     0.000 C 
BRANCH   9  10
ATOM     10  C   UNL     1      10.392   6.000   0.000  1.00  0.00     0.000 C 
BRANCH  10  11
ATOM     11  C   UNL     1      11.691   6.750   0.000  1.00  0.00     0.000 C 
BRANCH  11  12
ATOM     12  C   UNL     1      13.340   7.066  -0.069  1.00  0.00     0.000 C 
BRANCH  12  13
ATOM     13  C   UNL     1      13.946   8.651   0.065  1.00  0.00     0.001 C 
BRANCH  13  14
ATOM     14  C   UNL     1      15.588   9.000   0.000  1.00  0.00     0.008 C 
BRANCH  14  15
ATOM     15  C   UNL     1      16.887   9.750   0.000  1.00  0.00    -0.017 C 
BRANCH  15  16
ATOM     16  C   UNL     1      18.186  10.500   0.000  1.00  0.00     0.009 C 
BRANCH  16  17
ATOM     17  C   UNL     1      19.486  11.250   0.000  1.00  0.00     0.009 C 
BRANCH  17  18
ATOM     18  C   UNL     1      20.785  12.000   0.000  1.00  0.00    -0.017 C 
BRANCH  18  19
ATOM     19  C   UNL     1      22.084  12.750   0.000  1.00  0.00     0.008 C 
BRANCH  19  20
ATOM     20  C   UNL     1      23.383  13.500   0.000  1.00  0.00    -0.003 C 
ATOM     21  C   UNL     1      24.682  14.250   0.000  1.00  0.00     0.004 C 
ENDBRANCH  19  20
ENDBRANCH  18  19
ENDBRANCH  17  18
ENDBRANCH  16  17
ENDBRANCH  15  16
ENDBRANCH  14  15
ENDBRANCH  13  14
ENDBRANCH  12  13
ENDBRANCH  11  12
ENDBRANCH  10  11
ENDBRANCH   9  10
ENDBRANCH   8   9
ENDBRANCH   7   8
ENDBRANCH   6   7
ENDBRANCH   5   6
ENDBRANCH   4   5
ENDBRANCH   3   4
ENDBRANCH   1   3
BRANCH   1  22
ATOM     22  O   UNL     1      -1.049  -0.579   0.239  1.00  0.00    -0.462 OA
BRANCH  22  23
ATOM     23  C   UNL     1      -1.710  -1.852  -0.111  1.00  0.00     0.281 C 
BRANCH  23  24
ATOM     24  C   UNL     1      -3.306  -2.253   0.287  1.00  0.00     0.251 C 
BRANCH  24  25
ATOM     25  C   UNL     1      -3.748  -3.825  -0.190  1.00  0.00     0.281 C 
BRANCH  25  26
ATOM     26  O   UNL     1      -4.991  -4.564   0.138  1.00  0.00    -0.462 OA
BRANCH  26  27
ATOM     27  C   UNL     1      -5.196  -6.000   0.000  1.00  0.00     0.305 C 
ATOM     28  O   UNL     1      -4.178  -6.663  -0.199  1.00  0.00    -0.252 OA
BRANCH  27  29
ATOM     29  C   UNL     1      -6.495  -6.750   0.000  1.00  0.00     0.123 C 
BRANCH  29  30
ATOM     30  C   UNL     1      -7.794  -7.500   0.000  1.00  0.00     0.012 C 
BRANCH  30  31
ATOM     31  C   UNL     1      -9.093  -8.250   0.000  1.00  0.00     0.001 C 
BRANCH  31  32
ATOM     32  C   UNL     1     -10.392  -9.000   0.000  1.00  0.00     0.000 C 
BRANCH  32  33
ATOM     33  C   UNL     1     -11.691  -9.750   0.000  1.00  0.00     0.000 C 
BRANCH  33  34
ATOM     34  C   UNL     1     -13.341 -10.065   0.045  1.00  0.00     0.000 C 
BRANCH  34  35
ATOM     35  C   UNL     1     -13.944 -11.653  -0.040  1.00  0.00     0.001 C 
BRANCH  35  36
ATOM     36  C   UNL     1     -15.588 -12.000   0.000  1.00  0.00     0.008 C 
BRANCH  36  37
ATOM     37  C   UNL     1     -16.887 -12.750   0.000  1.00  0.00    -0.017 C 
BRANCH  37  38
ATOM     38  C   UNL     1     -18.186 -13.500   0.000  1.00  0.00     0.008 C 
BRANCH  38  39
ATOM     39  C   UNL     1     -19.486 -14.250   0.000  1.00  0.00     0.003 C 
BRANCH  39  40
ATOM     40  C   UNL     1     -20.785 -15.000   0.000  1.00  0.00    -0.017 C 
ATOM     41  C   UNL     1     -22.084 -15.750   0.000  1.00  0.00     0.007 C 
ATOM     42  C   UNL     1     -21.535 -13.701   0.000  1.00  0.00     0.007 C 
ENDBRANCH  39  40
ENDBRANCH  38  39
ENDBRANCH  37  38
ENDBRANCH  36  37
ENDBRANCH  35  36
ENDBRANCH  34  35
ENDBRANCH  33  34
ENDBRANCH  32  33
ENDBRANCH  31  32
ENDBRANCH  30  31
ENDBRANCH  29  30
ENDBRANCH  27  29
ENDBRANCH  26  27
ENDBRANCH  25  26
ENDBRANCH  24  25
BRANCH  24  43
ATOM     43  O   UNL     1      -4.137  -1.194  -0.159  1.00  0.00    -0.455 OA
BRANCH  43  44
ATOM     44  C   UNL     1      -5.493  -0.982   0.009  1.00  0.00     0.306 C 
ATOM     45  O   UNL     1      -6.283  -1.887  -0.207  1.00  0.00    -0.252 OA
BRANCH  44  46
ATOM     46  C   UNL     1      -6.014   0.354   0.603  1.00  0.00     0.123 C 
BRANCH  46  47
ATOM     47  C   UNL     1      -6.994   1.324  -0.195  1.00  0.00     0.012 C 
BRANCH  47  48
ATOM     48  C   UNL     1      -7.360   2.569   0.713  1.00  0.00     0.001 C 
BRANCH  48  49
ATOM     49  C   UNL     1      -7.880   3.980   0.193  1.00  0.00     0.000 C 
BRANCH  49  50
ATOM     50  C   UNL     1      -9.388   4.497  -0.012  1.00  0.00     0.000 C 
BRANCH  50  51
ATOM     51  C   UNL     1      -9.348   6.093   0.000  1.00  0.00     0.000 C 
BRANCH  51  52
ATOM     52  C   UNL     1     -10.098   7.392   0.000  1.00  0.00     0.000 C 
BRANCH  52  53
ATOM     53  C   UNL     1     -10.848   8.691   0.000  1.00  0.00     0.003 C 
BRANCH  53  54
ATOM     54  C   UNL     1     -11.598   9.990   0.000  1.00  0.00    -0.017 C 
ATOM     55  C   UNL     1     -11.442  10.777  -1.323  1.00  0.00     0.007 C 
ATOM     56  C   UNL     1     -12.897   9.240   0.000  1.00  0.00     0.007 C 
ENDBRANCH  53  54
ENDBRANCH  52  53
ENDBRANCH  51  52
ENDBRANCH  50  51
ENDBRANCH  49  50
ENDBRANCH  48  49
ENDBRANCH  47  48
ENDBRANCH  46  47
ENDBRANCH  44  46
ENDBRANCH  43  44
ENDBRANCH  24  43
ENDBRANCH  23  24
ENDBRANCH  22  23
ENDBRANCH   1  22
TORSDOF 47
