REMARK SMILES O=C(CCc1ccccc1)C[C@@H](O)CCc1ccccc1
REMARK SMILES IDX 11 1 2 2 1 3 3 4 4 5 5 6 6 7 10 8 7 9 9 10 8 11 12 12 13 13
REMARK SMILES IDX 14 15 15 16 16 17 17 18 21 19 18 20 20 21 19 22
REMARK H PARENT 13 14
ROOT
ATOM      1  C   UNL     1      -0.336   0.580  -0.239  1.00  0.00     0.107 C 
ENDROOT
BRANCH   1   2
ATOM      2  C   UNL     1      -1.713  -0.013  -0.388  1.00  0.00     0.135 C 
ATOM      3  O   UNL     1      -2.454   0.412  -1.262  1.00  0.00    -0.300 OA
BRANCH   2   4
ATOM      4  C   UNL     1      -2.205  -1.088   0.553  1.00  0.00     0.080 C 
BRANCH   4   5
ATOM      5  C   UNL     1      -3.373  -0.592   1.423  1.00  0.00     0.043 C 
BRANCH   5   6
ATOM      6  C   UNL     1      -4.600  -0.230   0.622  1.00  0.00    -0.048 A 
ATOM      7  C   UNL     1      -5.078   1.092   0.615  1.00  0.00     0.004 A 
ATOM      8  C   UNL     1      -5.282  -1.210  -0.119  1.00  0.00     0.004 A 
ATOM      9  C   UNL     1      -6.214   1.428  -0.128  1.00  0.00     0.000 A 
ATOM     10  C   UNL     1      -6.420  -0.871  -0.858  1.00  0.00     0.000 A 
ATOM     11  C   UNL     1      -6.885   0.447  -0.863  1.00  0.00     0.000 A 
ENDBRANCH   5   6
ENDBRANCH   4   5
ENDBRANCH   2   4
ENDBRANCH   1   2
BRANCH   1  12
ATOM     12  C   UNL     1       0.789  -0.444  -0.493  1.00  0.00     0.122 C 
BRANCH  12  13
ATOM     13  O   UNL     1       0.716  -0.942  -1.807  1.00  0.00    -0.393 OA
ATOM     14  H   UNL     1       0.871  -0.181  -2.426  1.00  0.00     0.210 HD
ENDBRANCH  12  13
BRANCH  12  15
ATOM     15  C   UNL     1       2.162   0.200  -0.212  1.00  0.00     0.037 C 
BRANCH  15  16
ATOM     16  C   UNL     1       3.327  -0.773  -0.445  1.00  0.00     0.038 C 
BRANCH  16  17
ATOM     17  C   UNL     1       4.642  -0.128  -0.077  1.00  0.00    -0.048 A 
ATOM     18  C   UNL     1       4.902   0.234   1.258  1.00  0.00     0.004 A 
ATOM     19  C   UNL     1       5.621   0.116  -1.055  1.00  0.00     0.004 A 
ATOM     20  C   UNL     1       6.115   0.834   1.604  1.00  0.00     0.000 A 
ATOM     21  C   UNL     1       6.833   0.719  -0.704  1.00  0.00     0.000 A 
ATOM     22  C   UNL     1       7.079   1.079   0.623  1.00  0.00     0.000 A 
ENDBRANCH  16  17
ENDBRANCH  15  16
ENDBRANCH  12  15
ENDBRANCH   1  12
TORSDOF 9
