REMARK SMILES COc1cc2c3c(c1O)-c1c(ccc(OC)c1OC)C[C@@H]3N(C)C[C@@H]2O
REMARK SMILES IDX 3 1 4 2 5 3 6 4 7 5 8 6 10 7 11 8 12 9 13 10 14 11 17 12
REMARK SMILES IDX 20 13 21 14 22 15 23 16 24 17 25 18 2 19 1 20 9 21 26 23
REMARK SMILES IDX 18 25 19 26 15 27 16 28
REMARK H PARENT 9 22 26 24
ROOT
ATOM      1  C   UNL     1      -1.300   2.692   0.216  1.00  0.00     0.161 A 
ATOM      2  C   UNL     1      -2.488   2.001  -0.024  1.00  0.00     0.057 A 
ATOM      3  C   UNL     1      -2.508   0.610   0.028  1.00  0.00    -0.009 A 
ATOM      4  C   UNL     1      -1.319  -0.117   0.234  1.00  0.00    -0.013 A 
ATOM      5  C   UNL     1      -0.065   0.543   0.362  1.00  0.00     0.037 A 
ATOM      6  C   UNL     1      -0.111   1.983   0.446  1.00  0.00     0.166 A 
ATOM      7  C   UNL     1       1.203  -0.307   0.446  1.00  0.00     0.035 A 
ATOM      8  C   UNL     1       1.073  -1.706   0.637  1.00  0.00    -0.034 A 
ATOM      9  C   UNL     1       2.200  -2.524   0.789  1.00  0.00     0.008 A 
ATOM     10  C   UNL     1       3.475  -2.004   0.716  1.00  0.00     0.051 A 
ATOM     11  C   UNL     1       3.666  -0.657   0.409  1.00  0.00     0.161 A 
ATOM     12  C   UNL     1       2.539   0.188   0.228  1.00  0.00     0.168 A 
ATOM     13  C   UNL     1      -0.234  -2.438   0.606  1.00  0.00     0.060 C 
ATOM     14  C   UNL     1      -1.512  -1.619   0.340  1.00  0.00     0.092 C 
ATOM     15  N   UNL     1      -2.323  -2.160  -0.800  1.00  0.00    -0.296 NA
ATOM     16  C   UNL     1      -2.826  -3.521  -0.518  1.00  0.00     0.106 C 
ATOM     17  C   UNL     1      -3.462  -1.279  -1.217  1.00  0.00     0.121 C 
ATOM     18  C   UNL     1      -3.779  -0.186  -0.178  1.00  0.00     0.159 C 
ENDROOT
BRANCH   1  19
ATOM     19  O   UNL     1      -1.258   4.052   0.262  1.00  0.00    -0.493 OA
ATOM     20  C   UNL     1      -2.317   4.910   0.044  1.00  0.00     0.278 C 
ENDBRANCH   1  19
BRANCH   6  21
ATOM     21  O   UNL     1       0.929   2.747   0.835  1.00  0.00    -0.504 OA
ATOM     22  H   UNL     1       1.611   2.425   1.439  1.00  0.00     0.293 HD
ENDBRANCH   6  21
BRANCH  18  23
ATOM     23  O   UNL     1      -4.872   0.609  -0.571  1.00  0.00    -0.387 OA
ATOM     24  H   UNL     1      -4.691   0.939  -1.490  1.00  0.00     0.211 HD
ENDBRANCH  18  23
BRANCH  12  25
ATOM     25  O   UNL     1       2.717   1.455  -0.218  1.00  0.00    -0.492 OA
ATOM     26  C   UNL     1       3.498   1.849  -1.288  1.00  0.00     0.278 C 
ENDBRANCH  12  25
BRANCH  11  27
ATOM     27  O   UNL     1       4.918  -0.138   0.289  1.00  0.00    -0.493 OA
ATOM     28  C   UNL     1       6.107  -0.809   0.490  1.00  0.00     0.278 C 
ENDBRANCH  11  27
TORSDOF 5
