REMARK SMILES C=C1C(=O)O[C@H]2[C@H]1[C@H](OC(=O)/C(=C/C)CO)C[C@@]1(C)[C@H](O)CC=C(C)[C@H]21
REMARK SMILES IDX 10 1 11 2 9 3 8 4 1 5 2 6 3 7 7 8 4 9 5 10 6 11 26 12 17 13
REMARK SMILES IDX 24 14 18 15 23 16 20 17 22 18 25 19 19 20 21 21 12 23 13 24
REMARK SMILES IDX 14 25 15 26 16 27
REMARK H PARENT 21 22 16 28
ROOT
ATOM      1  C   UNL     1       2.777   0.141  -0.704  1.00  0.00     0.336 C 
ATOM      2  O   UNL     1       2.462   0.229  -1.884  1.00  0.00    -0.246 OA
ENDROOT
BRANCH   1   3
ATOM      3  O   UNL     1       1.812  -0.048   0.250  1.00  0.00    -0.458 OA
BRANCH   3   4
ATOM      4  C   UNL     1       0.446  -0.049  -0.024  1.00  0.00     0.189 C 
ATOM      5  C   UNL     1       1.087  -2.623   2.076  1.00  0.00     0.021 C 
ATOM      6  C   UNL     1       0.072  -2.505   1.220  1.00  0.00     0.041 C 
ATOM      7  C   UNL     1      -1.109  -3.378   1.105  1.00  0.00     0.334 C 
ATOM      8  C   UNL     1      -0.218  -1.441   0.219  1.00  0.00     0.109 C 
ATOM      9  O   UNL     1      -1.247  -4.478   1.617  1.00  0.00    -0.247 OA
ATOM     10  O   UNL     1      -2.105  -2.713   0.458  1.00  0.00    -0.458 OA
ATOM     11  C   UNL     1      -1.733  -1.379   0.503  1.00  0.00     0.196 C 
ATOM     12  C   UNL     1      -2.342  -0.299  -0.384  1.00  0.00     0.065 C 
ATOM     13  C   UNL     1      -0.340   1.046   0.697  1.00  0.00     0.056 C 
ATOM     14  C   UNL     1      -3.816  -0.289  -0.717  1.00  0.00    -0.070 C 
ATOM     15  C   UNL     1      -1.854   1.111   0.187  1.00  0.00     0.007 C 
ATOM     16  C   UNL     1      -4.346   0.830  -1.270  1.00  0.00    -0.025 C 
ATOM     17  C   UNL     1      -2.068   2.064  -1.031  1.00  0.00     0.125 C 
ATOM     18  C   UNL     1      -3.569   2.131  -1.450  1.00  0.00     0.059 C 
ATOM     19  C   UNL     1      -4.669  -1.509  -0.494  1.00  0.00     0.039 C 
ATOM     20  C   UNL     1      -2.687   1.599   1.415  1.00  0.00     0.015 C 
BRANCH  17  21
ATOM     21  O   UNL     1      -1.540   3.352  -0.825  1.00  0.00    -0.392 OA
ATOM     22  H   UNL     1      -2.111   3.817  -0.159  1.00  0.00     0.210 HD
ENDBRANCH  17  21
ENDBRANCH   3   4
ENDBRANCH   1   3
BRANCH   1  23
ATOM     23  C   UNL     1       4.223   0.268  -0.325  1.00  0.00     0.058 C 
ATOM     24  C   UNL     1       5.136   0.522  -1.305  1.00  0.00    -0.017 C 
ATOM     25  C   UNL     1       6.629   0.658  -1.159  1.00  0.00     0.036 C 
BRANCH  23  26
ATOM     26  C   UNL     1       4.591   0.120   1.147  1.00  0.00     0.199 C 
BRANCH  26  27
ATOM     27  O   UNL     1       4.528  -1.217   1.578  1.00  0.00    -0.391 OA
ATOM     28  H   UNL     1       3.800  -1.678   1.091  1.00  0.00     0.211 HD
ENDBRANCH  26  27
ENDBRANCH  23  26
ENDBRANCH   1  23
TORSDOF 6
