REMARK SMILES CCCC[C@H](O)[C@H](O)/C=C/C1=C(\C[C@H](O)CO)[C@H]2CC[C@@H](O)[C@@H]3N[C@@H](C)CC[C@H]([C@H]3CC(=O)O)[C@H](O)Cc3ccc(cc3CC3(C(=O)O)CCCCC3)C[C@@]([C@@](C)(O)Cc3ccc(O)cc3)(CC#Cc3c(CC)cccc3CC1)N2
REMARK SMILES IDX 55 1 80 2 18 4 12 5 11 6 10 8 9 9 7 10 5 11 4 12 3 13 2 14
REMARK SMILES IDX 1 15 6 16 8 18 13 20 14 21 15 22 16 24 17 25 19 27 20 28
REMARK SMILES IDX 21 29 22 30 23 32 24 34 25 36 26 37 54 39 41 40 40 41 42 42
REMARK SMILES IDX 39 43 43 44 38 45 44 46 45 47 49 48 53 49 50 50 52 51 51 52
REMARK SMILES IDX 46 53 47 54 48 55 37 57 35 58 29 59 28 60 27 61 30 63 31 65
REMARK SMILES IDX 32 66 33 67 34 68 36 70 56 72 57 73 58 74 59 76 60 77 61 78
REMARK SMILES IDX 66 79 62 80 65 81 63 82 64 83 67 85 68 86 69 87 70 88 71 89
REMARK SMILES IDX 77 90 74 91 76 92 75 93 72 94 73 95 78 96 79 97
REMARK H PARENT 80 3 6 17 8 19 15 23 17 26 22 31 24 35 48 56 34 69 36 71 58 75
REMARK H PARENT 64 84
REMARK Flexibility Score:  124.700
ROOT
ATOM      1  C   UNL     1      -0.494  -2.448   0.548  1.00  0.00     0.063 C 
ENDROOT
BRANCH   1   2
ATOM      2  N   UNL     1       0.146  -1.082   0.405  1.00  0.00    -0.301 NA
ATOM      3  H   UNL     1      -0.475  -0.398  -0.048  1.00  0.00     0.124 HD
BRANCH   2   4
ATOM      4  C   UNL     1       0.993  -0.390   1.392  1.00  0.00     0.081 C 
BRANCH   4   5
ATOM      5  C   UNL     1       2.306   0.353   0.906  1.00  0.00    -0.047 C 
ATOM      6  C   UNL     1       2.746   0.588  -0.414  1.00  0.00    -0.047 CG0
ATOM      7  G   UNL     1       2.073  -0.013  -1.656  1.00  0.00     0.000 G0
BRANCH   6   8
ATOM      8  C   UNL     1       3.795   1.623  -0.826  1.00  0.00     0.002 C 
ATOM      9  C   UNL     1       4.695   2.339  -0.117  1.00  0.00     0.007 C 
BRANCH   9  10
ATOM     10  C   UNL     1       5.501   3.466  -0.745  1.00  0.00     0.166 C 
BRANCH  10  11
ATOM     11  C   UNL     1       6.378   3.084  -1.963  1.00  0.00     0.147 C 
BRANCH  11  12
ATOM     12  C   UNL     1       7.523   2.099  -1.639  1.00  0.00     0.035 C 
BRANCH  12  13
ATOM     13  C   UNL     1       8.319   1.766  -2.910  1.00  0.00     0.002 C 
BRANCH  13  14
ATOM     14  C   UNL     1       9.508   0.852  -2.609  1.00  0.00    -0.003 C 
ATOM     15  C   UNL     1      10.305   0.570  -3.880  1.00  0.00     0.004 C 
ENDBRANCH  13  14
ENDBRANCH  12  13
ENDBRANCH  11  12
BRANCH  11  16
ATOM     16  O   UNL     1       6.888   4.258  -2.551  1.00  0.00    -0.390 OA
ATOM     17  H   UNL     1       7.532   4.663  -1.913  1.00  0.00     0.211 HD
ENDBRANCH  11  16
ENDBRANCH  10  11
BRANCH  10  18
ATOM     18  O   UNL     1       6.261   4.134   0.234  1.00  0.00    -0.386 OA
ATOM     19  H   UNL     1       6.828   3.463   0.696  1.00  0.00     0.211 HD
ENDBRANCH  10  18
ENDBRANCH   9  10
ENDBRANCH   6   8
BRANCH   5  20
ATOM     20  C   UNL     1       3.032   0.963   2.116  1.00  0.00     0.067 C 
BRANCH  20  21
ATOM     21  C   UNL     1       4.331   0.216   2.500  1.00  0.00     0.144 C 
BRANCH  21  22
ATOM     22  O   UNL     1       4.053  -1.141   2.747  1.00  0.00    -0.390 OA
ATOM     23  H   UNL     1       3.451  -1.185   3.536  1.00  0.00     0.211 HD
ENDBRANCH  21  22
BRANCH  21  24
ATOM     24  C   UNL     1       4.965   0.854   3.758  1.00  0.00     0.188 C 
BRANCH  24  25
ATOM     25  O   UNL     1       5.287   2.200   3.537  1.00  0.00    -0.394 OA
ATOM     26  H   UNL     1       6.154   2.208   3.054  1.00  0.00     0.210 HD
ENDBRANCH  24  25
ENDBRANCH  21  24
ENDBRANCH  20  21
ENDBRANCH   5  20
ENDBRANCH   4   5
BRANCH   4  27
ATOM     27  C   UNL     1       0.076   0.700   2.041  1.00  0.00     0.026 C 
BRANCH  27  28
ATOM     28  C   UNL     1      -0.229   1.966   1.169  1.00  0.00     0.035 C 
BRANCH  28  29
ATOM     29  C   UNL     1      -1.266   2.831   1.915  1.00  0.00     0.131 C 
BRANCH  29  30
ATOM     30  O   UNL     1      -0.800   3.075   3.223  1.00  0.00    -0.391 OA
ATOM     31  H   UNL     1       0.051   3.582   3.148  1.00  0.00     0.211 HD
ENDBRANCH  29  30
BRANCH  29  32
ATOM     32  C   UNL     1      -1.666   4.208   1.275  1.00  0.00     0.086 CG1
ATOM     33  G   UNL     1      -2.402   4.211  -0.118  1.00  0.00     0.000 G1
BRANCH  32  34
ATOM     34  N   UNL     1      -2.366   5.042   2.275  1.00  0.00    -0.309 NA
ATOM     35  H   UNL     1      -2.481   6.050   2.029  1.00  0.00     0.123 HD
BRANCH  34  36
ATOM     36  C   UNL     1      -3.542   4.451   2.925  1.00  0.00     0.050 CG2
ATOM     37  C   UNL     1      -3.620   4.992   4.354  1.00  0.00     0.024 C 
ATOM     38  G   UNL     1      -4.851   4.703   2.175  1.00  0.00     0.000 G2
ENDBRANCH  34  36
ENDBRANCH  32  34
ENDBRANCH  29  32
ENDBRANCH  28  29
ENDBRANCH  27  28
ENDBRANCH   4  27
ENDBRANCH   2   4
ENDBRANCH   1   2
BRANCH   1  39
ATOM     39  C   UNL     1      -1.322  -2.679  -0.810  1.00  0.00     0.062 C 
BRANCH  39  40
ATOM     40  C   UNL     1      -2.358  -1.613  -1.167  1.00  0.00    -0.046 A 
ATOM     41  C   UNL     1      -1.990  -0.485  -1.905  1.00  0.00     0.004 A 
ATOM     42  C   UNL     1      -3.684  -1.720  -0.756  1.00  0.00     0.007 A 
ATOM     43  C   UNL     1      -2.881   0.562  -2.102  1.00  0.00     0.004 A 
ATOM     44  C   UNL     1      -4.612  -0.666  -0.917  1.00  0.00    -0.043 A 
ATOM     45  C   UNL     1      -4.186   0.541  -1.558  1.00  0.00    -0.042 A 
BRANCH  44  46
ATOM     46  C   UNL     1      -6.014  -0.930  -0.370  1.00  0.00     0.054 C 
BRANCH  46  47
ATOM     47  C   UNL     1      -6.986  -1.591  -1.405  1.00  0.00     0.072 C 
ATOM     48  C   UNL     1      -7.419  -0.525  -2.484  1.00  0.00     0.019 C 
ATOM     49  C   UNL     1      -8.277  -2.068  -0.702  1.00  0.00     0.019 C 
ATOM     50  C   UNL     1      -8.846  -0.732  -3.073  1.00  0.00     0.001 C 
ATOM     51  C   UNL     1      -9.233  -2.796  -1.692  1.00  0.00     0.001 C 
ATOM     52  C   UNL     1      -9.201  -2.209  -3.127  1.00  0.00     0.000 C 
BRANCH  47  53
ATOM     53  C   UNL     1      -6.301  -2.821  -2.031  1.00  0.00     0.309 C 
ATOM     54  O   UNL     1      -6.040  -2.850  -3.224  1.00  0.00    -0.252 OA
BRANCH  53  55
ATOM     55  O   UNL     1      -5.955  -3.888  -1.276  1.00  0.00    -0.481 OA
ATOM     56  H   UNL     1      -6.124  -3.929  -0.326  1.00  0.00     0.296 HD
ENDBRANCH  53  55
ENDBRANCH  47  53
ENDBRANCH  46  47
ENDBRANCH  44  46
BRANCH  45  57
ATOM     57  C   UNL     1      -5.076   1.784  -1.722  1.00  0.00     0.067 C 
BRANCH  57  58
ATOM     58  C   UNL     1      -4.364   3.171  -1.522  1.00  0.00     0.122 C 
BRANCH  58  59
ATOM     59  C   UNL     1      -3.845   3.526  -0.072  1.00  0.00     0.023 C 
BRANCH  59  60
ATOM     60  C   UNL     1      -4.920   4.398   0.660  1.00  0.00     0.008 C 
BRANCH  60  61
ATOM     61  C   UNL     1      -4.851   4.703   2.175  1.00  0.00     0.019 CG2
ATOM     62  G   UNL     1      -3.542   4.451   2.925  1.00  0.00     0.000 G2
ENDBRANCH  60  61
ENDBRANCH  59  60
BRANCH  59  63
ATOM     63  C   UNL     1      -2.402   4.211  -0.118  1.00  0.00     0.025 CG1
ATOM     64  G   UNL     1      -1.666   4.208   1.275  1.00  0.00     0.000 G1
BRANCH  63  65
ATOM     65  C   UNL     1      -2.349   5.696  -0.659  1.00  0.00     0.128 C 
BRANCH  65  66
ATOM     66  C   UNL     1      -2.629   6.026  -2.107  1.00  0.00     0.303 C 
ATOM     67  O   UNL     1      -2.809   5.166  -2.948  1.00  0.00    -0.252 OA
BRANCH  66  68
ATOM     68  O   UNL     1      -2.611   7.319  -2.498  1.00  0.00    -0.481 OA
ATOM     69  H   UNL     1      -2.444   8.037  -1.871  1.00  0.00     0.296 HD
ENDBRANCH  66  68
ENDBRANCH  65  66
ENDBRANCH  63  65
ENDBRANCH  59  63
ENDBRANCH  58  59
BRANCH  58  70
ATOM     70  O   UNL     1      -5.154   4.210  -2.061  1.00  0.00    -0.392 OA
ATOM     71  H   UNL     1      -6.100   4.052  -1.803  1.00  0.00     0.210 HD
ENDBRANCH  58  70
ENDBRANCH  57  58
ENDBRANCH  45  57
ENDBRANCH  39  40
ENDBRANCH   1  39
BRANCH   1  72
ATOM     72  C   UNL     1      -1.395  -2.801   1.897  1.00  0.00     0.085 C 
ATOM     73  C   UNL     1      -2.566  -1.835   2.285  1.00  0.00     0.044 C 
BRANCH  72  74
ATOM     74  O   UNL     1      -1.969  -4.070   1.665  1.00  0.00    -0.388 OA
ATOM     75  H   UNL     1      -2.801  -3.974   1.136  1.00  0.00     0.211 HD
ENDBRANCH  72  74
BRANCH  72  76
ATOM     76  C   UNL     1      -0.624  -2.923   3.285  1.00  0.00     0.072 C 
BRANCH  76  77
ATOM     77  C   UNL     1       0.253  -4.136   3.576  1.00  0.00    -0.045 A 
ATOM     78  C   UNL     1       1.617  -3.972   3.881  1.00  0.00     0.007 A 
ATOM     79  C   UNL     1      -0.293  -5.434   3.615  1.00  0.00     0.007 A 
ATOM     80  C   UNL     1       2.418  -5.076   4.191  1.00  0.00     0.046 A 
ATOM     81  C   UNL     1       0.507  -6.535   3.932  1.00  0.00     0.046 A 
ATOM     82  C   UNL     1       1.864  -6.362   4.219  1.00  0.00     0.115 A 
BRANCH  82  83
ATOM     83  O   UNL     1       2.619  -7.436   4.529  1.00  0.00    -0.508 OA
ATOM     84  H   UNL     1       3.560  -7.359   4.745  1.00  0.00     0.293 HD
ENDBRANCH  82  83
ENDBRANCH  76  77
ENDBRANCH  72  76
ENDBRANCH   1  72
BRANCH   1  85
ATOM     85  C   UNL     1       0.639  -3.506   0.518  1.00  0.00     0.115 C 
ATOM     86  C   UNL     1       1.702  -3.205  -0.416  1.00  0.00    -0.096 C 
BRANCH  86  87
ATOM     87  C   UNL     1       2.630  -3.040  -1.144  1.00  0.00    -0.066 C 
ATOM     88  C   UNL     1       3.885  -2.782  -1.762  1.00  0.00     0.031 A 
ATOM     89  C   UNL     1       4.943  -3.699  -1.533  1.00  0.00    -0.032 A 
ATOM     90  C   UNL     1       4.096  -1.584  -2.486  1.00  0.00    -0.032 A 
ATOM     91  C   UNL     1       6.209  -3.418  -2.066  1.00  0.00     0.005 A 
ATOM     92  C   UNL     1       5.389  -1.342  -2.997  1.00  0.00     0.005 A 
ATOM     93  C   UNL     1       6.427  -2.252  -2.794  1.00  0.00     0.001 A 
BRANCH  89  94
ATOM     94  C   UNL     1       4.764  -4.955  -0.687  1.00  0.00     0.033 C 
ATOM     95  C   UNL     1       3.798  -5.978  -1.294  1.00  0.00     0.009 C 
ENDBRANCH  89  94
BRANCH  90  96
ATOM     96  C   UNL     1       2.994  -0.564  -2.797  1.00  0.00     0.041 C 
BRANCH  96  97
ATOM     97  C   UNL     1       2.073  -0.013  -1.656  1.00  0.00     0.040 CG0
ATOM     98  G   UNL     1       2.746   0.588  -0.414  1.00  0.00     0.000 G0
ENDBRANCH  96  97
ENDBRANCH  90  96
ENDBRANCH  86  87
ENDBRANCH   1  85
TORSDOF 28
