REMARK SMILES COc1ccc2c(c1)[C@@H]1c3ccccc3[C@H]2c2c1c(=C(C#N)C#N)ccc2=C(C#N)C#N
REMARK SMILES IDX 1 1 2 2 3 3 4 4 8 5 5 6 7 7 6 8 9 9 16 10 10 11 18 12 15 13
REMARK SMILES IDX 17 14 11 15 19 16 14 17 27 18 12 19 20 20 25 21 13 22 26 23
REMARK SMILES IDX 28 24 21 25 23 26 29 27 31 28 22 29 24 30 30 31 32 32
REMARK H PARENT
ROOT
ATOM      1  C   UNL     1       3.750  -1.299   0.000  1.00  0.00     0.278 C 
ATOM      2  O   UNL     1       3.000   0.000   0.000  1.00  0.00    -0.497 OA
ENDROOT
BRANCH   2   3
ATOM      3  C   UNL     1       1.500   0.000   0.000  1.00  0.00     0.119 A 
ATOM      4  C   UNL     1       0.750  -1.299   0.000  1.00  0.00     0.047 A 
ATOM      5  C   UNL     1       0.750   1.299   0.000  1.00  0.00     0.051 A 
ATOM      6  C   UNL     1      -0.750  -1.299   0.000  1.00  0.00     0.009 A 
ATOM      7  C   UNL     1      -1.071   1.548   1.105  1.00  0.00    -0.028 A 
ATOM      8  C   UNL     1      -1.840   0.188   1.107  1.00  0.00    -0.032 A 
ATOM      9  C   UNL     1      -1.755   2.573   0.165  1.00  0.00     0.081 C 
ATOM     10  C   UNL     1      -3.070   0.291   0.191  1.00  0.00     0.081 C 
ATOM     11  C   UNL     1      -3.236   2.695   0.220  1.00  0.00    -0.032 A 
ATOM     12  C   UNL     1      -1.234   1.563  -0.773  1.00  0.00    -0.022 A 
ATOM     13  C   UNL     1      -3.913   1.510   0.235  1.00  0.00    -0.032 A 
ATOM     14  C   UNL     1      -1.953   0.314  -0.752  1.00  0.00    -0.022 A 
ATOM     15  C   UNL     1      -3.928   3.912   0.151  1.00  0.00     0.005 A 
ATOM     16  C   UNL     1       0.750   1.299   0.000  1.00  0.00     0.007 A 
ATOM     17  C   UNL     1      -5.311   1.479   0.175  1.00  0.00     0.005 A 
ATOM     18  C   UNL     1      -0.750  -1.299   0.000  1.00  0.00     0.007 A 
ATOM     19  C   UNL     1      -5.327   3.899   0.070  1.00  0.00     0.000 A 
ATOM     20  C   UNL     1       1.500   2.598   0.000  1.00  0.00     0.137 C 
ATOM     21  C   UNL     1       1.500   0.000   0.000  1.00  0.00     0.011 A 
ATOM     22  C   UNL     1      -6.019   2.680   0.080  1.00  0.00     0.000 A 
ATOM     23  C   UNL     1       0.750  -1.299   0.000  1.00  0.00     0.011 A 
ATOM     24  C   UNL     1      -1.500  -2.598   0.000  1.00  0.00     0.137 C 
ATOM     25  C   UNL     1       3.000   2.598   0.000  1.00  0.00     0.111 C 
ATOM     26  C   UNL     1       0.932   3.958  -0.102  1.00  0.00     0.111 C 
ATOM     27  C   UNL     1      -3.000  -2.598   0.000  1.00  0.00     0.111 C 
ATOM     28  C   UNL     1      -0.797  -3.916   0.058  1.00  0.00     0.111 C 
ATOM     29  N   UNL     1       4.500   2.598   0.000  1.00  0.00    -0.192 NA
ATOM     30  N   UNL     1       0.527   5.046  -0.127  1.00  0.00    -0.192 NA
ATOM     31  N   UNL     1      -4.500  -2.598   0.000  1.00  0.00    -0.192 NA
ATOM     32  N   UNL     1      -0.426  -5.011   0.118  1.00  0.00    -0.192 NA
ENDBRANCH   2   3
TORSDOF 1
