REMARK SMILES CCCCOCCCN1CC(=O)N2CCc3c([nH]c4ccc(OC)cc34)[C@@]2(C)C1=O
REMARK SMILES IDX 6 1 5 2 4 3 3 4 2 5 1 6 7 7 8 8 9 9 10 10 29 11 11 12 27 13
REMARK SMILES IDX 30 14 12 15 13 16 17 17 14 18 16 19 18 20 15 21 26 22 19 23
REMARK SMILES IDX 25 24 20 25 22 26 21 27 28 28 23 30 24 31
REMARK H PARENT 18 29
ROOT
ATOM      1  C   UNL     1       2.567   2.190  -0.344  1.00  0.00     0.162 C 
ENDROOT
BRANCH   1   2
ATOM      2  O   UNL     1       1.541   1.305   0.082  1.00  0.00    -0.381 OA
BRANCH   2   3
ATOM      3  C   UNL     1       2.022   0.093   0.645  1.00  0.00     0.160 C 
BRANCH   3   4
ATOM      4  C   UNL     1       2.818   0.284   1.946  1.00  0.00     0.028 C 
BRANCH   4   5
ATOM      5  C   UNL     1       3.242  -1.071   2.522  1.00  0.00    -0.001 C 
ATOM      6  C   UNL     1       4.061  -0.892   3.796  1.00  0.00     0.004 C 
ENDBRANCH   4   5
ENDBRANCH   3   4
ENDBRANCH   2   3
ENDBRANCH   1   2
BRANCH   1   7
ATOM      7  C   UNL     1       3.505   1.642  -1.445  1.00  0.00     0.050 C 
BRANCH   7   8
ATOM      8  C   UNL     1       2.786   1.317  -2.763  1.00  0.00     0.122 C 
BRANCH   8   9
ATOM      9  N   UNL     1       1.803   0.249  -2.592  1.00  0.00    -0.331 N 
ATOM     10  C   UNL     1       2.215  -1.108  -2.874  1.00  0.00     0.219 C 
ATOM     11  C   UNL     1       0.462   0.530  -2.553  1.00  0.00     0.254 C 
ATOM     12  C   UNL     1       1.358  -2.103  -2.172  1.00  0.00     0.243 C 
ATOM     13  C   UNL     1      -0.598  -0.575  -2.398  1.00  0.00     0.159 C 
ATOM     14  O   UNL     1       0.087   1.693  -2.625  1.00  0.00    -0.272 OA
ATOM     15  O   UNL     1       1.876  -3.125  -1.746  1.00  0.00    -0.273 OA
ATOM     16  N   UNL     1       0.014  -1.883  -2.046  1.00  0.00    -0.321 N 
ATOM     17  C   UNL     1      -1.554  -0.188  -1.272  1.00  0.00     0.055 A 
ATOM     18  C   UNL     1      -0.838  -2.912  -1.443  1.00  0.00     0.126 C 
ATOM     19  C   UNL     1      -1.877  -1.035  -0.222  1.00  0.00    -0.014 A 
ATOM     20  N   UNL     1      -2.212   0.992  -1.134  1.00  0.00    -0.356 N 
ATOM     21  C   UNL     1      -1.370  -2.431  -0.084  1.00  0.00     0.060 C 
ATOM     22  C   UNL     1      -2.728  -0.331   0.599  1.00  0.00     0.007 A 
ATOM     23  C   UNL     1      -2.913   0.894   0.013  1.00  0.00     0.046 A 
ATOM     24  C   UNL     1      -3.361  -0.682   1.790  1.00  0.00     0.057 A 
ATOM     25  C   UNL     1      -3.737   1.859   0.585  1.00  0.00     0.030 A 
ATOM     26  C   UNL     1      -4.211   0.264   2.398  1.00  0.00     0.119 A 
ATOM     27  C   UNL     1      -4.391   1.540   1.788  1.00  0.00     0.048 A 
ATOM     28  C   UNL     1      -1.399  -0.683  -3.705  1.00  0.00     0.053 C 
ATOM     29  H   UNL     1      -2.186   1.820  -1.768  1.00  0.00     0.166 HD
BRANCH  26  30
ATOM     30  O   UNL     1      -4.837  -0.086   3.551  1.00  0.00    -0.497 OA
ATOM     31  C   UNL     1      -5.723   0.702   4.256  1.00  0.00     0.278 C 
ENDBRANCH  26  30
ENDBRANCH   8   9
ENDBRANCH   7   8
ENDBRANCH   1   7
TORSDOF 8
