REMARK SMILES [H]/N=C(/N)NCCC[C@@H]1/N=C(/O)[C@@H]2CCCN2C(=O)[C@H]2CCCN2C(=O)[C@@H]([C@@H](C)O)/N=C(/O)C[C@@H](CCCCCCCCCCC(C)C)OC(=O)[C@H]([C@H](O)C(=O)O)/N=C(/O)[C@@H]2[C@@H](O)CCN2C(=O)[C@H](CO)/N=C(/O)[C@@H]([C@@H](O)C(=O)O)/N=C\1O
REMARK SMILES IDX 32 1 31 2 34 3 35 4 36 5 37 6 38 7 39 8 40 9 41 10 42 11
REMARK SMILES IDX 43 12 44 13 45 14 46 15 47 16 48 17 49 18 50 19 51 20 52 21
REMARK SMILES IDX 58 22 59 23 61 24 62 25 66 26 64 27 65 28 63 29 67 31 68 32
REMARK SMILES IDX 60 34 53 36 54 37 55 39 56 40 57 41 33 43 27 45 28 46 29 47
REMARK SMILES IDX 30 48 25 50 26 51 24 52 23 53 20 54 22 55 21 56 18 57 19 58
REMARK SMILES IDX 17 59 16 60 13 61 15 62 14 63 11 64 10 65 12 66 9 68 8 69
REMARK SMILES IDX 7 70 6 71 5 72 3 73 2 74 4 75 1 77 82 80 81 81 83 82 75 84
REMARK SMILES IDX 76 85 77 86 78 88 79 89 80 90 73 92 72 93 74 94 69 96 70 98
REMARK SMILES IDX 71 99
REMARK H PARENT 63 30 60 35 54 38 57 42 33 44 30 49 12 67 5 76 4 78 4 79 83 83
REMARK H PARENT 77 87 80 91 74 95 71 100
REMARK Flexibility Score:  554.900
ROOT
ATOM      1  C   UNL     1       1.523   2.291   1.249  1.00  0.00     0.185 C 
ATOM      2  N   UNL     1       1.117   3.181   0.399  1.00  0.00    -0.239 NA
ENDROOT
BRANCH   1   3
ATOM      3  C   UNL     1       1.405   0.791   1.013  1.00  0.00     0.141 C 
BRANCH   3   4
ATOM      4  C   UNL     1       2.695   0.166   0.443  1.00  0.00     0.185 C 
BRANCH   4   5
ATOM      5  C   UNL     1       3.823   0.134   1.493  1.00  0.00     0.046 C 
BRANCH   5   6
ATOM      6  C   UNL     1       5.080  -0.642   1.060  1.00  0.00     0.004 C 
BRANCH   6   7
ATOM      7  C   UNL     1       5.809  -0.030  -0.146  1.00  0.00     0.000 C 
BRANCH   7   8
ATOM      8  C   UNL     1       7.076  -0.822  -0.532  1.00  0.00     0.000 C 
BRANCH   8   9
ATOM      9  C   UNL     1       8.146  -0.933   0.575  1.00  0.00     0.000 C 
BRANCH   9  10
ATOM     10  C   UNL     1       8.680   0.433   1.027  1.00  0.00     0.000 C 
BRANCH  10  11
ATOM     11  C   UNL     1       9.737   0.274   2.128  1.00  0.00     0.000 C 
BRANCH  11  12
ATOM     12  C   UNL     1      10.305   1.622   2.602  1.00  0.00     0.000 C 
BRANCH  12  13
ATOM     13  C   UNL     1      11.063   2.495   1.572  1.00  0.00     0.000 C 
BRANCH  13  14
ATOM     14  C   UNL     1      12.485   2.030   1.166  1.00  0.00     0.003 C 
BRANCH  14  15
ATOM     15  C   UNL     1      12.617   0.849   0.172  1.00  0.00    -0.017 C 
ATOM     16  C   UNL     1      14.102   0.515  -0.029  1.00  0.00     0.007 C 
ATOM     17  C   UNL     1      11.984   1.168  -1.191  1.00  0.00     0.007 C 
ENDBRANCH  14  15
ENDBRANCH  13  14
ENDBRANCH  12  13
ENDBRANCH  11  12
ENDBRANCH  10  11
ENDBRANCH   9  10
ENDBRANCH   8   9
ENDBRANCH   7   8
ENDBRANCH   6   7
ENDBRANCH   5   6
ENDBRANCH   4   5
BRANCH   4  18
ATOM     18  O   UNL     1       2.409  -1.128   0.031  1.00  0.00    -0.460 OA
BRANCH  18  19
ATOM     19  C   UNL     1       2.439  -1.548  -1.265  1.00  0.00     0.334 C 
ATOM     20  O   UNL     1       2.644  -0.754  -2.175  1.00  0.00    -0.250 OA
BRANCH  19  21
ATOM     21  C   UNL     1       2.188  -2.998  -1.591  1.00  0.00     0.258 C 
BRANCH  21  22
ATOM     22  N   UNL     1       1.014  -3.066  -2.448  1.00  0.00    -0.235 NA
ATOM     23  C   UNL     1      -0.160  -3.556  -2.207  1.00  0.00     0.208 C 
BRANCH  23  24
ATOM     24  C   UNL     1      -0.561  -4.215  -0.878  1.00  0.00     0.199 C 
ATOM     25  C   UNL     1       0.089  -5.605  -0.637  1.00  0.00     0.148 C 
ATOM     26  N   UNL     1      -1.989  -4.515  -0.791  1.00  0.00    -0.326 N 
ATOM     27  C   UNL     1      -1.022  -6.424   0.021  1.00  0.00     0.056 C 
ATOM     28  C   UNL     1      -2.212  -5.944  -0.766  1.00  0.00     0.123 C 
BRANCH  25  29
ATOM     29  O   UNL     1       1.236  -5.580   0.166  1.00  0.00    -0.390 OA
ATOM     30  H   UNL     1       0.994  -5.148   1.027  1.00  0.00     0.211 HD
ENDBRANCH  25  29
BRANCH  26  31
ATOM     31  C   UNL     1      -2.904  -3.545  -0.465  1.00  0.00     0.250 CG0
ATOM     32  O   UNL     1      -2.573  -2.372  -0.540  1.00  0.00    -0.272 OA
ATOM     33  G   UNL     1      -4.283  -3.841   0.111  1.00  0.00     0.000 G0
ENDBRANCH  26  31
ENDBRANCH  23  24
BRANCH  23  34
ATOM     34  O   UNL     1      -1.079  -3.437  -3.195  1.00  0.00    -0.495 OA
ATOM     35  H   UNL     1      -1.982  -3.770  -3.134  1.00  0.00     0.295 HD
ENDBRANCH  23  34
ENDBRANCH  21  22
BRANCH  21  36
ATOM     36  C   UNL     1       3.429  -3.593  -2.318  1.00  0.00     0.260 C 
BRANCH  36  37
ATOM     37  O   UNL     1       3.699  -2.899  -3.515  1.00  0.00    -0.379 OA
ATOM     38  H   UNL     1       2.927  -3.019  -4.125  1.00  0.00     0.211 HD
ENDBRANCH  36  37
BRANCH  36  39
ATOM     39  C   UNL     1       3.322  -5.083  -2.580  1.00  0.00     0.335 C 
ATOM     40  O   UNL     1       3.283  -5.510  -3.724  1.00  0.00    -0.249 OA
BRANCH  39  41
ATOM     41  O   UNL     1       3.346  -5.962  -1.558  1.00  0.00    -0.479 OA
ATOM     42  H   UNL     1       3.493  -5.671  -0.648  1.00  0.00     0.296 HD
ENDBRANCH  39  41
ENDBRANCH  36  39
ENDBRANCH  21  36
ENDBRANCH  19  21
ENDBRANCH  18  19
ENDBRANCH   4  18
ENDBRANCH   3   4
ENDBRANCH   1   3
BRANCH   1  43
ATOM     43  O   UNL     1       2.039   2.726   2.421  1.00  0.00    -0.496 OA
ATOM     44  H   UNL     1       2.334   2.115   3.109  1.00  0.00     0.294 HD
ENDBRANCH   1  43
BRANCH   2  45
ATOM     45  C   UNL     1       0.582   2.946  -0.938  1.00  0.00     0.226 C 
BRANCH  45  46
ATOM     46  C   UNL     1       1.359   3.728  -2.029  1.00  0.00     0.145 C 
ATOM     47  C   UNL     1       1.266   5.254  -1.924  1.00  0.00     0.041 C 
BRANCH  46  48
ATOM     48  O   UNL     1       2.708   3.327  -2.054  1.00  0.00    -0.391 OA
ATOM     49  H   UNL     1       3.132   3.631  -1.209  1.00  0.00     0.211 HD
ENDBRANCH  46  48
ENDBRANCH  45  46
BRANCH  45  50
ATOM     50  C   UNL     1      -0.929   3.158  -1.008  1.00  0.00     0.250 C 
ATOM     51  O   UNL     1      -1.536   2.460  -1.809  1.00  0.00    -0.272 OA
BRANCH  50  52
ATOM     52  N   UNL     1      -1.636   4.064  -0.248  1.00  0.00    -0.329 N 
ATOM     53  C   UNL     1      -1.077   5.034   0.672  1.00  0.00     0.120 C 
ATOM     54  C   UNL     1      -3.069   4.282  -0.395  1.00  0.00     0.174 C 
ATOM     55  C   UNL     1      -2.118   6.153   0.653  1.00  0.00     0.024 C 
ATOM     56  C   UNL     1      -3.411   5.364   0.624  1.00  0.00     0.037 C 
BRANCH  54  57
ATOM     57  C   UNL     1      -3.926   3.024  -0.277  1.00  0.00     0.246 C 
ATOM     58  O   UNL     1      -4.585   2.759  -1.265  1.00  0.00    -0.272 OA
BRANCH  57  59
ATOM     59  N   UNL     1      -3.939   2.153   0.793  1.00  0.00    -0.329 N 
ATOM     60  C   UNL     1      -3.004   2.230   1.911  1.00  0.00     0.120 C 
ATOM     61  C   UNL     1      -4.556   0.831   0.703  1.00  0.00     0.171 C 
ATOM     62  C   UNL     1      -3.078   0.865   2.601  1.00  0.00     0.024 C 
ATOM     63  C   UNL     1      -3.539  -0.034   1.466  1.00  0.00     0.037 C 
BRANCH  61  64
ATOM     64  C   UNL     1      -5.998   0.736   1.270  1.00  0.00     0.205 C 
ATOM     65  N   UNL     1      -7.044   0.335   0.602  1.00  0.00    -0.241 NA
BRANCH  64  66
ATOM     66  O   UNL     1      -6.258   1.084   2.550  1.00  0.00    -0.495 OA
ATOM     67  H   UNL     1      -5.682   1.608   3.110  1.00  0.00     0.295 HD
ENDBRANCH  64  66
BRANCH  65  68
ATOM     68  C   UNL     1      -7.326   0.087  -0.813  1.00  0.00     0.194 C 
BRANCH  68  69
ATOM     69  C   UNL     1      -7.617   1.447  -1.490  1.00  0.00     0.039 C 
BRANCH  69  70
ATOM     70  C   UNL     1      -8.687   2.250  -0.721  1.00  0.00     0.024 C 
BRANCH  70  71
ATOM     71  C   UNL     1      -8.952   3.614  -1.369  1.00  0.00     0.116 C 
BRANCH  71  72
ATOM     72  N   UNL     1      -9.903   4.378  -0.581  1.00  0.00    -0.357 N 
ATOM     73  C   UNL     1      -9.634   4.921   0.718  1.00  0.00     0.185 C 
ATOM     74  N   UNL     1      -8.454   4.897   1.234  1.00  0.00    -0.270 NA
ATOM     75  N   UNL     1     -10.684   5.530   1.446  1.00  0.00    -0.370 N 
ATOM     76  H   UNL     1     -10.836   4.548  -0.992  1.00  0.00     0.163 HD
ATOM     77  H   UNL     1      -7.632   4.499   0.764  1.00  0.00     0.191 HD
ATOM     78  H   UNL     1     -11.638   5.566   1.059  1.00  0.00     0.159 HD
ATOM     79  H   UNL     1     -10.509   5.936   2.376  1.00  0.00     0.159 HD
ENDBRANCH  71  72
ENDBRANCH  70  71
ENDBRANCH  69  70
ENDBRANCH  68  69
BRANCH  68  80
ATOM     80  C   UNL     1      -6.307  -0.795  -1.526  1.00  0.00     0.207 C 
ATOM     81  N   UNL     1      -6.261  -2.087  -1.459  1.00  0.00    -0.237 NA
BRANCH  80  82
ATOM     82  O   UNL     1      -5.411  -0.235  -2.374  1.00  0.00    -0.495 OA
ATOM     83  H   UNL     1      -5.357   0.707  -2.576  1.00  0.00     0.295 HD
ENDBRANCH  80  82
BRANCH  81  84
ATOM     84  C   UNL     1      -7.076  -3.167  -0.909  1.00  0.00     0.234 C 
BRANCH  84  85
ATOM     85  C   UNL     1      -7.512  -3.124   0.605  1.00  0.00     0.258 C 
BRANCH  85  86
ATOM     86  O   UNL     1      -8.311  -2.003   0.865  1.00  0.00    -0.379 OA
ATOM     87  H   UNL     1      -9.140  -2.085   0.322  1.00  0.00     0.211 HD
ENDBRANCH  85  86
BRANCH  85  88
ATOM     88  C   UNL     1      -8.295  -4.377   1.029  1.00  0.00     0.335 C 
ATOM     89  O   UNL     1      -9.454  -4.270   1.399  1.00  0.00    -0.249 OA
BRANCH  88  90
ATOM     90  O   UNL     1      -7.740  -5.610   1.049  1.00  0.00    -0.479 OA
ATOM     91  H   UNL     1      -6.818  -5.790   0.838  1.00  0.00     0.296 HD
ENDBRANCH  88  90
ENDBRANCH  85  88
ENDBRANCH  84  85
BRANCH  84  92
ATOM     92  C   UNL     1      -6.279  -4.430  -1.239  1.00  0.00     0.210 C 
ATOM     93  N   UNL     1      -5.087  -4.675  -0.776  1.00  0.00    -0.238 NA
BRANCH  92  94
ATOM     94  O   UNL     1      -6.826  -5.345  -2.071  1.00  0.00    -0.495 OA
ATOM     95  H   UNL     1      -7.704  -5.233  -2.459  1.00  0.00     0.295 HD
ENDBRANCH  92  94
BRANCH  93  96
ATOM     96  C   UNL     1      -4.283  -3.841   0.111  1.00  0.00     0.223 CG0
ATOM     97  G   UNL     1      -2.904  -3.545  -0.465  1.00  0.00     0.000 G0
BRANCH  96  98
ATOM     98  C   UNL     1      -4.163  -4.495   1.508  1.00  0.00     0.193 C 
BRANCH  98  99
ATOM     99  O   UNL     1      -3.453  -3.662   2.385  1.00  0.00    -0.394 OA
ATOM    100  H   UNL     1      -2.490  -3.864   2.258  1.00  0.00     0.210 HD
ENDBRANCH  98  99
ENDBRANCH  96  98
ENDBRANCH  93  96
ENDBRANCH  84  92
ENDBRANCH  81  84
ENDBRANCH  68  80
ENDBRANCH  65  68
ENDBRANCH  61  64
ENDBRANCH  57  59
ENDBRANCH  54  57
ENDBRANCH  50  52
ENDBRANCH  45  50
ENDBRANCH   2  45
TORSDOF 33
