REMARK SMILES Cc1cc(Cc2cc(C)c3cc(C(C)C)ccc(C)c2-3)c2c(C)ccc(C(C)C)cc1-2
REMARK SMILES IDX 5 1 4 2 2 3 3 4 31 5 30 6 21 7 26 8 22 9 25 10 24 11 1 12
REMARK SMILES IDX 23 13 27 14 28 15 29 16 6 17 7 18 20 19 8 20 18 21 10 22
REMARK SMILES IDX 17 23 11 24 16 25 12 26 9 27 19 28 13 29 14 30 15 31
REMARK H PARENT
ROOT
ATOM      1  C   UNL     1      -0.089  -0.446   2.345  1.00  0.00     0.072 C 
ENDROOT
BRANCH   1   2
ATOM      2  C   UNL     1      -1.355   0.149   1.719  1.00  0.00    -0.035 A 
ATOM      3  C   UNL     1      -3.038   1.660   1.643  1.00  0.00    -0.043 A 
ATOM      4  C   UNL     1      -1.859   1.327   2.248  1.00  0.00     0.008 A 
ATOM      5  C   UNL     1      -3.365   0.685   0.713  1.00  0.00    -0.015 A 
ATOM      6  C   UNL     1      -4.562   0.728  -0.003  1.00  0.00     0.013 A 
ATOM      7  C   UNL     1      -2.272  -0.312   0.726  1.00  0.00    -0.012 A 
ATOM      8  C   UNL     1      -5.068  -0.194  -0.923  1.00  0.00    -0.045 A 
ATOM      9  C   UNL     1      -2.211  -1.488  -0.059  1.00  0.00    -0.043 A 
ATOM     10  C   UNL     1      -4.424  -1.366  -1.336  1.00  0.00     0.004 A 
ATOM     11  C   UNL     1      -3.196  -1.913  -0.971  1.00  0.00     0.004 A 
ATOM     12  C   UNL     1      -3.839   2.880   1.999  1.00  0.00     0.045 C 
ATOM     13  C   UNL     1      -1.023  -2.402   0.044  1.00  0.00     0.045 C 
BRANCH   8  14
ATOM     14  C   UNL     1      -6.460   0.104  -1.501  1.00  0.00     0.013 C 
ATOM     15  C   UNL     1      -6.424   0.266  -3.026  1.00  0.00     0.012 C 
ATOM     16  C   UNL     1      -7.469  -0.979  -1.086  1.00  0.00     0.012 C 
ENDBRANCH   8  14
ENDBRANCH   1   2
BRANCH   1  17
ATOM     17  C   UNL     1       1.227  -0.688   1.599  1.00  0.00    -0.035 A 
ATOM     18  C   UNL     1       1.714  -1.985   1.530  1.00  0.00     0.008 A 
ATOM     19  C   UNL     1       2.200   0.177   1.013  1.00  0.00    -0.012 A 
ATOM     20  C   UNL     1       2.936  -2.006   0.921  1.00  0.00    -0.043 A 
ATOM     21  C   UNL     1       2.171   1.587   0.888  1.00  0.00    -0.043 A 
ATOM     22  C   UNL     1       3.307  -0.710   0.596  1.00  0.00    -0.015 A 
ATOM     23  C   UNL     1       3.206   2.379   0.354  1.00  0.00     0.004 A 
ATOM     24  C   UNL     1       4.548  -0.424   0.027  1.00  0.00     0.013 A 
ATOM     25  C   UNL     1       4.461   2.053  -0.153  1.00  0.00     0.004 A 
ATOM     26  C   UNL     1       5.097   0.817  -0.309  1.00  0.00    -0.045 A 
ATOM     27  C   UNL     1       3.732  -3.260   0.697  1.00  0.00     0.045 C 
ATOM     28  C   UNL     1       0.967   2.361   1.343  1.00  0.00     0.045 C 
BRANCH  26  29
ATOM     29  C   UNL     1       6.522   0.841  -0.877  1.00  0.00     0.013 C 
ATOM     30  C   UNL     1       6.621   0.078  -2.205  1.00  0.00     0.012 C 
ATOM     31  C   UNL     1       7.534   0.296   0.145  1.00  0.00     0.012 C 
ENDBRANCH  26  29
ENDBRANCH   1  17
TORSDOF 4
