REMARK SMILES C[N@+]1([O-])CCc2c[nH]c3ccc(O)c(c23)C1
REMARK SMILES IDX 6 1 7 2 8 3 9 4 10 5 11 6 12 7 14 8 15 9 16 11 2 12 1 13
REMARK SMILES IDX 3 14 4 15 13 17 5 19
REMARK H PARENT 8 10 13 18
REMARK Flexibility Score:    8.900
ROOT
ATOM      1  C   UNL     1       0.607  -1.633   0.181  1.00  0.00    -0.016 A 
ATOM      2  C   UNL     1       1.727  -2.450   0.081  1.00  0.00     0.087 A 
ATOM      3  N   UNL     1       2.809  -1.718  -0.247  1.00  0.00    -0.361 N 
ATOM      4  C   UNL     1       2.384  -0.451  -0.367  1.00  0.00     0.046 A 
ATOM      5  C   UNL     1       3.171   0.650  -0.676  1.00  0.00     0.030 A 
ATOM      6  C   UNL     1       2.550   1.899  -0.749  1.00  0.00     0.049 A 
ATOM      7  C   UNL     1       1.158   2.027  -0.538  1.00  0.00     0.125 A 
ATOM      8  C   UNL     1       0.356   0.887  -0.242  1.00  0.00     0.058 A 
ATOM      9  C   UNL     1       1.026  -0.350  -0.138  1.00  0.00     0.015 A 
ATOM     10  H   UNL     1       3.784  -2.071  -0.370  1.00  0.00     0.166 HD
ENDROOT
BRANCH   8  11
ATOM     11  C   UNL     1      -1.143   1.112  -0.091  1.00  0.00     0.305 C 
BRANCH  11  12
ATOM     12  N   UNL     1      -2.037  -0.074  -0.101  1.00  0.00    -0.360 N 
ATOM     13  C   UNL     1      -3.429   0.406   0.046  1.00  0.00     0.335 C 
ATOM     14  O   UNL     1      -1.956  -0.681  -1.316  1.00  0.00    -0.633 OA
BRANCH  12  15
ATOM     15  C   UNL     1      -1.742  -1.045   0.981  1.00  0.00     0.269 CG0
ATOM     16  G   UNL     1      -0.733  -2.135   0.600  1.00  0.00     0.000 G0
ENDBRANCH  12  15
ENDBRANCH  11  12
ENDBRANCH   8  11
BRANCH   7  17
ATOM     17  O   UNL     1       0.584   3.246  -0.635  1.00  0.00    -0.507 OA
ATOM     18  H   UNL     1       1.093   4.043  -0.841  1.00  0.00     0.293 HD
ENDBRANCH   7  17
BRANCH   1  19
ATOM     19  C   UNL     1      -0.733  -2.135   0.600  1.00  0.00     0.099 CG0
ATOM     20  G   UNL     1      -1.742  -1.045   0.981  1.00  0.00     0.000 G0
ENDBRANCH   1  19
TORSDOF 1
