REMARK SMILES COc1ccc(S(=O)(=O)NC[C@H]2C[C@@H]3CCN2C[C@@H]3CN(C)CCc2ccccn2)cc1
REMARK SMILES IDX 12 1 13 2 14 3 15 4 16 5 17 6 18 7 19 8 11 9 10 10 7 12 8 13
REMARK SMILES IDX 9 14 6 15 3 16 4 17 32 18 5 19 31 20 2 21 1 22 20 23 21 24
REMARK SMILES IDX 22 25 23 26 24 27 25 28 26 29 30 30 27 31 29 32 28 33
REMARK H PARENT 10 11
ROOT
ATOM      1  C   UNL     1       0.908  -0.372   1.441  1.00  0.00     0.072 C 
ATOM      2  C   UNL     1      -0.092   0.164   0.365  1.00  0.00     0.024 C 
ATOM      3  C   UNL     1      -1.526   0.090   0.984  1.00  0.00    -0.003 C 
ATOM      4  C   UNL     1      -1.435   0.624   2.437  1.00  0.00     0.019 C 
ATOM      5  C   UNL     1      -0.637  -0.423   3.281  1.00  0.00     0.085 C 
ATOM      6  N   UNL     1       0.196  -1.280   2.387  1.00  0.00    -0.299 NA
ATOM      7  C   UNL     1      -0.708  -2.191   1.621  1.00  0.00     0.090 C 
ATOM      8  C   UNL     1      -1.951  -1.405   1.090  1.00  0.00     0.020 C 
ENDROOT
BRANCH   1   9
ATOM      9  C   UNL     1       2.193  -0.991   0.867  1.00  0.00     0.118 C 
BRANCH   9  10
ATOM     10  N   UNL     1       3.077  -1.404   1.964  1.00  0.00    -0.210 NA
ATOM     11  H   UNL     1       3.236  -0.595   2.608  1.00  0.00     0.141 HD
BRANCH  10  12
ATOM     12  S   UNL     1       4.671  -1.842   1.331  1.00  0.00     0.240 S 
ATOM     13  O   UNL     1       5.418  -2.433   2.536  1.00  0.00    -0.207 OA
ATOM     14  O   UNL     1       4.450  -3.086   0.457  1.00  0.00    -0.207 OA
BRANCH  12  15
ATOM     15  C   UNL     1       5.601  -0.539   0.524  1.00  0.00     0.082 A 
ATOM     16  C   UNL     1       7.022   1.536  -0.733  1.00  0.00     0.118 A 
ATOM     17  C   UNL     1       6.209   0.665  -1.489  1.00  0.00     0.048 A 
ATOM     18  C   UNL     1       7.114   1.351   0.652  1.00  0.00     0.048 A 
ATOM     19  C   UNL     1       5.505  -0.365  -0.859  1.00  0.00     0.025 A 
ATOM     20  C   UNL     1       6.407   0.321   1.280  1.00  0.00     0.025 A 
BRANCH  16  21
ATOM     21  O   UNL     1       7.721   2.556  -1.296  1.00  0.00    -0.497 OA
ATOM     22  C   UNL     1       7.720   2.888  -2.635  1.00  0.00     0.278 C 
ENDBRANCH  16  21
ENDBRANCH  12  15
ENDBRANCH  10  12
ENDBRANCH   9  10
ENDBRANCH   1   9
BRANCH   8  23
ATOM     23  C   UNL     1      -2.527  -1.992  -0.217  1.00  0.00     0.089 C 
BRANCH  23  24
ATOM     24  N   UNL     1      -3.812  -1.326  -0.547  1.00  0.00    -0.306 NA
ATOM     25  C   UNL     1      -4.952  -1.978   0.126  1.00  0.00     0.105 C 
BRANCH  24  26
ATOM     26  C   UNL     1      -4.052  -1.196  -2.003  1.00  0.00     0.090 C 
BRANCH  26  27
ATOM     27  C   UNL     1      -3.867   0.268  -2.422  1.00  0.00     0.071 C 
BRANCH  27  28
ATOM     28  C   UNL     1      -4.861   1.164  -1.725  1.00  0.00     0.042 A 
ATOM     29  C   UNL     1      -4.436   2.210  -0.890  1.00  0.00     0.024 A 
ATOM     30  N   UNL     1      -6.196   0.955  -1.906  1.00  0.00    -0.261 NA
ATOM     31  C   UNL     1      -5.387   3.011  -0.254  1.00  0.00     0.003 A 
ATOM     32  C   UNL     1      -7.136   1.726  -1.297  1.00  0.00     0.111 A 
ATOM     33  C   UNL     1      -6.747   2.770  -0.456  1.00  0.00     0.020 A 
ENDBRANCH  27  28
ENDBRANCH  26  27
ENDBRANCH  24  26
ENDBRANCH  23  24
ENDBRANCH   8  23
TORSDOF 10
