REMARK SMILES C1=CC=C2CC(=C1)C=CC=C2c1ccccc1
REMARK SMILES IDX 10 1 11 2 4 3 3 4 2 5 1 6 5 8 12 10 13 11 17 12 14 13 16 14
REMARK SMILES IDX 15 15 9 16 8 17 6 18 7 19
REMARK H PARENT
REMARK Flexibility Score:   12.800
ROOT
ATOM      1  C   UNL     1       0.338   1.556  -1.194  1.00  0.00     0.009 C 
ATOM      2  C   UNL     1      -0.257   0.650  -0.217  1.00  0.00    -0.015 C 
ENDROOT
BRANCH   2   3
ATOM      3  C   UNL     1       0.607  -0.030   0.674  1.00  0.00    -0.036 C 
ATOM      4  C   UNL     1       0.492  -1.220   1.415  1.00  0.00     0.005 C 
BRANCH   4   5
ATOM      5  C   UNL     1       1.655  -1.913   1.913  1.00  0.00     0.000 C 
ATOM      6  C   UNL     1       3.046  -1.728   1.530  1.00  0.00     0.000 CG0
ATOM      7  G   UNL     1       3.573  -0.816   0.551  1.00  0.00     0.000 G0
ENDBRANCH   4   5
BRANCH   3   8
ATOM      8  C   UNL     1       1.798   0.688   0.975  1.00  0.00     0.071 CG1
ATOM      9  G   UNL     1       2.785   0.220   0.062  1.00  0.00     0.000 G1
ENDBRANCH   3   8
ENDBRANCH   2   3
BRANCH   2  10
ATOM     10  C   UNL     1      -1.732   0.361  -0.274  1.00  0.00    -0.018 A 
ATOM     11  C   UNL     1      -2.433  -0.067   0.875  1.00  0.00     0.009 A 
ATOM     12  C   UNL     1      -2.467   0.530  -1.470  1.00  0.00     0.009 A 
ATOM     13  C   UNL     1      -3.806  -0.328   0.824  1.00  0.00     0.001 A 
ATOM     14  C   UNL     1      -3.839   0.263  -1.514  1.00  0.00     0.001 A 
ATOM     15  C   UNL     1      -4.507  -0.167  -0.369  1.00  0.00     0.000 A 
ENDBRANCH   2  10
BRANCH   1  16
ATOM     16  C   UNL     1       1.734   1.696  -1.592  1.00  0.00     0.001 C 
ATOM     17  C   UNL     1       2.877   0.973  -1.102  1.00  0.00     0.004 C 
BRANCH  17  18
ATOM     18  C   UNL     1       2.785   0.220   0.062  1.00  0.00    -0.044 CG1
ATOM     19  C   UNL     1       3.573  -0.816   0.551  1.00  0.00     0.004 CG0
ATOM     20  G   UNL     1       3.046  -1.728   1.530  1.00  0.00     0.000 G0
ATOM     21  G   UNL     1       1.798   0.688   0.975  1.00  0.00     0.000 G1
ENDBRANCH  17  18
ENDBRANCH   1  16
TORSDOF 1
