REMARK SMILES C[C@]12CC[C@H]3[C@@H](CCC4=CC(=O)CC[C@@]43C)[C@@H]1CC[C@H]2OC(=O)CCC(=O)N[C@H]1CCCCNC1=O
REMARK SMILES IDX 25 1 24 2 22 3 23 4 21 5 20 6 15 7 14 8 9 9 5 10 13 11 10 12
REMARK SMILES IDX 8 13 6 14 4 15 11 16 7 17 17 18 3 19 12 20 18 21 2 22 19 23
REMARK SMILES IDX 16 24 1 25 26 26 27 27 28 28 29 30 30 31 31 32 32 33 35 35
REMARK SMILES IDX 34 36 36 37 33 39
REMARK H PARENT 28 29 34 38
REMARK Flexibility Score:  275.900
ROOT
ATOM      1  C   UNL     1       3.707   0.584  -0.993  1.00  0.00     0.111 C 
ENDROOT
BRANCH   1   2
ATOM      2  C   UNL     1       2.279   0.389  -1.511  1.00  0.00     0.132 C 
BRANCH   2   3
ATOM      3  C   UNL     1       1.412   1.501  -1.015  1.00  0.00     0.306 C 
ATOM      4  O   UNL     1       1.639   2.648  -1.373  1.00  0.00    -0.252 OA
BRANCH   3   5
ATOM      5  O   UNL     1       0.423   1.209  -0.134  1.00  0.00    -0.462 OA
BRANCH   5   6
ATOM      6  C   UNL     1      -0.443   2.142   0.408  1.00  0.00     0.182 C 
ATOM      7  C   UNL     1      -5.662  -0.604   0.029  1.00  0.00    -0.008 C 
ATOM      8  C   UNL     1      -5.993  -1.670  -1.051  1.00  0.00     0.019 C 
ATOM      9  C   UNL     1      -6.147  -1.164   1.383  1.00  0.00    -0.060 C 
ATOM     10  C   UNL     1      -4.104  -0.317   0.049  1.00  0.00     0.002 C 
ATOM     11  C   UNL     1      -7.502  -1.965  -1.140  1.00  0.00     0.081 C 
ATOM     12  C   UNL     1      -7.338  -1.803   1.450  1.00  0.00     0.047 C 
ATOM     13  C   UNL     1      -5.492  -0.756   2.684  1.00  0.00     0.032 C 
ATOM     14  C   UNL     1      -3.690   0.406   1.379  1.00  0.00    -0.003 C 
ATOM     15  C   UNL     1      -3.611   0.442  -1.236  1.00  0.00     0.005 C 
ATOM     16  C   UNL     1      -8.110  -2.134   0.230  1.00  0.00     0.155 C 
ATOM     17  C   UNL     1      -3.987  -0.537   2.553  1.00  0.00     0.008 C 
ATOM     18  C   UNL     1      -2.196   0.792   1.327  1.00  0.00     0.002 C 
ATOM     19  C   UNL     1      -2.142   0.894  -1.153  1.00  0.00     0.011 C 
ATOM     20  O   UNL     1      -9.267  -2.507   0.332  1.00  0.00    -0.295 OA
ATOM     21  C   UNL     1      -1.635   1.579   2.505  1.00  0.00     0.008 C 
ATOM     22  C   UNL     1      -1.905   1.723   0.138  1.00  0.00     0.008 C 
ATOM     23  C   UNL     1      -0.304   2.109   1.957  1.00  0.00     0.046 C 
ATOM     24  C   UNL     1      -6.463   0.705  -0.247  1.00  0.00     0.016 C 
ATOM     25  C   UNL     1      -2.758   3.041   0.106  1.00  0.00     0.015 C 
ENDBRANCH   5   6
ENDBRANCH   3   5
ENDBRANCH   2   3
ENDBRANCH   1   2
BRANCH   1  26
ATOM     26  C   UNL     1       4.639  -0.519  -1.419  1.00  0.00     0.221 C 
ATOM     27  O   UNL     1       4.236  -1.433  -2.127  1.00  0.00    -0.275 OA
ATOM     28  N   UNL     1       5.936  -0.473  -1.005  1.00  0.00    -0.344 N 
ATOM     29  H   UNL     1       6.204   0.330  -0.431  1.00  0.00     0.164 HD
BRANCH  28  30
ATOM     30  C   UNL     1       6.939  -1.458  -1.399  1.00  0.00     0.171 C 
BRANCH  30  31
ATOM     31  C   UNL     1       8.061  -0.773  -2.221  1.00  0.00     0.035 C 
BRANCH  31  32
ATOM     32  C   UNL     1       9.433  -0.687  -1.539  1.00  0.00     0.004 C 
BRANCH  32  33
ATOM     33  C   UNL     1       9.521   0.090  -0.216  1.00  0.00     0.021 CG0
ATOM     34  G   UNL     1       8.572  -0.363   0.909  1.00  0.00     0.000 G0
ENDBRANCH  32  33
ENDBRANCH  31  32
ENDBRANCH  30  31
BRANCH  30  35
ATOM     35  C   UNL     1       7.451  -2.283  -0.213  1.00  0.00     0.242 C 
ATOM     36  N   UNL     1       8.191  -1.761   0.813  1.00  0.00    -0.354 N 
ATOM     37  O   UNL     1       7.192  -3.478  -0.196  1.00  0.00    -0.273 OA
ATOM     38  H   UNL     1       8.486  -2.388   1.579  1.00  0.00     0.163 HD
BRANCH  36  39
ATOM     39  C   UNL     1       8.572  -0.363   0.909  1.00  0.00     0.116 CG0
ATOM     40  G   UNL     1       9.521   0.090  -0.216  1.00  0.00     0.000 G0
ENDBRANCH  36  39
ENDBRANCH  30  35
ENDBRANCH  28  30
ENDBRANCH   1  26
TORSDOF 6
