REMARK SMILES CC1=C[C@H]2[C@H](C(C)C)CC[C@@](C)(O)[C@H]2CC1
REMARK SMILES IDX 1 1 2 2 3 3 4 4 14 5 15 6 16 7 11 8 12 9 10 10 9 11 5 12
REMARK SMILES IDX 6 13 7 14 8 15 13 16
REMARK H PARENT 13 17
ROOT
ATOM      1  C   UNL     1      -0.338   4.006   0.651  1.00  0.00     0.039 C 
ATOM      2  C   UNL     1      -0.546   2.546   0.354  1.00  0.00    -0.077 C 
ATOM      3  C   UNL     1       0.330   1.861  -0.405  1.00  0.00    -0.024 C 
ATOM      4  C   UNL     1       0.119   0.395  -0.755  1.00  0.00     0.021 C 
ATOM      5  C   UNL     1      -1.422  -0.018  -0.797  1.00  0.00     0.028 C 
ATOM      6  C   UNL     1      -2.388   1.101  -0.301  1.00  0.00     0.011 C 
ATOM      7  C   UNL     1      -1.776   1.847   0.875  1.00  0.00     0.031 C 
ATOM      8  C   UNL     1      -1.710  -1.448  -0.183  1.00  0.00     0.065 C 
ATOM      9  C   UNL     1      -3.067  -2.015  -0.675  1.00  0.00     0.042 C 
ATOM     10  C   UNL     1      -0.600  -2.385  -0.688  1.00  0.00     0.035 C 
ATOM     11  C   UNL     1       0.786  -2.007  -0.133  1.00  0.00     0.007 C 
ATOM     12  C   UNL     1       0.948  -0.498   0.213  1.00  0.00    -0.001 C 
ENDROOT
BRANCH  12  13
ATOM     13  C   UNL     1       2.453  -0.081   0.378  1.00  0.00    -0.014 C 
ATOM     14  C   UNL     1       3.252  -0.125  -0.937  1.00  0.00     0.007 C 
ATOM     15  C   UNL     1       3.163  -0.924   1.449  1.00  0.00     0.007 C 
ENDBRANCH  12  13
BRANCH   8  16
ATOM     16  O   UNL     1      -1.687  -1.441   1.226  1.00  0.00    -0.390 OA
ATOM     17  H   UNL     1      -2.510  -0.991   1.548  1.00  0.00     0.211 HD
ENDBRANCH   8  16
TORSDOF 2
