REMARK SMILES Cc1c(O)cc2oc(-c3ccc(O)cc3)c(O[C@@H]3O[C@H](CO)[C@@H](O)[C@H](O)[C@H]3O)c(=O)c2c1O
REMARK SMILES IDX 17 1 16 2 2 3 3 4 32 5 5 6 31 7 6 8 29 9 7 10 30 11 8 12
REMARK SMILES IDX 1 13 4 14 33 16 9 18 10 19 15 20 11 21 14 22 12 23 13 24
REMARK SMILES IDX 18 26 19 27 27 28 20 29 25 30 23 31 28 32 21 34 22 35 26 37
REMARK SMILES IDX 24 39
REMARK H PARENT 4 15 33 17 13 25 28 33 22 36 26 38 24 40
ROOT
ATOM      1  O   UNL     1      -0.721  -0.927   0.516  1.00  0.00    -0.454 OA
ENDROOT
BRANCH   1   2
ATOM      2  C   UNL     1       0.614  -0.710   0.445  1.00  0.00     0.214 A 
ATOM      3  C   UNL     1       5.068  -1.877  -1.281  1.00  0.00     0.034 A 
ATOM      4  C   UNL     1       5.567  -0.772  -0.548  1.00  0.00     0.125 A 
ATOM      5  C   UNL     1       3.683  -2.175  -1.246  1.00  0.00     0.137 A 
ATOM      6  C   UNL     1       4.691   0.009   0.199  1.00  0.00     0.094 A 
ATOM      7  C   UNL     1       2.792  -1.363  -0.471  1.00  0.00     0.111 A 
ATOM      8  C   UNL     1       3.329  -0.272   0.246  1.00  0.00     0.146 A 
ATOM      9  C   UNL     1       1.395  -1.563  -0.354  1.00  0.00     0.239 A 
ATOM     10  O   UNL     1       2.557   0.508   0.991  1.00  0.00    -0.452 OA
ATOM     11  O   UNL     1       0.838  -2.479  -0.929  1.00  0.00    -0.285 OA
ATOM     12  C   UNL     1       1.246   0.346   1.144  1.00  0.00     0.180 A 
ATOM     13  C   UNL     1       5.958  -2.777  -2.115  1.00  0.00     0.052 C 
BRANCH   4  14
ATOM     14  O   UNL     1       6.874  -0.419  -0.526  1.00  0.00    -0.507 OA
ATOM     15  H   UNL     1       7.589  -0.862  -0.991  1.00  0.00     0.293 HD
ENDBRANCH   4  14
BRANCH   5  16
ATOM     16  O   UNL     1       3.275  -3.246  -1.973  1.00  0.00    -0.507 OA
ATOM     17  H   UNL     1       2.383  -3.590  -2.071  1.00  0.00     0.293 HD
ENDBRANCH   5  16
BRANCH  12  18
ATOM     18  C   UNL     1       0.560   1.316   2.064  1.00  0.00     0.021 A 
ATOM     19  C   UNL     1       1.258   2.482   2.451  1.00  0.00     0.016 A 
ATOM     20  C   UNL     1      -0.737   1.124   2.590  1.00  0.00     0.016 A 
ATOM     21  C   UNL     1       0.678   3.423   3.305  1.00  0.00     0.047 A 
ATOM     22  C   UNL     1      -1.314   2.068   3.445  1.00  0.00     0.047 A 
ATOM     23  C   UNL     1      -0.613   3.220   3.802  1.00  0.00     0.115 A 
BRANCH  23  24
ATOM     24  O   UNL     1      -1.187   4.119   4.628  1.00  0.00    -0.508 OA
ATOM     25  H   UNL     1      -0.732   4.928   4.902  1.00  0.00     0.293 HD
ENDBRANCH  23  24
ENDBRANCH  12  18
ENDBRANCH   1   2
BRANCH   1  26
ATOM     26  C   UNL     1      -1.636  -0.457  -0.414  1.00  0.00     0.339 C 
ATOM     27  O   UNL     1      -2.571   0.371   0.245  1.00  0.00    -0.332 OA
ATOM     28  C   UNL     1      -2.366  -1.659  -1.088  1.00  0.00     0.214 C 
ATOM     29  C   UNL     1      -3.416   1.077  -0.669  1.00  0.00     0.179 C 
ATOM     30  C   UNL     1      -3.787  -1.249  -1.597  1.00  0.00     0.180 C 
ATOM     31  C   UNL     1      -3.785   0.247  -1.962  1.00  0.00     0.177 C 
BRANCH  28  32
ATOM     32  O   UNL     1      -1.579  -2.194  -2.126  1.00  0.00    -0.384 OA
ATOM     33  H   UNL     1      -1.405  -1.482  -2.792  1.00  0.00     0.211 HD
ENDBRANCH  28  32
BRANCH  29  34
ATOM     34  C   UNL     1      -4.676   1.502   0.115  1.00  0.00     0.191 C 
BRANCH  34  35
ATOM     35  O   UNL     1      -5.531   2.277  -0.684  1.00  0.00    -0.394 OA
ATOM     36  H   UNL     1      -5.138   3.188  -0.722  1.00  0.00     0.210 HD
ENDBRANCH  34  35
ENDBRANCH  29  34
BRANCH  30  37
ATOM     37  O   UNL     1      -4.788  -1.505  -0.636  1.00  0.00    -0.387 OA
ATOM     38  H   UNL     1      -4.396  -1.476   0.276  1.00  0.00     0.211 HD
ENDBRANCH  30  37
BRANCH  31  39
ATOM     39  O   UNL     1      -2.836   0.440  -2.984  1.00  0.00    -0.387 OA
ATOM     40  H   UNL     1      -2.644   1.409  -3.056  1.00  0.00     0.211 HD
ENDBRANCH  31  39
ENDBRANCH   1  26
TORSDOF 11
