REMARK SMILES C[C@]12CC[C@@H](O)C=C1CC[C@@H]1[C@H]2CC[C@]2(C)C(=O)CC[C@H]12
REMARK SMILES IDX 1 1 2 2 3 3 4 4 5 5 7 6 8 7 9 8 10 9 11 10 12 11 13 12 14 13
REMARK SMILES IDX 15 14 16 15 17 16 18 17 19 18 20 19 21 20 6 21
REMARK H PARENT 6 22
ROOT
ATOM      1  C   UNL     1       2.535   0.726  -1.655  1.00  0.00     0.016 C 
ATOM      2  C   UNL     1       1.526   0.158  -0.599  1.00  0.00    -0.008 C 
ATOM      3  C   UNL     1       1.721   0.922   0.746  1.00  0.00     0.014 C 
ATOM      4  C   UNL     1       3.143   0.710   1.294  1.00  0.00     0.037 C 
ATOM      5  C   UNL     1       3.429  -0.788   1.534  1.00  0.00     0.137 C 
ATOM      6  C   UNL     1       2.774  -1.722   0.529  1.00  0.00     0.004 C 
ATOM      7  C   UNL     1       1.881  -1.318  -0.408  1.00  0.00    -0.065 C 
ATOM      8  C   UNL     1       1.078  -2.363  -1.162  1.00  0.00     0.031 C 
ATOM      9  C   UNL     1      -0.360  -2.242  -0.637  1.00  0.00     0.008 C 
ATOM     10  C   UNL     1      -0.986  -0.841  -0.880  1.00  0.00    -0.003 C 
ATOM     11  C   UNL     1       0.076   0.260  -1.246  1.00  0.00     0.002 C 
ATOM     12  C   UNL     1      -0.561   1.669  -1.354  1.00  0.00     0.006 C 
ATOM     13  C   UNL     1      -1.437   2.005  -0.137  1.00  0.00     0.015 C 
ATOM     14  C   UNL     1      -2.598   0.981   0.035  1.00  0.00     0.029 C 
ATOM     15  C   UNL     1      -3.638   1.075  -1.104  1.00  0.00     0.020 C 
ATOM     16  C   UNL     1      -3.259   1.198   1.369  1.00  0.00     0.139 C 
ATOM     17  O   UNL     1      -3.973   2.153   1.633  1.00  0.00    -0.299 OA
ATOM     18  C   UNL     1      -2.965   0.101   2.337  1.00  0.00     0.076 C 
ATOM     19  C   UNL     1      -1.765  -0.580   1.677  1.00  0.00     0.013 C 
ATOM     20  C   UNL     1      -2.072  -0.470   0.181  1.00  0.00     0.006 C 
ENDROOT
BRANCH   5  21
ATOM     21  O   UNL     1       2.996  -1.154   2.821  1.00  0.00    -0.389 OA
ATOM     22  H   UNL     1       2.008  -1.059   2.855  1.00  0.00     0.211 HD
ENDBRANCH   5  21
TORSDOF 1
