REMARK SMILES COn1cc(CCO)c2ccccc21
REMARK SMILES IDX 6 1 5 2 3 3 4 4 14 5 13 6 9 7 12 8 10 9 11 10 2 11 1 12 7 13
REMARK SMILES IDX 8 14
REMARK H PARENT 8 15
ROOT
ATOM      1  C   UNL     1      -2.440  -0.635   0.742  1.00  0.00     0.066 C 
ENDROOT
BRANCH   1   2
ATOM      2  C   UNL     1      -0.952  -0.544   0.550  1.00  0.00    -0.016 A 
ATOM      3  N   UNL     1       1.200  -1.172   0.401  1.00  0.00    -0.191 N 
ATOM      4  C   UNL     1      -0.059  -1.601   0.639  1.00  0.00     0.134 A 
ATOM      5  C   UNL     1       1.124   0.167   0.168  1.00  0.00     0.087 A 
ATOM      6  C   UNL     1       2.138   1.096  -0.124  1.00  0.00     0.030 A 
ATOM      7  C   UNL     1      -0.192   0.575   0.259  1.00  0.00     0.006 A 
ATOM      8  C   UNL     1       1.775   2.441  -0.316  1.00  0.00     0.002 A 
ATOM      9  C   UNL     1      -0.571   1.907   0.078  1.00  0.00     0.011 A 
ATOM     10  C   UNL     1       0.430   2.844  -0.213  1.00  0.00     0.001 A 
BRANCH   3  11
ATOM     11  O   UNL     1       2.249  -2.008   0.417  1.00  0.00    -0.417 OA
ATOM     12  C   UNL     1       3.559  -1.673   0.169  1.00  0.00     0.313 C 
ENDBRANCH   3  11
ENDBRANCH   1   2
BRANCH   1  13
ATOM     13  C   UNL     1      -3.191  -0.322  -0.555  1.00  0.00     0.161 C 
BRANCH  13  14
ATOM     14  O   UNL     1      -4.574  -0.422  -0.349  1.00  0.00    -0.396 OA
ATOM     15  H   UNL     1      -4.799  -1.389  -0.392  1.00  0.00     0.210 HD
ENDBRANCH  13  14
ENDBRANCH   1  13
TORSDOF 4
