REMARK SMILES COc1cc2c(cc1O)[C@@H]1Cc3cc(OC)c(OC)cc3[N@+]1(C)CC2
REMARK SMILES IDX 3 1 4 2 5 3 6 4 7 5 8 6 10 7 11 8 12 9 13 10 14 11 17 12
REMARK SMILES IDX 20 13 21 14 22 15 23 16 24 17 25 18 2 19 1 20 9 21 15 23
REMARK SMILES IDX 16 24 18 25 19 26
REMARK H PARENT 9 22
ROOT
ATOM      1  C   UNL     1       3.646  -0.018  -1.358  1.00  0.00     0.160 A 
ATOM      2  C   UNL     1       3.452   0.499  -0.065  1.00  0.00     0.054 A 
ATOM      3  C   UNL     1       2.446  -0.021   0.759  1.00  0.00    -0.029 A 
ATOM      4  C   UNL     1       1.604  -1.053   0.321  1.00  0.00     0.017 A 
ATOM      5  C   UNL     1       1.789  -1.551  -0.990  1.00  0.00     0.060 A 
ATOM      6  C   UNL     1       2.806  -1.042  -1.815  1.00  0.00     0.158 A 
ATOM      7  C   UNL     1       0.523  -1.521   1.333  1.00  0.00     0.226 C 
ATOM      8  C   UNL     1      -0.579  -2.385   0.666  1.00  0.00     0.112 C 
ATOM      9  C   UNL     1      -1.455  -1.297   0.172  1.00  0.00     0.023 A 
ATOM     10  C   UNL     1      -2.461  -1.361  -0.786  1.00  0.00     0.060 A 
ATOM     11  C   UNL     1      -3.215  -0.198  -1.062  1.00  0.00     0.161 A 
ATOM     12  C   UNL     1      -2.948   0.998  -0.354  1.00  0.00     0.166 A 
ATOM     13  C   UNL     1      -1.929   1.023   0.630  1.00  0.00     0.118 A 
ATOM     14  C   UNL     1      -1.185  -0.140   0.877  1.00  0.00     0.140 A 
ATOM     15  N   UNL     1      -0.180  -0.326   1.887  1.00  0.00    -0.286 N 
ATOM     16  C   UNL     1      -0.890  -0.664   3.137  1.00  0.00     0.341 C 
ATOM     17  C   UNL     1       0.685   0.861   2.202  1.00  0.00     0.274 C 
ATOM     18  C   UNL     1       2.185   0.536   2.115  1.00  0.00     0.098 C 
ENDROOT
BRANCH   1  19
ATOM     19  O   UNL     1       4.621   0.443  -2.187  1.00  0.00    -0.493 OA
ATOM     20  C   UNL     1       5.543   1.424  -1.882  1.00  0.00     0.278 C 
ENDBRANCH   1  19
BRANCH   6  21
ATOM     21  O   UNL     1       2.985  -1.536  -3.059  1.00  0.00    -0.504 OA
ATOM     22  H   UNL     1       2.433  -2.245  -3.419  1.00  0.00     0.293 HD
ENDBRANCH   6  21
BRANCH  11  23
ATOM     23  O   UNL     1      -4.215  -0.188  -1.983  1.00  0.00    -0.493 OA
ATOM     24  C   UNL     1      -4.632  -1.268  -2.734  1.00  0.00     0.278 C 
ENDBRANCH  11  23
BRANCH  12  25
ATOM     25  O   UNL     1      -3.705   2.091  -0.635  1.00  0.00    -0.493 OA
ATOM     26  C   UNL     1      -3.596   3.328  -0.032  1.00  0.00     0.278 C 
ENDBRANCH  12  25
TORSDOF 4
