REMARK SMILES CC(C)[C@H]1[C@H]2OC(=O)[C@@H]1[C@]1(O)CC[C@H]3CN4CCO[C@]24[C@]31C
REMARK SMILES IDX 4 1 5 2 6 3 7 4 8 5 9 6 10 7 12 8 13 9 14 10 15 11 16 12
REMARK SMILES IDX 17 13 18 14 19 15 20 16 21 17 22 18 2 19 1 20 3 21 11 22
REMARK H PARENT 11 23
ROOT
ATOM      1  C   UNL     1       1.560  -0.123   0.482  1.00  0.00     0.054 C 
ATOM      2  C   UNL     1       0.822   0.821  -0.546  1.00  0.00     0.228 C 
ATOM      3  O   UNL     1       1.129   0.142  -1.716  1.00  0.00    -0.457 OA
ATOM      4  C   UNL     1       1.310  -1.198  -1.454  1.00  0.00     0.312 C 
ATOM      5  O   UNL     1       1.764  -1.983  -2.273  1.00  0.00    -0.252 OA
ATOM      6  C   UNL     1       1.046  -1.524  -0.022  1.00  0.00     0.139 C 
ATOM      7  C   UNL     1      -0.522  -1.615   0.357  1.00  0.00     0.088 C 
ATOM      8  C   UNL     1      -1.601  -2.716   0.277  1.00  0.00     0.037 C 
ATOM      9  C   UNL     1      -2.889  -1.862   0.676  1.00  0.00     0.009 C 
ATOM     10  C   UNL     1      -2.753  -0.607  -0.211  1.00  0.00     0.016 C 
ATOM     11  C   UNL     1      -3.046   0.908  -0.068  1.00  0.00     0.092 C 
ATOM     12  N   UNL     1      -1.836   1.628  -0.669  1.00  0.00    -0.269 NA
ATOM     13  C   UNL     1      -1.580   2.893  -0.006  1.00  0.00     0.116 C 
ATOM     14  C   UNL     1      -1.069   2.489   1.358  1.00  0.00     0.178 C 
ATOM     15  O   UNL     1      -0.730   1.122   1.253  1.00  0.00    -0.354 OA
ATOM     16  C   UNL     1      -0.745   0.805  -0.140  1.00  0.00     0.167 C 
ATOM     17  C   UNL     1      -1.282  -0.575  -0.525  1.00  0.00     0.048 C 
ATOM     18  C   UNL     1      -1.364  -0.810  -2.136  1.00  0.00     0.019 C 
ENDROOT
BRANCH   1  19
ATOM     19  C   UNL     1       3.130   0.045   0.573  1.00  0.00    -0.009 C 
ATOM     20  C   UNL     1       3.485   1.435   1.137  1.00  0.00     0.008 C 
ATOM     21  C   UNL     1       3.957  -0.193  -0.703  1.00  0.00     0.008 C 
ENDBRANCH   1  19
BRANCH   7  22
ATOM     22  O   UNL     1      -0.544  -1.295   1.739  1.00  0.00    -0.388 OA
ATOM     23  H   UNL     1      -0.093  -2.034   2.229  1.00  0.00     0.211 HD
ENDBRANCH   7  22
TORSDOF 2
