REMARK SMILES C=C1C(=O)O[C@@H]2C[C@@]3(C)CCCC(=O)[C@@H]3C[C@H]12
REMARK SMILES IDX 1 1 2 2 3 3 4 4 5 5 6 6 7 7 8 8 9 9 10 10 11 11 12 12 13 13
REMARK SMILES IDX 14 14 15 15 16 16 17 17
REMARK H PARENT
ROOT
ATOM      1  C   UNL     1       4.034   0.919  -1.068  1.00  0.00     0.021 C 
ATOM      2  C   UNL     1       3.170   0.130  -0.423  1.00  0.00     0.037 C 
ATOM      3  C   UNL     1       3.125  -1.328  -0.435  1.00  0.00     0.334 C 
ATOM      4  O   UNL     1       3.854  -2.054  -1.090  1.00  0.00    -0.247 OA
ATOM      5  O   UNL     1       2.109  -1.784   0.325  1.00  0.00    -0.458 OA
ATOM      6  C   UNL     1       1.680  -0.752   1.138  1.00  0.00     0.185 C 
ATOM      7  C   UNL     1       0.241  -0.851   1.687  1.00  0.00     0.053 C 
ATOM      8  C   UNL     1      -0.854  -0.492   0.650  1.00  0.00    -0.019 C 
ATOM      9  C   UNL     1      -0.923  -1.601  -0.441  1.00  0.00     0.012 C 
ATOM     10  C   UNL     1      -2.237  -0.400   1.377  1.00  0.00     0.008 C 
ATOM     11  C   UNL     1      -3.367   0.088   0.440  1.00  0.00     0.008 C 
ATOM     12  C   UNL     1      -3.016   1.450  -0.174  1.00  0.00     0.076 C 
ATOM     13  C   UNL     1      -1.660   1.372  -0.818  1.00  0.00     0.136 C 
ATOM     14  O   UNL     1      -1.505   1.639  -2.000  1.00  0.00    -0.299 OA
ATOM     15  C   UNL     1      -0.518   0.925   0.066  1.00  0.00     0.063 C 
ATOM     16  C   UNL     1       0.855   0.935  -0.632  1.00  0.00     0.024 C 
ATOM     17  C   UNL     1       1.979   0.558   0.367  1.00  0.00     0.068 C 
ENDROOT
TORSDOF 0
