REMARK SMILES CCS(=O)(=O)N1CCC2(CC1)OC(=O)C(C)=C2C(=O)NC[C@H](C)c1ccccc1
REMARK SMILES IDX 6 1 7 2 8 3 9 4 10 5 11 6 12 7 13 8 14 9 15 10 16 11 17 12
REMARK SMILES IDX 3 13 4 14 5 15 2 16 1 17 18 18 19 19 20 20 21 22 22 23 23 24
REMARK SMILES IDX 24 25 25 26 29 27 26 28 28 29 27 30
REMARK H PARENT 20 21
ROOT
ATOM      1  N   UNL     1       3.288  -0.834   1.040  1.00  0.00    -0.202 NA
ATOM      2  C   UNL     1       2.340   0.272   1.325  1.00  0.00     0.106 C 
ATOM      3  C   UNL     1       1.835   0.977   0.048  1.00  0.00     0.071 C 
ATOM      4  C   UNL     1       1.398   0.035  -1.122  1.00  0.00     0.146 C 
ATOM      5  C   UNL     1       1.974  -1.389  -0.954  1.00  0.00     0.071 C 
ATOM      6  C   UNL     1       3.375  -1.319  -0.351  1.00  0.00     0.106 C 
ATOM      7  O   UNL     1       1.948   0.579  -2.276  1.00  0.00    -0.450 OA
ATOM      8  C   UNL     1       1.001   0.862  -3.173  1.00  0.00     0.335 C 
ATOM      9  O   UNL     1       1.234   1.351  -4.267  1.00  0.00    -0.247 OA
ATOM     10  C   UNL     1      -0.300   0.495  -2.677  1.00  0.00     0.047 C 
ATOM     11  C   UNL     1      -1.585   0.658  -3.446  1.00  0.00     0.053 C 
ATOM     12  C   UNL     1      -0.121  -0.006  -1.440  1.00  0.00     0.071 C 
ENDROOT
BRANCH   1  13
ATOM     13  S   UNL     1       4.880  -0.646   1.815  1.00  0.00     0.213 S 
ATOM     14  O   UNL     1       4.586  -0.834   3.311  1.00  0.00    -0.212 OA
ATOM     15  O   UNL     1       5.628  -1.956   1.522  1.00  0.00    -0.212 OA
BRANCH  13  16
ATOM     16  C   UNL     1       5.924   0.822   1.538  1.00  0.00     0.151 C 
ATOM     17  C   UNL     1       6.305   0.967   0.073  1.00  0.00     0.022 C 
ENDBRANCH  13  16
ENDBRANCH   1  13
BRANCH  12  18
ATOM     18  C   UNL     1      -1.259  -0.524  -0.594  1.00  0.00     0.251 C 
ATOM     19  O   UNL     1      -2.378  -0.554  -1.077  1.00  0.00    -0.270 OA
ATOM     20  N   UNL     1      -1.068  -0.993   0.668  1.00  0.00    -0.352 N 
ATOM     21  H   UNL     1      -0.120  -1.024   1.037  1.00  0.00     0.163 HD
BRANCH  20  22
ATOM     22  C   UNL     1      -2.113  -1.524   1.537  1.00  0.00     0.124 C 
BRANCH  22  23
ATOM     23  C   UNL     1      -3.098  -0.445   2.068  1.00  0.00     0.035 C 
ATOM     24  C   UNL     1      -3.933  -1.015   3.226  1.00  0.00     0.014 C 
BRANCH  23  25
ATOM     25  C   UNL     1      -4.034   0.099   1.004  1.00  0.00    -0.043 A 
ATOM     26  C   UNL     1      -4.939  -0.748   0.331  1.00  0.00     0.004 A 
ATOM     27  C   UNL     1      -4.013   1.468   0.675  1.00  0.00     0.004 A 
ATOM     28  C   UNL     1      -5.794  -0.237  -0.650  1.00  0.00     0.000 A 
ATOM     29  C   UNL     1      -4.872   1.973  -0.306  1.00  0.00     0.000 A 
ATOM     30  C   UNL     1      -5.760   1.122  -0.969  1.00  0.00     0.000 A 
ENDBRANCH  23  25
ENDBRANCH  22  23
ENDBRANCH  20  22
ENDBRANCH  12  18
TORSDOF 6
