REMARK SMILES C/C=C(\CCO)C(=O)OC(C)(C)[C@]1(Cc2ccc(N)[nH+]c2)Cc2cc3ccc(=O)oc3cc2O1
REMARK SMILES IDX 9 1 7 2 8 3 3 4 2 5 1 6 4 7 5 8 6 9 10 11 11 12 12 13 13 14
REMARK SMILES IDX 22 15 34 16 23 17 33 18 24 19 32 20 25 21 31 22 26 23 30 24
REMARK SMILES IDX 27 25 28 26 29 27 14 28 15 29 16 30 21 31 17 32 20 33 18 34
REMARK SMILES IDX 19 36
REMARK H PARENT 6 10 20 35 19 37 19 38
ROOT
ATOM      1  O   UNL     1       1.934  -0.421  -0.108  1.00  0.00    -0.452 OA
ENDROOT
BRANCH   1   2
ATOM      2  C   UNL     1       3.230  -0.719  -0.446  1.00  0.00     0.334 C 
ATOM      3  O   UNL     1       3.676  -1.839  -0.239  1.00  0.00    -0.247 OA
BRANCH   2   4
ATOM      4  C   UNL     1       4.108   0.288  -1.126  1.00  0.00     0.035 C 
ATOM      5  C   UNL     1       5.351  -0.102  -1.524  1.00  0.00    -0.019 C 
ATOM      6  C   UNL     1       6.348   0.778  -2.224  1.00  0.00     0.036 C 
BRANCH   4   7
ATOM      7  C   UNL     1       3.596   1.700  -1.389  1.00  0.00     0.071 C 
BRANCH   7   8
ATOM      8  C   UNL     1       3.490   2.544  -0.114  1.00  0.00     0.161 C 
BRANCH   8   9
ATOM      9  O   UNL     1       2.547   2.030   0.781  1.00  0.00    -0.396 OA
ATOM     10  H   UNL     1       1.663   2.322   0.441  1.00  0.00     0.210 HD
ENDBRANCH   8   9
ENDBRANCH   7   8
ENDBRANCH   4   7
ENDBRANCH   2   4
ENDBRANCH   1   2
BRANCH   1  11
ATOM     11  C   UNL     1       0.960  -1.301   0.388  1.00  0.00     0.147 C 
ATOM     12  C   UNL     1       0.732  -2.419  -0.664  1.00  0.00     0.061 C 
ATOM     13  C   UNL     1       1.454  -1.925   1.720  1.00  0.00     0.061 C 
BRANCH  11  14
ATOM     14  C   UNL     1      -0.374  -0.473   0.649  1.00  0.00     0.156 C 
ATOM     15  C   UNL     1      -0.877   0.238  -0.652  1.00  0.00     0.092 C 
ATOM     16  O   UNL     1      -0.127   0.590   1.513  1.00  0.00    -0.482 OA
ATOM     17  C   UNL     1      -1.418   1.491  -0.086  1.00  0.00    -0.001 A 
ATOM     18  C   UNL     1      -0.892   1.639   1.166  1.00  0.00     0.127 A 
ATOM     19  C   UNL     1      -2.252   2.452  -0.655  1.00  0.00     0.019 A 
ATOM     20  C   UNL     1      -1.176   2.756   1.951  1.00  0.00     0.094 A 
ATOM     21  C   UNL     1      -2.582   3.581   0.119  1.00  0.00     0.018 A 
ATOM     22  C   UNL     1      -2.040   3.735   1.428  1.00  0.00     0.142 A 
ATOM     23  C   UNL     1      -3.444   4.570  -0.361  1.00  0.00     0.019 A 
ATOM     24  O   UNL     1      -2.356   4.800   2.160  1.00  0.00    -0.423 OA
ATOM     25  C   UNL     1      -3.749   5.665   0.447  1.00  0.00     0.094 A 
ATOM     26  C   UNL     1      -3.178   5.751   1.722  1.00  0.00     0.336 A 
ATOM     27  O   UNL     1      -3.436   6.700   2.439  1.00  0.00    -0.246 OA
BRANCH  14  28
ATOM     28  C   UNL     1      -1.543  -1.272   1.374  1.00  0.00     0.092 C 
BRANCH  28  29
ATOM     29  C   UNL     1      -2.172  -2.485   0.715  1.00  0.00    -0.004 A 
ATOM     30  C   UNL     1      -1.943  -3.767   1.244  1.00  0.00     0.016 A 
ATOM     31  C   UNL     1      -3.034  -2.372  -0.390  1.00  0.00     0.201 A 
ATOM     32  C   UNL     1      -2.521  -4.889   0.653  1.00  0.00     0.098 A 
ATOM     33  N   UNL     1      -3.593  -3.481  -0.949  1.00  0.00    -0.248 N 
ATOM     34  C   UNL     1      -3.350  -4.729  -0.463  1.00  0.00     0.270 A 
ATOM     35  H   UNL     1      -4.227  -3.360  -1.771  1.00  0.00     0.311 HD
BRANCH  34  36
ATOM     36  N   UNL     1      -3.943  -5.860  -1.075  1.00  0.00    -0.287 N 
ATOM     37  H   UNL     1      -3.767  -6.809  -0.715  1.00  0.00     0.302 HD
ATOM     38  H   UNL     1      -4.557  -5.747  -1.895  1.00  0.00     0.302 HD
ENDBRANCH  34  36
ENDBRANCH  28  29
ENDBRANCH  14  28
ENDBRANCH  11  14
ENDBRANCH   1  11
TORSDOF 10
