REMARK SMILES C/C=C(/C)C(=O)O[C@@H]1[C@H](C)[C@H](OC(C)=O)[C@H]2[C@@H]1[C@H](OC(C)=O)[C@]1(C)O[C@H](O)[C@@]3([C@@H]2OC(C)=O)[C@H](OC(=O)/C(C)=C/C)C[C@H]2[C@@H]([C@@H]13)C2(C)C
REMARK SMILES IDX 29 1 16 2 8 3 9 4 17 5 11 6 10 7 7 9 5 10 6 11 3 12 2 13
REMARK SMILES IDX 1 14 4 15 12 16 13 17 15 18 14 19 28 20 26 21 34 22 45 23
REMARK SMILES IDX 25 24 42 25 44 26 23 27 43 28 46 29 24 30 47 31 48 32 27 33
REMARK SMILES IDX 35 35 36 36 37 37 38 38 40 39 39 40 41 41 18 42 19 44 20 45
REMARK SMILES IDX 22 46 21 47 30 48 31 49 33 50 32 51
REMARK H PARENT 27 34
REMARK Flexibility Score:   33.900
ROOT
ATOM      1  C   UNL     1      -0.789  -1.069  -0.262  1.00  0.00     0.199 C 
ENDROOT
BRANCH   1   2
ATOM      2  C   UNL     1       0.788  -1.095  -0.293  1.00  0.00     0.083 C 
ATOM      3  C   UNL     1       3.097  -0.787   0.059  1.00  0.00     0.191 C 
ATOM      4  C   UNL     1       2.960  -0.766  -1.472  1.00  0.00     0.069 C 
ATOM      5  C   UNL     1       1.736  -0.296   0.627  1.00  0.00     0.085 CG0
ATOM      6  C   UNL     1       1.463  -1.135  -1.702  1.00  0.00     0.190 C 
ATOM      7  C   UNL     1       3.411   0.543  -2.157  1.00  0.00     0.015 C 
ATOM      8  G   UNL     1       1.496   1.239   0.660  1.00  0.00     0.000 G0
BRANCH   3   9
ATOM      9  O   UNL     1       4.235  -0.158   0.554  1.00  0.00    -0.458 OA
BRANCH   9  10
ATOM     10  C   UNL     1       5.219  -0.794   1.264  1.00  0.00     0.333 C 
ATOM     11  O   UNL     1       5.095  -1.974   1.558  1.00  0.00    -0.247 OA
BRANCH  10  12
ATOM     12  C   UNL     1       6.445  -0.043   1.678  1.00  0.00     0.030 C 
ATOM     13  C   UNL     1       7.458  -0.577   2.406  1.00  0.00    -0.020 C 
ATOM     14  C   UNL     1       7.514  -1.991   2.907  1.00  0.00     0.036 C 
ATOM     15  C   UNL     1       6.543   1.397   1.264  1.00  0.00     0.052 C 
ENDBRANCH  10  12
ENDBRANCH   9  10
ENDBRANCH   3   9
BRANCH   6  16
ATOM     16  O   UNL     1       0.853  -0.282  -2.615  1.00  0.00    -0.462 OA
BRANCH  16  17
ATOM     17  C   UNL     1       0.271  -0.693  -3.777  1.00  0.00     0.302 C 
ATOM     18  O   UNL     1       0.250  -1.876  -4.093  1.00  0.00    -0.253 OA
ATOM     19  C   UNL     1      -0.375   0.300  -4.686  1.00  0.00     0.139 C 
ENDBRANCH  16  17
ENDBRANCH   6  16
ENDBRANCH   1   2
BRANCH   1  20
ATOM     20  C   UNL     1      -1.593   0.050   0.522  1.00  0.00     0.101 C 
ATOM     21  C   UNL     1      -1.391   0.051   2.053  1.00  0.00     0.261 C 
ATOM     22  C   UNL     1      -3.135   0.000   0.146  1.00  0.00     0.192 C 
ATOM     23  C   UNL     1      -1.026   1.427   0.205  1.00  0.00     0.048 C 
ATOM     24  O   UNL     1      -0.182   0.723   2.360  1.00  0.00    -0.342 OA
ATOM     25  C   UNL     1      -3.405   0.867  -1.109  1.00  0.00     0.050 C 
ATOM     26  C   UNL     1      -2.140   2.528   0.281  1.00  0.00     0.006 C 
ATOM     27  C   UNL     1       0.098   1.601   1.277  1.00  0.00     0.110 C 
ATOM     28  C   UNL     1      -3.362   2.376  -0.724  1.00  0.00     0.003 C 
ATOM     29  C   UNL     1      -2.286   3.453  -0.897  1.00  0.00    -0.029 C 
ATOM     30  C   UNL     1       0.132   3.057   1.830  1.00  0.00     0.047 C 
ATOM     31  C   UNL     1      -2.675   4.876  -0.481  1.00  0.00     0.011 C 
ATOM     32  C   UNL     1      -1.444   3.363  -2.179  1.00  0.00     0.011 C 
BRANCH  21  33
ATOM     33  O   UNL     1      -1.436  -1.237   2.610  1.00  0.00    -0.367 OA
ATOM     34  H   UNL     1      -0.518  -1.611   2.568  1.00  0.00     0.213 HD
ENDBRANCH  21  33
BRANCH  22  35
ATOM     35  O   UNL     1      -3.648  -1.278  -0.033  1.00  0.00    -0.458 OA
BRANCH  35  36
ATOM     36  C   UNL     1      -4.667  -1.797   0.712  1.00  0.00     0.333 C 
ATOM     37  O   UNL     1      -4.947  -1.299   1.796  1.00  0.00    -0.247 OA
BRANCH  36  38
ATOM     38  C   UNL     1      -5.498  -2.921   0.184  1.00  0.00     0.030 C 
ATOM     39  C   UNL     1      -6.564  -3.357   0.903  1.00  0.00    -0.020 C 
ATOM     40  C   UNL     1      -5.165  -3.529  -1.158  1.00  0.00     0.052 C 
ATOM     41  C   UNL     1      -7.505  -4.456   0.487  1.00  0.00     0.036 C 
ENDBRANCH  36  38
ENDBRANCH  35  36
ENDBRANCH  22  35
BRANCH  27  42
ATOM     42  C   UNL     1       1.496   1.239   0.660  1.00  0.00     0.216 CG0
ATOM     43  G   UNL     1       1.736  -0.296   0.627  1.00  0.00     0.000 G0
BRANCH  42  44
ATOM     44  O   UNL     1       2.492   1.851   1.418  1.00  0.00    -0.459 OA
BRANCH  44  45
ATOM     45  C   UNL     1       3.167   2.977   1.029  1.00  0.00     0.303 C 
ATOM     46  O   UNL     1       3.122   3.376  -0.126  1.00  0.00    -0.253 OA
ATOM     47  C   UNL     1       3.870   3.817   2.050  1.00  0.00     0.139 C 
ENDBRANCH  44  45
ENDBRANCH  42  44
ENDBRANCH  27  42
ENDBRANCH   1  20
BRANCH   1  48
ATOM     48  O   UNL     1      -1.229  -2.328   0.137  1.00  0.00    -0.461 OA
BRANCH  48  49
ATOM     49  C   UNL     1      -1.488  -3.378  -0.688  1.00  0.00     0.302 C 
ATOM     50  O   UNL     1      -1.460  -3.251  -1.904  1.00  0.00    -0.253 OA
ATOM     51  C   UNL     1      -1.772  -4.720  -0.097  1.00  0.00     0.139 C 
ENDBRANCH  48  49
ENDBRANCH   1  48
TORSDOF 13
