REMARK SMILES COC(=O)[C@@]12C(=O)[C@](C)(O)C(=O)[C@@H](C(C)=C1C)[C@H]1[C@]34CC[C@H](OC(C)=O)C(C)(C)[C@H]3[C@H](C[C@@]12C)OC4=O
REMARK SMILES IDX 5 1 13 2 14 3 15 4 16 5 17 6 18 7 19 8 20 9 21 10 22 11
REMARK SMILES IDX 27 12 28 13 29 14 30 15 31 16 32 17 33 18 34 19 35 20 36 21
REMARK SMILES IDX 37 22 3 23 4 24 2 25 1 26 6 27 7 28 11 30 12 31 8 32 9 33
REMARK SMILES IDX 10 35 23 37 24 38 26 39 25 40
REMARK H PARENT 10 36
REMARK Flexibility Score:    4.900
ROOT
ATOM      1  C   UNL     1      -2.687  -0.068   0.672  1.00  0.00     0.156 C 
ATOM      2  C   UNL     1      -1.289   0.182  -1.760  1.00  0.00     0.090 C 
ATOM      3  C   UNL     1      -2.643   0.868  -1.637  1.00  0.00    -0.062 C 
ATOM      4  C   UNL     1      -3.133   1.721  -2.785  1.00  0.00     0.040 C 
ATOM      5  C   UNL     1      -3.377   0.677  -0.498  1.00  0.00    -0.048 C 
ATOM      6  C   UNL     1      -4.756   1.298  -0.321  1.00  0.00     0.041 C 
ATOM      7  C   UNL     1      -0.419   0.177  -0.437  1.00  0.00     0.029 C 
ATOM      8  C   UNL     1       1.139   0.472  -0.456  1.00  0.00     0.080 C 
ATOM      9  C   UNL     1       1.817  -0.079  -1.760  1.00  0.00     0.023 C 
ATOM     10  C   UNL     1       3.013  -1.027  -1.516  1.00  0.00     0.047 C 
ATOM     11  C   UNL     1       3.997  -0.354  -0.578  1.00  0.00     0.182 C 
ATOM     12  C   UNL     1       3.389  -0.163   0.859  1.00  0.00     0.009 C 
ATOM     13  C   UNL     1       4.062   1.116   1.443  1.00  0.00     0.015 C 
ATOM     14  C   UNL     1       3.790  -1.330   1.805  1.00  0.00     0.015 C 
ATOM     15  C   UNL     1       1.778  -0.172   0.808  1.00  0.00     0.057 C 
ATOM     16  C   UNL     1       1.143   0.702   1.894  1.00  0.00     0.182 C 
ATOM     17  C   UNL     1      -0.375   0.332   2.075  1.00  0.00     0.054 C 
ATOM     18  C   UNL     1      -1.247   0.673   0.817  1.00  0.00     0.003 C 
ATOM     19  C   UNL     1      -1.510   2.243   0.876  1.00  0.00     0.014 C 
ATOM     20  O   UNL     1       1.326   1.966   1.347  1.00  0.00    -0.462 OA
ATOM     21  C   UNL     1       1.390   1.874  -0.017  1.00  0.00     0.313 C 
ATOM     22  O   UNL     1       1.790   2.781  -0.729  1.00  0.00    -0.252 OA
ENDROOT
BRANCH   1  23
ATOM     23  C   UNL     1      -3.547  -0.014   1.942  1.00  0.00     0.324 C 
ATOM     24  O   UNL     1      -3.146   0.550   2.949  1.00  0.00    -0.251 OA
BRANCH  23  25
ATOM     25  O   UNL     1      -4.756  -0.634   1.960  1.00  0.00    -0.468 OA
ATOM     26  C   UNL     1      -5.579  -0.661   3.066  1.00  0.00     0.282 C 
ENDBRANCH  23  25
ENDBRANCH   1  23
BRANCH   1  27
ATOM     27  C   UNL     1      -2.488  -1.565   0.325  1.00  0.00     0.193 CG0
ATOM     28  O   UNL     1      -2.078  -2.295   1.218  1.00  0.00    -0.294 OA
ATOM     29  G   UNL     1      -2.489  -2.134  -1.122  1.00  0.00     0.000 G0
ENDBRANCH   1  27
BRANCH   2  30
ATOM     30  C   UNL     1      -1.705  -1.246  -2.106  1.00  0.00     0.179 C 
ATOM     31  O   UNL     1      -1.451  -1.675  -3.223  1.00  0.00    -0.295 OA
BRANCH  30  32
ATOM     32  C   UNL     1      -2.489  -2.134  -1.122  1.00  0.00     0.180 CG0
ATOM     33  C   UNL     1      -3.923  -2.319  -1.660  1.00  0.00     0.059 C 
ATOM     34  G   UNL     1      -2.488  -1.565   0.325  1.00  0.00     0.000 G0
BRANCH  32  35
ATOM     35  O   UNL     1      -1.840  -3.388  -1.113  1.00  0.00    -0.375 OA
ATOM     36  H   UNL     1      -2.404  -4.034  -0.613  1.00  0.00     0.212 HD
ENDBRANCH  32  35
ENDBRANCH  30  32
ENDBRANCH   2  30
BRANCH  11  37
ATOM     37  O   UNL     1       5.180  -1.079  -0.524  1.00  0.00    -0.462 OA
BRANCH  37  38
ATOM     38  C   UNL     1       6.402  -0.643  -0.925  1.00  0.00     0.302 C 
ATOM     39  O   UNL     1       6.551   0.465  -1.418  1.00  0.00    -0.253 OA
ATOM     40  C   UNL     1       7.588  -1.536  -0.755  1.00  0.00     0.139 C 
ENDBRANCH  37  38
ENDBRANCH  11  37
TORSDOF 5
