REMARK SMILES CCC(=O)[C@@H]1C[C@@H](C)[C@]2(CC[C@@]3(C)C4=C(CC[C@@]32C)[C@@]2(C)CC[C@H](O[C@@H]3O[C@H](CO[C@@H]5OC[C@H](O)[C@H](O)[C@H]5O[C@@H]5O[C@H](CO)[C@@H](O)[C@H](O[C@@H]6O[C@H](CO)[C@@H](O)[C@H](O[C@@H]7O[C@H](CO)[C@H](O)[C@H](O[C@@H]8O[C@H](CO)[C@@H](O)[C@H](O)[C@H]8O)[C@H]7O)[C@H]6O)[C@H]5O[C@@H]5O[C@@H](C)[C@H](O)[C@@H](O)[C@H]5O)[C@@H](O)[C@H](O)[C@H]3O)C(C)(C)[C@@H]2CC4)O1
REMARK SMILES IDX 40 1 41 2 42 3 45 4 47 5 82 6 39 7 38 8 31 9 32 10 33 11
REMARK SMILES IDX 36 12 34 13 30 14 29 15 28 16 26 17 27 18 98 19 96 20 94 21
REMARK SMILES IDX 25 22 24 23 5 24 6 25 106 26 7 27 9 28 10 29 18 30 11 31
REMARK SMILES IDX 17 32 12 33 16 34 14 35 15 36 105 37 20 38 104 39 22 40
REMARK SMILES IDX 103 41 23 42 100 43 8 44 19 45 13 46 21 47 101 48 102 49
REMARK SMILES IDX 3 50 4 51 2 52 1 53 99 54 97 56 95 58 37 60 35 62 83 64
REMARK SMILES IDX 84 65 85 66 92 67 86 68 90 69 88 70 87 71 93 72 91 74 89 76
REMARK SMILES IDX 43 78 44 79 48 81 49 82 50 83 80 84 51 85 56 86 54 87 81 88
REMARK SMILES IDX 52 90 53 91 57 93 58 94 59 95 78 96 60 97 65 98 63 99 79 100
REMARK SMILES IDX 61 102 62 103 66 105 67 106 68 107 76 108 69 109 74 110
REMARK SMILES IDX 72 111 77 112 70 114 71 115 75 117 73 119 64 121 55 123
REMARK SMILES IDX 46 125
REMARK H PARENT 99 55 97 57 95 59 37 61 35 63 93 73 91 75 89 77 44 80 81 89
REMARK H PARENT 53 92 79 101 62 104 77 113 71 116 75 118 73 120 64 122 55 124
REMARK H PARENT 46 126
ROOT
ATOM      1  C   UNL     1      -2.890  -1.961  -1.710  1.00  0.00     0.283 C 
ATOM      2  O   UNL     1      -2.365  -1.717  -3.013  1.00  0.00    -0.341 OA
ATOM      3  C   UNL     1      -2.761  -0.482  -3.627  1.00  0.00     0.178 C 
ATOM      4  C   UNL     1      -3.409   0.532  -2.647  1.00  0.00     0.177 C 
ATOM      5  C   UNL     1      -4.617  -0.087  -1.912  1.00  0.00     0.187 C 
ATOM      6  C   UNL     1      -4.380  -1.585  -1.599  1.00  0.00     0.209 C 
ENDROOT
BRANCH   1   7
ATOM      7  O   UNL     1      -2.134  -1.244  -0.749  1.00  0.00    -0.338 OA
BRANCH   7   8
ATOM      8  C   UNL     1      -1.349  -2.069   0.095  1.00  0.00     0.209 C 
ATOM      9  C   UNL     1       0.117  -1.553   0.069  1.00  0.00     0.282 C 
ATOM     10  O   UNL     1       0.292  -0.474   0.966  1.00  0.00    -0.347 OA
ATOM     11  C   UNL     1       0.061  -0.831   2.336  1.00  0.00     0.198 C 
ATOM     12  C   UNL     1      -1.963  -1.990   1.515  1.00  0.00     0.179 C 
ATOM     13  C   UNL     1      -0.875  -2.052   2.587  1.00  0.00     0.171 C 
BRANCH   9  14
ATOM     14  O   UNL     1       1.051  -2.571   0.399  1.00  0.00    -0.347 OA
BRANCH  14  15
ATOM     15  C   UNL     1       1.520  -3.282  -0.732  1.00  0.00     0.198 C 
BRANCH  15  16
ATOM     16  C   UNL     1       2.714  -2.551  -1.373  1.00  0.00     0.178 C 
ATOM     17  C   UNL     1       4.866  -2.907  -0.309  1.00  0.00     0.282 C 
ATOM     18  O   UNL     1       3.649  -2.167  -0.359  1.00  0.00    -0.341 OA
ATOM     19  C   UNL     1       4.672  -4.395  -0.660  1.00  0.00     0.202 C 
ATOM     20  C   UNL     1       4.179  -4.543  -2.116  1.00  0.00     0.179 C 
ATOM     21  C   UNL     1       3.354  -3.310  -2.580  1.00  0.00     0.177 C 
BRANCH  17  22
ATOM     22  O   UNL     1       5.380  -2.811   1.018  1.00  0.00    -0.346 OA
BRANCH  22  23
ATOM     23  C   UNL     1       6.619  -2.117   1.040  1.00  0.00     0.127 C 
ATOM     24  C   UNL     1      14.404   2.929  -1.400  1.00  0.00     0.186 C 
ATOM     25  C   UNL     1      14.462   4.030  -0.339  1.00  0.00     0.046 C 
ATOM     26  O   UNL     1      14.199   1.696  -0.718  1.00  0.00    -0.363 OA
ATOM     27  C   UNL     1      15.029   3.250   0.797  1.00  0.00     0.022 C 
ATOM     28  C   UNL     1      14.215   1.929   0.686  1.00  0.00     0.078 C 
ATOM     29  C   UNL     1      14.974   0.756   1.397  1.00  0.00     0.037 C 
ATOM     30  C   UNL     1      12.725   1.713   1.176  1.00  0.00     0.006 C 
ATOM     31  C   UNL     1      13.908  -0.191   1.999  1.00  0.00     0.015 C 
ATOM     32  C   UNL     1      11.587   2.182   0.245  1.00  0.00     0.015 C 
ATOM     33  C   UNL     1      12.636   0.137   1.218  1.00  0.00    -0.003 C 
ATOM     34  C   UNL     1      10.212   1.743   0.784  1.00  0.00     0.032 C 
ATOM     35  C   UNL     1      11.303  -0.326   1.805  1.00  0.00    -0.064 C 
ATOM     36  C   UNL     1      10.152   0.376   1.511  1.00  0.00    -0.064 C 
ATOM     37  C   UNL     1      11.293  -1.640   2.585  1.00  0.00     0.032 C 
ATOM     38  C   UNL     1       8.762  -0.158   1.943  1.00  0.00    -0.008 C 
ATOM     39  C   UNL     1       9.935  -2.051   3.162  1.00  0.00     0.009 C 
ATOM     40  C   UNL     1       7.732   0.116   0.807  1.00  0.00     0.014 C 
ATOM     41  C   UNL     1       8.857  -1.735   2.121  1.00  0.00     0.007 C 
ATOM     42  C   UNL     1       6.389  -0.594   1.000  1.00  0.00     0.033 C 
ATOM     43  C   UNL     1       7.497  -2.536   2.261  1.00  0.00    -0.005 C 
ATOM     44  C   UNL     1      15.131   4.024   2.116  1.00  0.00     0.011 C 
ATOM     45  C   UNL     1      12.500   2.366   2.582  1.00  0.00     0.015 C 
ATOM     46  C   UNL     1      12.730  -0.642  -0.145  1.00  0.00     0.017 C 
ATOM     47  C   UNL     1       8.348   0.656   3.203  1.00  0.00     0.016 C 
ATOM     48  C   UNL     1       6.757  -2.348   3.610  1.00  0.00     0.014 C 
ATOM     49  C   UNL     1       7.773  -4.061   2.132  1.00  0.00     0.014 C 
BRANCH  24  50
ATOM     50  C   UNL     1      15.694   2.838  -2.202  1.00  0.00     0.161 C 
ATOM     51  O   UNL     1      16.416   1.863  -2.045  1.00  0.00    -0.297 OA
BRANCH  50  52
ATOM     52  C   UNL     1      16.128   3.864  -3.232  1.00  0.00     0.075 C 
ATOM     53  C   UNL     1      15.120   4.975  -3.539  1.00  0.00     0.012 C 
ENDBRANCH  50  52
ENDBRANCH  24  50
ENDBRANCH  22  23
ENDBRANCH  17  22
BRANCH  19  54
ATOM     54  O   UNL     1       5.836  -5.156  -0.452  1.00  0.00    -0.385 OA
ATOM     55  H   UNL     1       6.572  -4.718  -0.955  1.00  0.00     0.211 HD
ENDBRANCH  19  54
BRANCH  20  56
ATOM     56  O   UNL     1       3.503  -5.764  -2.290  1.00  0.00    -0.387 OA
ATOM     57  H   UNL     1       2.615  -5.689  -1.861  1.00  0.00     0.211 HD
ENDBRANCH  20  56
BRANCH  21  58
ATOM     58  O   UNL     1       4.209  -2.454  -3.319  1.00  0.00    -0.387 OA
ATOM     59  H   UNL     1       4.371  -1.603  -2.836  1.00  0.00     0.211 HD
ENDBRANCH  21  58
ENDBRANCH  15  16
ENDBRANCH  14  15
ENDBRANCH   9  14
BRANCH  12  60
ATOM     60  O   UNL     1      -2.981  -2.941   1.699  1.00  0.00    -0.387 OA
ATOM     61  H   UNL     1      -2.582  -3.838   1.560  1.00  0.00     0.211 HD
ENDBRANCH  12  60
BRANCH  13  62
ATOM     62  O   UNL     1      -0.164  -3.262   2.515  1.00  0.00    -0.388 OA
ATOM     63  H   UNL     1      -0.681  -3.936   3.029  1.00  0.00     0.211 HD
ENDBRANCH  13  62
ENDBRANCH   7   8
ENDBRANCH   1   7
BRANCH   6  64
ATOM     64  O   UNL     1      -5.114  -2.377  -2.529  1.00  0.00    -0.338 OA
BRANCH  64  65
ATOM     65  C   UNL     1      -5.615  -3.580  -1.956  1.00  0.00     0.282 C 
ATOM     66  O   UNL     1      -4.871  -4.684  -2.430  1.00  0.00    -0.344 OA
ATOM     67  C   UNL     1      -7.115  -3.729  -2.330  1.00  0.00     0.202 C 
ATOM     68  C   UNL     1      -5.229  -5.908  -1.768  1.00  0.00     0.150 C 
ATOM     69  C   UNL     1      -7.596  -5.199  -2.152  1.00  0.00     0.179 C 
ATOM     70  C   UNL     1      -6.676  -5.928  -1.158  1.00  0.00     0.174 C 
ATOM     71  C   UNL     1      -4.179  -6.271  -0.719  1.00  0.00     0.041 C 
BRANCH  67  72
ATOM     72  O   UNL     1      -7.877  -2.819  -1.572  1.00  0.00    -0.385 OA
ATOM     73  H   UNL     1      -7.770  -3.056  -0.614  1.00  0.00     0.211 HD
ENDBRANCH  67  72
BRANCH  69  74
ATOM     74  O   UNL     1      -8.960  -5.274  -1.819  1.00  0.00    -0.387 OA
ATOM     75  H   UNL     1      -9.048  -5.058  -0.854  1.00  0.00     0.211 HD
ENDBRANCH  69  74
BRANCH  70  76
ATOM     76  O   UNL     1      -7.101  -7.244  -0.899  1.00  0.00    -0.388 OA
ATOM     77  H   UNL     1      -7.178  -7.713  -1.770  1.00  0.00     0.211 HD
ENDBRANCH  70  76
ENDBRANCH  64  65
ENDBRANCH   6  64
BRANCH   3  78
ATOM     78  C   UNL     1      -1.516   0.155  -4.266  1.00  0.00     0.191 C 
BRANCH  78  79
ATOM     79  O   UNL     1      -0.949  -0.712  -5.210  1.00  0.00    -0.394 OA
ATOM     80  H   UNL     1      -0.290  -1.274  -4.725  1.00  0.00     0.210 HD
ENDBRANCH  78  79
ENDBRANCH   3  78
BRANCH   5  81
ATOM     81  O   UNL     1      -4.805   0.614  -0.694  1.00  0.00    -0.341 OA
BRANCH  81  82
ATOM     82  C   UNL     1      -5.758   1.657  -0.796  1.00  0.00     0.282 C 
ATOM     83  O   UNL     1      -5.182   2.876  -0.320  1.00  0.00    -0.341 OA
ATOM     84  C   UNL     1      -7.091   1.228  -0.105  1.00  0.00     0.202 C 
ATOM     85  C   UNL     1      -5.501   3.189   1.025  1.00  0.00     0.178 C 
ATOM     86  C   UNL     1      -7.866   2.503   0.207  1.00  0.00     0.186 C 
ATOM     87  C   UNL     1      -7.050   3.306   1.250  1.00  0.00     0.177 C 
BRANCH  84  88
ATOM     88  O   UNL     1      -7.815   0.340  -0.923  1.00  0.00    -0.385 OA
ATOM     89  H   UNL     1      -8.132   0.844  -1.717  1.00  0.00     0.211 HD
ENDBRANCH  84  88
BRANCH  85  90
ATOM     90  C   UNL     1      -4.755   2.235   1.991  1.00  0.00     0.191 C 
BRANCH  90  91
ATOM     91  O   UNL     1      -4.937   2.635   3.323  1.00  0.00    -0.394 OA
ATOM     92  H   UNL     1      -4.293   3.373   3.489  1.00  0.00     0.210 HD
ENDBRANCH  90  91
ENDBRANCH  85  90
BRANCH  86  93
ATOM     93  O   UNL     1      -9.165   2.197   0.703  1.00  0.00    -0.341 OA
BRANCH  93  94
ATOM     94  C   UNL     1     -10.154   3.099   0.223  1.00  0.00     0.282 C 
ATOM     95  O   UNL     1     -10.360   4.117   1.209  1.00  0.00    -0.341 OA
ATOM     96  C   UNL     1     -11.449   2.305  -0.041  1.00  0.00     0.202 C 
ATOM     97  C   UNL     1     -11.603   4.833   1.138  1.00  0.00     0.178 C 
ATOM     98  C   UNL     1     -12.523   3.218  -0.678  1.00  0.00     0.186 C 
ATOM     99  C   UNL     1     -12.301   4.691  -0.242  1.00  0.00     0.177 C 
BRANCH  96 100
ATOM    100  O   UNL     1     -11.238   1.162  -0.825  1.00  0.00    -0.385 OA
ATOM    101  H   UNL     1     -10.796   1.454  -1.666  1.00  0.00     0.211 HD
ENDBRANCH  96 100
BRANCH  97 102
ATOM    102  C   UNL     1     -12.479   4.467   2.352  1.00  0.00     0.191 C 
BRANCH 102 103
ATOM    103  O   UNL     1     -13.607   5.295   2.442  1.00  0.00    -0.394 OA
ATOM    104  H   UNL     1     -13.287   6.182   2.756  1.00  0.00     0.210 HD
ENDBRANCH 102 103
ENDBRANCH  97 102
BRANCH  98 105
ATOM    105  O   UNL     1     -13.812   2.729  -0.318  1.00  0.00    -0.341 OA
BRANCH 105 106
ATOM    106  C   UNL     1     -14.523   2.155  -1.413  1.00  0.00     0.282 C 
ATOM    107  O   UNL     1     -15.691   2.933  -1.686  1.00  0.00    -0.341 OA
ATOM    108  C   UNL     1     -14.834   0.663  -1.146  1.00  0.00     0.202 C 
ATOM    109  C   UNL     1     -16.864   2.595  -0.932  1.00  0.00     0.178 C 
ATOM    110  C   UNL     1     -15.825   0.482   0.034  1.00  0.00     0.179 C 
ATOM    111  C   UNL     1     -16.562   1.797   0.364  1.00  0.00     0.177 C 
BRANCH 108 112
ATOM    112  O   UNL     1     -15.341   0.060  -2.317  1.00  0.00    -0.385 OA
ATOM    113  H   UNL     1     -16.156   0.543  -2.603  1.00  0.00     0.211 HD
ENDBRANCH 108 112
BRANCH 109 114
ATOM    114  C   UNL     1     -17.623   3.894  -0.617  1.00  0.00     0.191 C 
BRANCH 114 115
ATOM    115  O   UNL     1     -16.843   4.762   0.163  1.00  0.00    -0.394 OA
ATOM    116  H   UNL     1     -17.067   4.578   1.112  1.00  0.00     0.210 HD
ENDBRANCH 114 115
ENDBRANCH 109 114
BRANCH 110 117
ATOM    117  O   UNL     1     -15.187  -0.015   1.184  1.00  0.00    -0.387 OA
ATOM    118  H   UNL     1     -14.450   0.611   1.412  1.00  0.00     0.211 HD
ENDBRANCH 110 117
BRANCH 111 119
ATOM    119  O   UNL     1     -17.717   1.538   1.124  1.00  0.00    -0.387 OA
ATOM    120  H   UNL     1     -18.356   1.054   0.536  1.00  0.00     0.211 HD
ENDBRANCH 111 119
ENDBRANCH 105 106
ENDBRANCH  98 105
BRANCH  99 121
ATOM    121  O   UNL     1     -13.437   5.502  -0.408  1.00  0.00    -0.387 OA
ATOM    122  H   UNL     1     -14.184   5.088   0.091  1.00  0.00     0.211 HD
ENDBRANCH  99 121
ENDBRANCH  93  94
ENDBRANCH  86  93
BRANCH  87 123
ATOM    123  O   UNL     1      -7.469   4.647   1.242  1.00  0.00    -0.387 OA
ATOM    124  H   UNL     1      -7.208   5.035   0.366  1.00  0.00     0.211 HD
ENDBRANCH  87 123
ENDBRANCH  81  82
ENDBRANCH   5  81
BRANCH   4 125
ATOM    125  O   UNL     1      -3.765   1.739  -3.272  1.00  0.00    -0.387 OA
ATOM    126  H   UNL     1      -4.411   1.519  -3.993  1.00  0.00     0.211 HD
ENDBRANCH   4 125
TORSDOF 41
