REMARK SMILES C[C@@H]1[C@H](O)C[C@]23COC(=O)C2=CCC[C@@H]3[C@@]1(C)CCC1=CC(=O)OC1
REMARK SMILES IDX 1 1 2 2 3 3 5 4 6 5 7 6 8 7 9 8 10 9 11 10 12 11 13 12 14 13
REMARK SMILES IDX 15 14 16 15 17 16 4 17 18 19 19 20 20 21 21 22 25 23 22 24
REMARK SMILES IDX 24 25 23 26
REMARK H PARENT 4 18
ROOT
ATOM      1  C   UNL     1       0.707  -2.906   0.401  1.00  0.00     0.011 C 
ATOM      2  C   UNL     1      -0.268  -1.718   0.456  1.00  0.00     0.021 C 
ATOM      3  C   UNL     1      -1.706  -2.215   0.066  1.00  0.00     0.118 C 
ATOM      4  C   UNL     1      -2.700  -1.085  -0.274  1.00  0.00     0.048 C 
ATOM      5  C   UNL     1      -2.409   0.194   0.535  1.00  0.00     0.042 C 
ATOM      6  C   UNL     1      -2.752  -0.044   2.042  1.00  0.00     0.245 C 
ATOM      7  O   UNL     1      -4.109   0.220   2.173  1.00  0.00    -0.461 OA
ATOM      8  C   UNL     1      -4.515   1.036   1.185  1.00  0.00     0.334 C 
ATOM      9  O   UNL     1      -5.593   1.608   1.180  1.00  0.00    -0.247 OA
ATOM     10  C   UNL     1      -3.473   1.186   0.193  1.00  0.00     0.043 C 
ATOM     11  C   UNL     1      -3.397   2.051  -0.825  1.00  0.00    -0.015 C 
ATOM     12  C   UNL     1      -2.123   2.073  -1.629  1.00  0.00     0.028 C 
ATOM     13  C   UNL     1      -0.960   2.063  -0.620  1.00  0.00     0.009 C 
ATOM     14  C   UNL     1      -0.937   0.737   0.234  1.00  0.00     0.010 C 
ATOM     15  C   UNL     1       0.139  -0.361  -0.254  1.00  0.00    -0.023 C 
ATOM     16  C   UNL     1       0.183  -0.518  -1.802  1.00  0.00     0.012 C 
ENDROOT
BRANCH   3  17
ATOM     17  O   UNL     1      -1.725  -3.191  -0.951  1.00  0.00    -0.393 OA
ATOM     18  H   UNL     1      -1.301  -2.811  -1.758  1.00  0.00     0.210 HD
ENDBRANCH   3  17
BRANCH  15  19
ATOM     19  C   UNL     1       1.552   0.194   0.203  1.00  0.00     0.012 C 
BRANCH  19  20
ATOM     20  C   UNL     1       2.858  -0.456  -0.320  1.00  0.00     0.035 C 
BRANCH  20  21
ATOM     21  C   UNL     1       4.054   0.350   0.128  1.00  0.00    -0.026 C 
ATOM     22  C   UNL     1       5.006  -0.085   0.941  1.00  0.00     0.096 C 
ATOM     23  C   UNL     1       4.352   1.771  -0.291  1.00  0.00     0.265 C 
ATOM     24  C   UNL     1       5.930   1.015   1.081  1.00  0.00     0.331 C 
ATOM     25  O   UNL     1       5.535   2.075   0.357  1.00  0.00    -0.458 OA
ATOM     26  O   UNL     1       6.939   1.003   1.765  1.00  0.00    -0.247 OA
ENDBRANCH  20  21
ENDBRANCH  19  20
ENDBRANCH  15  19
TORSDOF 4
