REMARK SMILES C=C1[C@H]2[C@@H](CO)C[C@](C(=O)CCc3ccccc3)([C@@H]2OC)[C@]1(C)C1CCCCC1
REMARK SMILES IDX 1 1 2 2 3 3 4 4 7 5 8 6 19 7 22 8 23 9 24 10 25 11 29 12
REMARK SMILES IDX 26 13 28 14 27 15 5 16 6 17 20 19 21 20 9 21 10 22 11 23
REMARK SMILES IDX 12 24 13 25 14 26 18 27 15 28 17 29 16 30
REMARK H PARENT 6 18
ROOT
ATOM      1  C   UNL     1      -3.424  -1.105  -1.262  1.00  0.00     0.009 C 
ATOM      2  C   UNL     1      -2.264  -1.279  -0.615  1.00  0.00    -0.064 C 
ATOM      3  C   UNL     1      -1.992  -2.466   0.292  1.00  0.00     0.050 C 
ATOM      4  C   UNL     1      -0.927  -3.376  -0.364  1.00  0.00     0.025 C 
ATOM      5  C   UNL     1       0.354  -2.526  -0.257  1.00  0.00     0.025 C 
ATOM      6  C   UNL     1      -0.148  -1.195   0.397  1.00  0.00     0.065 C 
ATOM      7  C   UNL     1      -1.186  -1.798   1.395  1.00  0.00     0.139 C 
ATOM      8  C   UNL     1      -1.055  -0.357  -0.625  1.00  0.00     0.006 C 
ATOM      9  C   UNL     1      -0.401  -0.267  -2.043  1.00  0.00     0.017 C 
ENDROOT
BRANCH   8  10
ATOM     10  C   UNL     1      -1.383   1.144  -0.144  1.00  0.00    -0.000 C 
ATOM     11  C   UNL     1      -1.964   1.338   1.295  1.00  0.00     0.004 C 
ATOM     12  C   UNL     1      -2.158   2.058  -1.181  1.00  0.00     0.004 C 
ATOM     13  C   UNL     1      -2.190   2.830   1.568  1.00  0.00     0.000 C 
ATOM     14  C   UNL     1      -3.481   2.594  -0.635  1.00  0.00     0.000 C 
ATOM     15  C   UNL     1      -3.262   3.430   0.636  1.00  0.00     0.000 C 
ENDBRANCH   8  10
BRANCH   4  16
ATOM     16  C   UNL     1      -1.282  -3.883  -1.774  1.00  0.00     0.160 C 
BRANCH  16  17
ATOM     17  O   UNL     1      -2.456  -4.647  -1.736  1.00  0.00    -0.396 OA
ATOM     18  H   UNL     1      -2.218  -5.513  -1.312  1.00  0.00     0.210 HD
ENDBRANCH  16  17
ENDBRANCH   4  16
BRANCH   7  19
ATOM     19  O   UNL     1      -0.606  -2.758   2.279  1.00  0.00    -0.380 OA
ATOM     20  C   UNL     1      -0.868  -2.459   3.630  1.00  0.00     0.195 C 
ENDBRANCH   7  19
BRANCH   6  21
ATOM     21  C   UNL     1       1.010  -0.439   1.036  1.00  0.00     0.142 C 
ATOM     22  O   UNL     1       0.981  -0.200   2.233  1.00  0.00    -0.299 OA
BRANCH  21  23
ATOM     23  C   UNL     1       2.270  -0.092   0.283  1.00  0.00     0.081 C 
BRANCH  23  24
ATOM     24  C   UNL     1       2.612   1.401   0.364  1.00  0.00     0.043 C 
BRANCH  24  25
ATOM     25  C   UNL     1       4.006   1.634  -0.163  1.00  0.00    -0.048 A 
ATOM     26  C   UNL     1       5.025   2.049   0.712  1.00  0.00     0.004 A 
ATOM     27  C   UNL     1       4.311   1.414  -1.518  1.00  0.00     0.004 A 
ATOM     28  C   UNL     1       6.329   2.230   0.243  1.00  0.00     0.000 A 
ATOM     29  C   UNL     1       5.617   1.601  -1.984  1.00  0.00     0.000 A 
ATOM     30  C   UNL     1       6.625   2.005  -1.103  1.00  0.00     0.000 A 
ENDBRANCH  24  25
ENDBRANCH  23  24
ENDBRANCH  21  23
ENDBRANCH   6  21
TORSDOF 8
