REMARK SMILES COCCCN1C(=O)[C@H]2[C@H](C(=O)Nc3cccc(OC)c3)[C@H]3C=C[C@@]2(O3)[C@@H]1C(=O)N[C@H]1CCCC[C@@H]1C
REMARK SMILES IDX 6 1 7 2 8 3 9 4 10 5 22 6 23 7 24 8 25 9 26 10 27 11 5 12
REMARK SMILES IDX 4 13 3 14 2 15 1 16 28 17 29 18 30 19 31 21 32 22 36 23
REMARK SMILES IDX 33 24 35 25 34 26 37 27 11 28 12 29 13 30 14 32 15 33 21 34
REMARK SMILES IDX 16 35 18 36 17 37 19 38 20 39
REMARK H PARENT 30 20 13 31
ROOT
ATOM      1  N   UNL     1      -0.788   2.423  -0.238  1.00  0.00    -0.327 N 
ATOM      2  C   UNL     1       0.491   1.955  -0.180  1.00  0.00     0.230 C 
ATOM      3  O   UNL     1       1.336   2.159  -1.037  1.00  0.00    -0.274 OA
ATOM      4  C   UNL     1       0.637   1.008   0.952  1.00  0.00     0.133 C 
ATOM      5  C   UNL     1       1.767   0.780   1.972  1.00  0.00     0.127 C 
ATOM      6  C   UNL     1       0.874   0.843   3.280  1.00  0.00     0.155 C 
ATOM      7  C   UNL     1       0.797   2.296   3.602  1.00  0.00     0.004 C 
ATOM      8  C   UNL     1      -0.002   2.799   2.630  1.00  0.00     0.010 C 
ATOM      9  C   UNL     1      -0.437   1.570   1.865  1.00  0.00     0.129 C 
ATOM     10  O   UNL     1      -0.471   0.592   2.867  1.00  0.00    -0.359 OA
ATOM     11  C   UNL     1      -1.572   1.928   0.895  1.00  0.00     0.211 C 
ENDROOT
BRANCH   1  12
ATOM     12  C   UNL     1      -1.325   3.245  -1.312  1.00  0.00     0.123 C 
BRANCH  12  13
ATOM     13  C   UNL     1      -1.520   4.688  -0.836  1.00  0.00     0.050 C 
BRANCH  13  14
ATOM     14  C   UNL     1      -2.065   5.567  -1.963  1.00  0.00     0.161 C 
BRANCH  14  15
ATOM     15  O   UNL     1      -2.128   6.904  -1.515  1.00  0.00    -0.385 OA
ATOM     16  C   UNL     1      -2.608   7.721  -2.559  1.00  0.00     0.194 C 
ENDBRANCH  14  15
ENDBRANCH  13  14
ENDBRANCH  12  13
ENDBRANCH   1  12
BRANCH  11  17
ATOM     17  C   UNL     1      -2.420   0.711   0.551  1.00  0.00     0.246 C 
ATOM     18  O   UNL     1      -3.137   0.252   1.430  1.00  0.00    -0.273 OA
ATOM     19  N   UNL     1      -2.373   0.116  -0.676  1.00  0.00    -0.351 N 
ATOM     20  H   UNL     1      -1.730   0.478  -1.394  1.00  0.00     0.163 HD
BRANCH  19  21
ATOM     21  C   UNL     1      -3.155  -1.060  -1.030  1.00  0.00     0.084 C 
ATOM     22  C   UNL     1      -4.016  -0.700  -2.282  1.00  0.00     0.025 C 
ATOM     23  C   UNL     1      -2.193  -2.283  -1.256  1.00  0.00     0.008 C 
ATOM     24  C   UNL     1      -4.434  -1.964  -3.021  1.00  0.00     0.002 C 
ATOM     25  C   UNL     1      -1.893  -2.437  -2.751  1.00  0.00     0.005 C 
ATOM     26  C   UNL     1      -3.184  -2.705  -3.570  1.00  0.00     0.000 C 
ATOM     27  C   UNL     1      -2.738  -3.598  -0.662  1.00  0.00     0.010 C 
ENDBRANCH  19  21
ENDBRANCH  11  17
BRANCH   5  28
ATOM     28  C   UNL     1       2.528  -0.511   1.717  1.00  0.00     0.231 C 
ATOM     29  O   UNL     1       2.568  -0.977   0.586  1.00  0.00    -0.274 OA
ATOM     30  N   UNL     1       3.151  -1.160   2.748  1.00  0.00    -0.326 N 
ATOM     31  H   UNL     1       3.011  -0.811   3.704  1.00  0.00     0.169 HD
BRANCH  30  32
ATOM     32  C   UNL     1       3.930  -2.345   2.612  1.00  0.00     0.044 A 
ATOM     33  C   UNL     1       3.850  -3.312   3.621  1.00  0.00     0.026 A 
ATOM     34  C   UNL     1       4.808  -2.551   1.529  1.00  0.00     0.072 A 
ATOM     35  C   UNL     1       4.601  -4.484   3.541  1.00  0.00     0.006 A 
ATOM     36  C   UNL     1       5.603  -3.707   1.466  1.00  0.00     0.120 A 
ATOM     37  C   UNL     1       5.478  -4.683   2.475  1.00  0.00     0.046 A 
BRANCH  36  38
ATOM     38  O   UNL     1       6.489  -3.832   0.442  1.00  0.00    -0.497 OA
ATOM     39  C   UNL     1       7.409  -4.853   0.302  1.00  0.00     0.278 C 
ENDBRANCH  36  38
ENDBRANCH  30  32
ENDBRANCH   5  28
TORSDOF 9
