REMARK SMILES CCc1cc(=O)oc2c(C)c(O[C@H](C)C(=O)N3CC[C@@]4(O)CCCC[C@H]4C3)ccc12
REMARK SMILES IDX 13 1 14 2 12 3 11 4 3 5 4 6 30 7 5 8 29 9 8 10 6 11 7 12
REMARK SMILES IDX 28 13 9 14 10 15 2 16 1 17 15 18 16 19 17 20 18 21 27 22
REMARK SMILES IDX 19 23 26 24 20 25 25 26 22 27 24 28 23 29 21 30
REMARK H PARENT 21 31
ROOT
ATOM      1  C   UNL     1       0.193  -1.889  -2.050  1.00  0.00     0.259 C 
ATOM      2  C   UNL     1       0.446  -1.892  -3.560  1.00  0.00     0.064 C 
ENDROOT
BRANCH   1   3
ATOM      3  O   UNL     1       0.748  -0.725  -1.548  1.00  0.00    -0.480 OA
BRANCH   3   4
ATOM      4  C   UNL     1       1.836  -0.411  -0.780  1.00  0.00     0.127 A 
ATOM      5  C   UNL     1       5.112   1.094   1.494  1.00  0.00    -0.030 A 
ATOM      6  C   UNL     1       6.098   0.181   1.889  1.00  0.00     0.098 A 
ATOM      7  C   UNL     1       4.010   0.616   0.739  1.00  0.00     0.021 A 
ATOM      8  C   UNL     1       5.982  -1.154   1.520  1.00  0.00     0.336 A 
ATOM      9  C   UNL     1       2.958   1.447   0.332  1.00  0.00     0.016 A 
ATOM     10  C   UNL     1       3.962  -0.759   0.402  1.00  0.00     0.145 A 
ATOM     11  O   UNL     1       6.841  -1.954   1.847  1.00  0.00    -0.246 OA
ATOM     12  O   UNL     1       4.944  -1.569   0.803  1.00  0.00    -0.422 OA
ATOM     13  C   UNL     1       1.907   0.939  -0.416  1.00  0.00     0.047 A 
ATOM     14  C   UNL     1       2.883  -1.290  -0.355  1.00  0.00     0.035 A 
ATOM     15  C   UNL     1       2.912  -2.763  -0.687  1.00  0.00     0.052 C 
BRANCH   5  16
ATOM     16  C   UNL     1       5.278   2.550   1.891  1.00  0.00     0.033 C 
ATOM     17  C   UNL     1       5.628   3.421   0.680  1.00  0.00     0.009 C 
ENDBRANCH   5  16
ENDBRANCH   3   4
ENDBRANCH   1   3
BRANCH   1  18
ATOM     18  C   UNL     1      -1.316  -2.031  -1.791  1.00  0.00     0.263 C 
ATOM     19  O   UNL     1      -1.823  -3.056  -2.228  1.00  0.00    -0.271 OA
BRANCH  18  20
ATOM     20  N   UNL     1      -2.125  -1.107  -1.151  1.00  0.00    -0.339 N 
ATOM     21  C   UNL     1      -1.589   0.157  -0.637  1.00  0.00     0.122 C 
ATOM     22  C   UNL     1      -3.577  -1.336  -1.106  1.00  0.00     0.126 C 
ATOM     23  C   UNL     1      -2.621   1.000   0.129  1.00  0.00     0.057 C 
ATOM     24  C   UNL     1      -4.304  -0.834   0.188  1.00  0.00     0.040 C 
ATOM     25  C   UNL     1      -3.399   0.060   1.084  1.00  0.00     0.071 C 
ATOM     26  C   UNL     1      -5.678  -0.167  -0.212  1.00  0.00     0.008 C 
ATOM     27  C   UNL     1      -4.221   0.800   2.188  1.00  0.00     0.035 C 
ATOM     28  C   UNL     1      -5.892   1.261   0.326  1.00  0.00     0.001 C 
ATOM     29  C   UNL     1      -5.638   1.278   1.818  1.00  0.00     0.003 C 
BRANCH  25  30
ATOM     30  O   UNL     1      -2.470  -0.768   1.755  1.00  0.00    -0.389 OA
ATOM     31  H   UNL     1      -1.872  -0.188   2.297  1.00  0.00     0.211 HD
ENDBRANCH  25  30
ENDBRANCH  18  20
ENDBRANCH   1  18
TORSDOF 6
