REMARK SMILES C[C@@H]1O[C@@H](OC[C@H]2O[C@@H](O[C@H]3C(=O)c4c(O)cc(O)cc4O[C@H]3c3ccc(O)cc3)[C@H](OC(=O)/C=C/c3ccc(O)cc3)[C@@H](O[C@H]3O[C@@H](CO)[C@H](O)[C@@H](O)[C@@H]3O)[C@@H]2O)[C@@H](O)[C@H](O[C@H]2O[C@@H](CO)[C@@H](O)[C@H](O)[C@H]2O)[C@H]1O
REMARK SMILES IDX 6 1 5 2 4 3 2 4 3 5 74 6 61 7 59 8 1 9 75 10 62 12 63 13
REMARK SMILES IDX 64 14 72 15 65 16 70 17 68 18 73 19 66 21 67 22 71 24 69 26
REMARK SMILES IDX 60 28 7 30 8 31 57 32 9 33 44 34 31 35 58 36 10 38 11 39
REMARK SMILES IDX 12 40 23 41 13 42 14 43 22 44 15 45 21 46 17 47 20 48 18 49
REMARK SMILES IDX 24 50 25 51 30 52 26 53 29 54 27 55 28 56 16 58 19 60 45 62
REMARK SMILES IDX 46 63 47 64 55 65 48 66 53 67 51 68 56 69 49 71 50 72 54 74
REMARK SMILES IDX 52 76 32 78 33 79 34 80 35 81 36 82 37 83 38 84 43 85 39 86
REMARK SMILES IDX 42 87 40 88 41 89
REMARK H PARENT 75 11 73 20 67 23 71 25 69 27 60 29 58 37 28 57 16 59 19 61
REMARK H PARENT 56 70 50 73 54 75 52 77 41 90
ROOT
ATOM      1  C   UNL     1       4.059  -7.030   0.000  1.00  0.00     0.198 C 
ENDROOT
BRANCH   1   2
ATOM      2  O   UNL     1       4.809  -8.329   0.000  1.00  0.00    -0.347 OA
BRANCH   2   3
ATOM      3  C   UNL     1       6.216  -8.718  -0.435  1.00  0.00     0.281 C 
ATOM      4  C   UNL     1       7.197 -10.770   0.000  1.00  0.00     0.150 C 
ATOM      5  O   UNL     1       6.639  -9.587   0.546  1.00  0.00    -0.344 OA
ATOM      6  C   UNL     1       8.479 -10.664  -0.710  1.00  0.00     0.175 C 
ATOM      7  C   UNL     1       8.959  -9.224  -0.570  1.00  0.00     0.186 C 
ATOM      8  C   UNL     1       7.692  -8.097  -0.810  1.00  0.00     0.202 C 
ATOM      9  C   UNL     1       6.048 -11.734   0.000  1.00  0.00     0.041 C 
BRANCH   6  10
ATOM     10  O   UNL     1       9.409 -11.486  -0.021  1.00  0.00    -0.388 OA
ATOM     11  H   UNL     1       9.031 -12.391   0.146  1.00  0.00     0.211 HD
ENDBRANCH   6  10
BRANCH   7  12
ATOM     12  O   UNL     1      10.161  -9.076  -1.381  1.00  0.00    -0.341 OA
BRANCH  12  13
ATOM     13  C   UNL     1      11.353  -9.977  -1.262  1.00  0.00     0.282 C 
ATOM     14  O   UNL     1      12.223  -9.710  -0.139  1.00  0.00    -0.341 OA
ATOM     15  C   UNL     1      11.477 -11.536  -1.739  1.00  0.00     0.202 C 
ATOM     16  C   UNL     1      13.540 -10.247  -0.420  1.00  0.00     0.178 C 
ATOM     17  C   UNL     1      12.174 -12.381  -0.604  1.00  0.00     0.179 C 
ATOM     18  C   UNL     1      13.575 -11.807  -0.371  1.00  0.00     0.177 C 
BRANCH  15  19
ATOM     19  O   UNL     1      10.274 -12.123  -2.221  1.00  0.00    -0.385 OA
ATOM     20  H   UNL     1      10.123 -12.998  -1.765  1.00  0.00     0.211 HD
ENDBRANCH  15  19
BRANCH  16  21
ATOM     21  C   UNL     1      14.661  -9.638   0.433  1.00  0.00     0.191 C 
BRANCH  21  22
ATOM     22  O   UNL     1      14.690  -8.249   0.264  1.00  0.00    -0.394 OA
ATOM     23  H   UNL     1      15.628  -7.966   0.429  1.00  0.00     0.210 HD
ENDBRANCH  21  22
ENDBRANCH  16  21
BRANCH  17  24
ATOM     24  O   UNL     1      12.277 -13.741  -0.950  1.00  0.00    -0.387 OA
ATOM     25  H   UNL     1      12.265 -14.260  -0.101  1.00  0.00     0.211 HD
ENDBRANCH  17  24
BRANCH  18  26
ATOM     26  O   UNL     1      14.076 -12.308   0.848  1.00  0.00    -0.387 OA
ATOM     27  H   UNL     1      14.636 -13.103   0.633  1.00  0.00     0.211 HD
ENDBRANCH  18  26
ENDBRANCH  12  13
ENDBRANCH   7  12
BRANCH   8  28
ATOM     28  O   UNL     1       7.929  -6.977   0.003  1.00  0.00    -0.385 OA
ATOM     29  H   UNL     1       8.845  -6.657  -0.203  1.00  0.00     0.211 HD
ENDBRANCH   8  28
ENDBRANCH   2   3
ENDBRANCH   1   2
BRANCH   1  30
ATOM     30  C   UNL     1       3.309  -5.731   0.000  1.00  0.00     0.179 C 
ATOM     31  O   UNL     1       3.048  -4.253   0.000  1.00  0.00    -0.340 OA
ATOM     32  C   UNL     1       1.826  -6.401  -0.763  1.00  0.00     0.178 C 
ATOM     33  C   UNL     1       0.990  -3.747   0.214  1.00  0.00     0.295 C 
ATOM     34  C   UNL     1       0.316  -6.053  -0.318  1.00  0.00     0.199 C 
ATOM     35  C   UNL     1       0.025  -4.543  -0.647  1.00  0.00     0.264 C 
BRANCH  32  36
ATOM     36  O   UNL     1       1.792  -7.821  -0.878  1.00  0.00    -0.387 OA
ATOM     37  H   UNL     1       1.675  -8.073  -1.831  1.00  0.00     0.211 HD
ENDBRANCH  32  36
BRANCH  33  38
ATOM     38  O   UNL     1       0.786  -2.335   0.286  1.00  0.00    -0.333 OA
BRANCH  38  39
ATOM     39  C   UNL     1       0.819  -1.672  -0.955  1.00  0.00     0.238 C 
ATOM     40  C   UNL     1       0.375  -0.223  -0.733  1.00  0.00     0.203 C 
ATOM     41  C   UNL     1       2.215  -1.661  -1.547  1.00  0.00     0.240 C 
ATOM     42  O   UNL     1      -0.808   0.020  -0.613  1.00  0.00    -0.291 OA
ATOM     43  C   UNL     1       1.378   0.860  -0.500  1.00  0.00     0.105 A 
ATOM     44  O   UNL     1       3.044  -0.788  -0.835  1.00  0.00    -0.481 OA
ATOM     45  C   UNL     1       1.034   2.201  -0.198  1.00  0.00     0.133 A 
ATOM     46  C   UNL     1       2.723   0.493  -0.542  1.00  0.00     0.138 A 
ATOM     47  C   UNL     1       2.045   3.146   0.057  1.00  0.00     0.093 A 
ATOM     48  C   UNL     1       3.727   1.438  -0.271  1.00  0.00     0.093 A 
ATOM     49  C   UNL     1       3.389   2.768   0.023  1.00  0.00     0.123 A 
BRANCH  41  50
ATOM     50  C   UNL     1       2.938  -2.996  -1.587  1.00  0.00    -0.004 A 
ATOM     51  C   UNL     1       3.048  -4.253   0.000  1.00  0.00     0.011 A 
ATOM     52  C   UNL     1       4.143  -2.819  -2.308  1.00  0.00     0.011 A 
ATOM     53  C   UNL     1       5.054  -4.089   0.333  1.00  0.00     0.046 A 
ATOM     54  C   UNL     1       5.454  -3.168  -1.907  1.00  0.00     0.046 A 
ATOM     55  C   UNL     1       5.901  -3.684  -0.680  1.00  0.00     0.115 A 
BRANCH  55  56
ATOM     56  O   UNL     1       7.234  -3.745  -0.465  1.00  0.00    -0.508 OA
ATOM     57  H   UNL     1       7.613  -4.064   0.369  1.00  0.00     0.293 HD
ENDBRANCH  55  56
ENDBRANCH  41  50
BRANCH  45  58
ATOM     58  O   UNL     1      -0.260   2.574  -0.136  1.00  0.00    -0.507 OA
ATOM     59  H   UNL     1      -0.530   3.480   0.076  1.00  0.00     0.293 HD
ENDBRANCH  45  58
BRANCH  49  60
ATOM     60  O   UNL     1       4.340   3.692   0.269  1.00  0.00    -0.508 OA
ATOM     61  H   UNL     1       5.284   3.486   0.244  1.00  0.00     0.293 HD
ENDBRANCH  49  60
ENDBRANCH  38  39
ENDBRANCH  33  38
BRANCH  34  62
ATOM     62  O   UNL     1      -0.592  -6.948  -1.028  1.00  0.00    -0.340 OA
BRANCH  62  63
ATOM     63  C   UNL     1      -1.733  -7.489  -0.304  1.00  0.00     0.282 C 
ATOM     64  O   UNL     1      -2.862  -6.827  -0.769  1.00  0.00    -0.341 OA
ATOM     65  C   UNL     1      -2.032  -8.967  -0.683  1.00  0.00     0.202 C 
ATOM     66  C   UNL     1      -4.059  -7.030   0.000  1.00  0.00     0.178 C 
ATOM     67  C   UNL     1      -3.488  -9.392  -0.209  1.00  0.00     0.179 C 
ATOM     68  C   UNL     1      -4.602  -8.326  -0.587  1.00  0.00     0.177 C 
BRANCH  65  69
ATOM     69  O   UNL     1      -1.043  -9.796  -0.128  1.00  0.00    -0.385 OA
ATOM     70  H   UNL     1      -1.256 -10.727  -0.394  1.00  0.00     0.211 HD
ENDBRANCH  65  69
BRANCH  66  71
ATOM     71  C   UNL     1      -4.319  -5.553  -0.000  1.00  0.00     0.191 C 
BRANCH  71  72
ATOM     72  O   UNL     1      -4.580  -4.075   0.000  1.00  0.00    -0.394 OA
ATOM     73  H   UNL     1      -4.852  -3.785   0.915  1.00  0.00     0.210 HD
ENDBRANCH  71  72
ENDBRANCH  66  71
BRANCH  67  74
ATOM     74  O   UNL     1      -3.815 -10.649  -0.739  1.00  0.00    -0.387 OA
ATOM     75  H   UNL     1      -4.504 -11.042  -0.140  1.00  0.00     0.211 HD
ENDBRANCH  67  74
BRANCH  68  76
ATOM     76  O   UNL     1      -5.823  -8.675   0.009  1.00  0.00    -0.387 OA
ATOM     77  H   UNL     1      -6.480  -7.984  -0.266  1.00  0.00     0.211 HD
ENDBRANCH  68  76
ENDBRANCH  62  63
ENDBRANCH  34  62
BRANCH  35  78
ATOM     78  O   UNL     1      -1.233  -4.077  -0.263  1.00  0.00    -0.451 OA
BRANCH  78  79
ATOM     79  C   UNL     1      -2.109  -3.389  -1.052  1.00  0.00     0.331 C 
ATOM     80  O   UNL     1      -2.372  -3.803  -2.172  1.00  0.00    -0.247 OA
BRANCH  79  81
ATOM     81  C   UNL     1      -2.765  -2.135  -0.530  1.00  0.00     0.094 C 
ATOM     82  C   UNL     1      -3.897  -1.625  -1.076  1.00  0.00     0.015 C 
BRANCH  82  83
ATOM     83  C   UNL     1      -4.630  -0.403  -0.607  1.00  0.00    -0.025 A 
ATOM     84  C   UNL     1      -6.019  -0.328  -0.831  1.00  0.00     0.012 A 
ATOM     85  C   UNL     1      -3.995   0.687   0.027  1.00  0.00     0.012 A 
ATOM     86  C   UNL     1      -6.751   0.798  -0.437  1.00  0.00     0.047 A 
ATOM     87  C   UNL     1      -4.725   1.826   0.389  1.00  0.00     0.047 A 
ATOM     88  C   UNL     1      -6.111   1.887   0.157  1.00  0.00     0.115 A 
BRANCH  88  89
ATOM     89  O   UNL     1      -6.830   2.987   0.502  1.00  0.00    -0.508 OA
ATOM     90  H   UNL     1      -6.411   3.769   0.876  1.00  0.00     0.293 HD
ENDBRANCH  88  89
ENDBRANCH  82  83
ENDBRANCH  79  81
ENDBRANCH  78  79
ENDBRANCH  35  78
ENDBRANCH   1  30
TORSDOF 31
