REMARK SMILES CCNC(=O)N[C@H]1CC[C@]2(C)CC[C@@H]([C@H](C)C(=O)N(CC)CC)[C@H](O)[C@H]2[C@@H]1C
REMARK SMILES IDX 7 1 8 2 9 3 10 4 11 5 12 6 13 7 14 8 24 9 26 10 27 11 28 12
REMARK SMILES IDX 6 13 3 14 4 15 5 16 2 19 1 20 25 21 15 23 16 24 17 25 18 26
REMARK SMILES IDX 19 27 20 28 21 29 22 30 23 31
REMARK H PARENT 3 17 6 18 25 22
ROOT
ATOM      1  C   UNL     1       2.677   0.058  -0.799  1.00  0.00     0.087 C 
ATOM      2  C   UNL     1       2.958  -1.408  -1.246  1.00  0.00     0.026 C 
ATOM      3  C   UNL     1       2.287  -2.530  -0.419  1.00  0.00     0.009 C 
ATOM      4  C   UNL     1       0.869  -2.143   0.139  1.00  0.00    -0.027 C 
ATOM      5  C   UNL     1       1.094  -1.851   1.661  1.00  0.00     0.012 C 
ATOM      6  C   UNL     1      -0.146  -3.310   0.019  1.00  0.00     0.007 C 
ATOM      7  C   UNL     1      -1.491  -2.953   0.711  1.00  0.00     0.007 C 
ATOM      8  C   UNL     1      -2.115  -1.567   0.322  1.00  0.00     0.030 C 
ATOM      9  C   UNL     1      -1.269  -0.796  -0.745  1.00  0.00     0.122 C 
ATOM     10  C   UNL     1       0.304  -0.911  -0.676  1.00  0.00     0.029 C 
ATOM     11  C   UNL     1       1.186   0.342  -0.357  1.00  0.00     0.015 C 
ATOM     12  C   UNL     1       0.707   1.660  -0.988  1.00  0.00     0.010 C 
ENDROOT
BRANCH   1  13
ATOM     13  N   UNL     1       3.637   0.509   0.201  1.00  0.00    -0.335 N 
ATOM     14  N   UNL     1       5.427   1.888   0.908  1.00  0.00    -0.338 N 
ATOM     15  C   UNL     1       4.503   1.542  -0.031  1.00  0.00     0.315 C 
ATOM     16  O   UNL     1       4.448   2.160  -1.088  1.00  0.00    -0.249 OA
ATOM     17  H   UNL     1       5.455   1.371   1.800  1.00  0.00     0.165 HD
ATOM     18  H   UNL     1       3.680   0.016   1.104  1.00  0.00     0.165 HD
BRANCH  14  19
ATOM     19  C   UNL     1       6.377   2.973   0.719  1.00  0.00     0.114 C 
ATOM     20  C   UNL     1       7.341   2.691  -0.439  1.00  0.00     0.027 C 
ENDBRANCH  14  19
ENDBRANCH   1  13
BRANCH   9  21
ATOM     21  O   UNL     1      -1.696  -1.218  -2.027  1.00  0.00    -0.392 OA
ATOM     22  H   UNL     1      -1.621  -2.202  -2.093  1.00  0.00     0.210 HD
ENDBRANCH   9  21
BRANCH   8  23
ATOM     23  C   UNL     1      -2.556  -0.682   1.548  1.00  0.00     0.081 C 
ATOM     24  C   UNL     1      -3.504  -1.391   2.544  1.00  0.00     0.018 C 
BRANCH  23  25
ATOM     25  C   UNL     1      -3.095   0.709   1.151  1.00  0.00     0.225 C 
ATOM     26  O   UNL     1      -2.425   1.652   1.556  1.00  0.00    -0.275 OA
ATOM     27  N   UNL     1      -4.224   0.982   0.392  1.00  0.00    -0.343 N 
BRANCH  27  28
ATOM     28  C   UNL     1      -4.559   2.380   0.094  1.00  0.00     0.116 C 
ATOM     29  C   UNL     1      -3.589   2.993  -0.921  1.00  0.00     0.027 C 
ENDBRANCH  27  28
BRANCH  27  30
ATOM     30  C   UNL     1      -5.148  -0.033  -0.118  1.00  0.00     0.116 C 
ATOM     31  C   UNL     1      -5.135  -0.077  -1.649  1.00  0.00     0.027 C 
ENDBRANCH  27  30
ENDBRANCH  23  25
ENDBRANCH   8  23
TORSDOF 7
