REMARK SMILES C[C@@H](CC[C@]1(O)O[C@H]2C[C@@H]3[C@@H]4CC[C@@H]5C[C@H](O)[C@@H](O)C[C@]5(C)[C@H]4CC[C@]3(C)[C@H]2[C@@H]1C)CO[C@@H]1O[C@H](CO)[C@@H](O)[C@H](O)[C@H]1O
REMARK SMILES IDX 1 1 2 2 3 3 4 4 5 5 7 6 29 7 8 8 28 9 9 10 26 11 10 12 25 13
REMARK SMILES IDX 11 14 24 15 12 16 23 17 13 18 21 19 14 20 20 21 15 22 18 23
REMARK SMILES IDX 16 24 30 25 27 26 22 27 6 28 19 30 17 32 31 34 32 35 33 36
REMARK SMILES IDX 34 37 42 38 35 39 40 40 38 41 43 42 36 44 37 45 41 47 39 49
REMARK H PARENT 6 29 19 31 17 33 43 43 37 46 41 48 39 50
ROOT
ATOM      1  C   UNL     1       5.290  -2.713   1.002  1.00  0.00     0.010 C 
ATOM      2  C   UNL     1       4.370  -1.480   1.030  1.00  0.00     0.012 C 
ENDROOT
BRANCH   2   3
ATOM      3  C   UNL     1       3.135  -1.794   1.911  1.00  0.00     0.011 C 
BRANCH   3   4
ATOM      4  C   UNL     1       2.045  -0.700   2.027  1.00  0.00     0.066 C 
BRANCH   4   5
ATOM      5  C   UNL     1       1.363  -0.127   0.735  1.00  0.00     0.168 C 
ATOM      6  O   UNL     1       0.439   0.868   1.142  1.00  0.00    -0.346 OA
ATOM      7  C   UNL     1       0.488  -1.042  -0.132  1.00  0.00     0.052 C 
ATOM      8  C   UNL     1      -0.784   0.201   1.429  1.00  0.00     0.126 C 
ATOM      9  C   UNL     1      -0.780  -1.174   0.718  1.00  0.00     0.033 C 
ATOM     10  C   UNL     1      -1.998   0.974   0.877  1.00  0.00     0.037 C 
ATOM     11  C   UNL     1      -2.138  -1.251  -0.047  1.00  0.00    -0.024 C 
ATOM     12  C   UNL     1      -2.388   0.232  -0.409  1.00  0.00     0.001 C 
ATOM     13  C   UNL     1      -3.258  -1.756   0.922  1.00  0.00     0.008 C 
ATOM     14  C   UNL     1      -3.819   0.483  -0.966  1.00  0.00    -0.004 C 
ATOM     15  C   UNL     1      -4.664  -1.572   0.324  1.00  0.00     0.005 C 
ATOM     16  C   UNL     1      -4.052   1.985  -1.214  1.00  0.00     0.004 C 
ATOM     17  C   UNL     1      -4.946  -0.086  -0.048  1.00  0.00    -0.001 C 
ATOM     18  C   UNL     1      -5.383   2.192  -1.927  1.00  0.00     0.004 C 
ATOM     19  C   UNL     1      -6.393   0.135  -0.676  1.00  0.00    -0.024 C 
ATOM     20  C   UNL     1      -6.585   1.645  -1.130  1.00  0.00    -0.002 C 
ATOM     21  C   UNL     1      -7.456  -0.248   0.432  1.00  0.00     0.041 C 
ATOM     22  C   UNL     1      -6.982   2.508   0.074  1.00  0.00     0.038 C 
ATOM     23  C   UNL     1      -8.744   0.580   0.332  1.00  0.00     0.143 C 
ATOM     24  C   UNL     1      -8.406   2.095   0.556  1.00  0.00     0.143 C 
ATOM     25  C   UNL     1       1.100  -2.360  -0.635  1.00  0.00     0.014 C 
ATOM     26  C   UNL     1      -2.094  -2.162  -1.299  1.00  0.00     0.012 C 
ATOM     27  C   UNL     1      -6.613  -0.755  -1.935  1.00  0.00     0.012 C 
BRANCH   5  28
ATOM     28  O   UNL     1       2.341   0.454  -0.092  1.00  0.00    -0.365 OA
ATOM     29  H   UNL     1       2.569   1.342   0.289  1.00  0.00     0.214 HD
ENDBRANCH   5  28
BRANCH  23  30
ATOM     30  O   UNL     1      -9.315   0.373  -0.935  1.00  0.00    -0.390 OA
ATOM     31  H   UNL     1     -10.231   0.756  -0.909  1.00  0.00     0.211 HD
ENDBRANCH  23  30
BRANCH  24  32
ATOM     32  O   UNL     1      -8.573   2.473   1.899  1.00  0.00    -0.390 OA
ATOM     33  H   UNL     1      -7.994   1.887   2.451  1.00  0.00     0.211 HD
ENDBRANCH  24  32
ENDBRANCH   4   5
ENDBRANCH   3   4
ENDBRANCH   2   3
BRANCH   2  34
ATOM     34  C   UNL     1       5.148  -0.247   1.546  1.00  0.00     0.167 C 
BRANCH  34  35
ATOM     35  O   UNL     1       6.355  -0.055   0.833  1.00  0.00    -0.350 OA
BRANCH  35  36
ATOM     36  C   UNL     1       6.164   0.629  -0.397  1.00  0.00     0.281 C 
ATOM     37  O   UNL     1       6.872  -0.057  -1.430  1.00  0.00    -0.341 OA
ATOM     38  C   UNL     1       6.596   2.109  -0.279  1.00  0.00     0.202 C 
ATOM     39  C   UNL     1       8.282   0.201  -1.502  1.00  0.00     0.178 C 
ATOM     40  C   UNL     1       8.118   2.241   0.015  1.00  0.00     0.179 C 
ATOM     41  C   UNL     1       8.866   0.916  -0.252  1.00  0.00     0.177 C 
BRANCH  38  42
ATOM     42  O   UNL     1       6.253   2.797  -1.461  1.00  0.00    -0.385 OA
ATOM     43  H   UNL     1       6.768   2.411  -2.214  1.00  0.00     0.211 HD
ENDBRANCH  38  42
BRANCH  39  44
ATOM     44  C   UNL     1       8.999  -1.133  -1.759  1.00  0.00     0.191 C 
BRANCH  44  45
ATOM     45  O   UNL     1       8.759  -2.043  -0.717  1.00  0.00    -0.394 OA
ATOM     46  H   UNL     1       9.507  -1.951  -0.071  1.00  0.00     0.210 HD
ENDBRANCH  44  45
ENDBRANCH  39  44
BRANCH  40  47
ATOM     47  O   UNL     1       8.361   2.675   1.330  1.00  0.00    -0.387 OA
ATOM     48  H   UNL     1       7.926   2.026   1.944  1.00  0.00     0.211 HD
ENDBRANCH  40  47
BRANCH  41  49
ATOM     49  O   UNL     1      10.252   1.137  -0.351  1.00  0.00    -0.387 OA
ATOM     50  H   UNL     1      10.409   1.671  -1.173  1.00  0.00     0.211 HD
ENDBRANCH  41  49
ENDBRANCH  35  36
ENDBRANCH  34  35
ENDBRANCH   2  34
TORSDOF 14
