REMARK SMILES CCN1CCN(Cc2c(O)ccc(C(=O)Cc3ccc(OC)cc3)c2O)CC1
REMARK SMILES IDX 8 1 9 2 11 3 12 4 13 5 25 6 7 7 6 8 3 9 4 10 28 11 5 12
REMARK SMILES IDX 27 13 2 14 1 15 10 16 26 18 14 20 15 21 16 22 17 23 18 24
REMARK SMILES IDX 24 25 19 26 23 27 20 28 21 29 22 30
REMARK H PARENT 10 17 26 19
ROOT
ATOM      1  C   UNL     1      -0.897  -0.852  -0.280  1.00  0.00     0.050 A 
ATOM      2  C   UNL     1      -0.977  -0.716  -1.684  1.00  0.00     0.123 A 
ATOM      3  C   UNL     1      -0.075   0.101  -2.351  1.00  0.00     0.047 A 
ATOM      4  C   UNL     1       0.931   0.771  -1.667  1.00  0.00     0.019 A 
ATOM      5  C   UNL     1       1.078   0.663  -0.267  1.00  0.00     0.060 A 
ATOM      6  C   UNL     1       0.130  -0.164   0.431  1.00  0.00     0.134 A 
ENDROOT
BRANCH   1   7
ATOM      7  C   UNL     1      -1.864  -1.761   0.489  1.00  0.00     0.128 C 
BRANCH   7   8
ATOM      8  N   UNL     1      -3.232  -1.228   0.690  1.00  0.00    -0.296 NA
ATOM      9  N   UNL     1      -5.864  -0.060   0.705  1.00  0.00    -0.301 NA
ATOM     10  C   UNL     1      -4.733   0.562   1.437  1.00  0.00     0.100 C 
ATOM     11  C   UNL     1      -5.645  -1.514   0.538  1.00  0.00     0.100 C 
ATOM     12  C   UNL     1      -3.367   0.232   0.805  1.00  0.00     0.100 C 
ATOM     13  C   UNL     1      -4.299  -1.812  -0.135  1.00  0.00     0.100 C 
BRANCH   9  14
ATOM     14  C   UNL     1      -6.213   0.610  -0.568  1.00  0.00     0.081 C 
ATOM     15  C   UNL     1      -6.958   1.920  -0.317  1.00  0.00     0.021 C 
ENDBRANCH   9  14
ENDBRANCH   7   8
ENDBRANCH   1   7
BRANCH   2  16
ATOM     16  O   UNL     1      -1.880  -1.382  -2.432  1.00  0.00    -0.507 OA
ATOM     17  H   UNL     1      -2.457  -2.072  -2.089  1.00  0.00     0.293 HD
ENDBRANCH   2  16
BRANCH   6  18
ATOM     18  O   UNL     1       0.156  -0.347   1.775  1.00  0.00    -0.507 OA
ATOM     19  H   UNL     1       0.751   0.028   2.427  1.00  0.00     0.293 HD
ENDBRANCH   6  18
BRANCH   5  20
ATOM     20  C   UNL     1       2.228   1.378   0.426  1.00  0.00     0.170 C 
ATOM     21  O   UNL     1       2.320   1.338   1.640  1.00  0.00    -0.294 OA
BRANCH  20  22
ATOM     22  C   UNL     1       3.349   2.123  -0.286  1.00  0.00     0.116 C 
BRANCH  22  23
ATOM     23  C   UNL     1       4.649   1.357  -0.150  1.00  0.00    -0.040 A 
ATOM     24  C   UNL     1       5.291   0.857  -1.296  1.00  0.00     0.008 A 
ATOM     25  C   UNL     1       5.228   1.115   1.110  1.00  0.00     0.008 A 
ATOM     26  C   UNL     1       6.471   0.117  -1.185  1.00  0.00     0.047 A 
ATOM     27  C   UNL     1       6.406   0.371   1.220  1.00  0.00     0.047 A 
ATOM     28  C   UNL     1       7.035  -0.141   0.069  1.00  0.00     0.118 A 
BRANCH  28  29
ATOM     29  O   UNL     1       8.170  -0.887   0.123  1.00  0.00    -0.497 OA
ATOM     30  C   UNL     1       8.814  -1.288   1.275  1.00  0.00     0.278 C 
ENDBRANCH  28  29
ENDBRANCH  22  23
ENDBRANCH  20  22
ENDBRANCH   5  20
TORSDOF 9
