REMARK SMILES CC1(C)CCC[C@H]2C[C@H]3C[C@]21CC=C3C(=O)O
REMARK SMILES IDX 15 1 16 2 14 3 2 4 4 5 11 6 5 7 10 8 12 9 7 10 6 11 9 12
REMARK SMILES IDX 13 13 8 14 1 15 3 16 17 17
REMARK H PARENT 17 18
ROOT
ATOM      1  C   UNL     1       4.190   0.193   0.580  1.00  0.00     0.331 C 
ATOM      2  O   UNL     1       4.703   0.645   1.591  1.00  0.00    -0.247 OA
ENDROOT
BRANCH   1   3
ATOM      3  C   UNL     1       2.703   0.281   0.398  1.00  0.00     0.036 C 
ATOM      4  C   UNL     1      -1.708   0.704  -0.273  1.00  0.00    -0.029 C 
ATOM      5  C   UNL     1      -2.547  -0.250   0.616  1.00  0.00     0.007 C 
ATOM      6  C   UNL     1      -0.157   0.305  -0.067  1.00  0.00    -0.018 C 
ATOM      7  C   UNL     1      -2.419  -1.746   0.236  1.00  0.00     0.001 C 
ATOM      8  C   UNL     1       0.791   0.691  -1.221  1.00  0.00     0.016 C 
ATOM      9  C   UNL     1       0.449   0.979   1.228  1.00  0.00     0.035 C 
ATOM     10  C   UNL     1       0.082  -1.253   0.093  1.00  0.00    -0.003 C 
ATOM     11  C   UNL     1      -1.071  -2.127  -0.407  1.00  0.00     0.004 C 
ATOM     12  C   UNL     1       2.027  -0.173  -0.892  1.00  0.00     0.027 C 
ATOM     13  C   UNL     1       1.940   0.806   1.379  1.00  0.00    -0.015 C 
ATOM     14  C   UNL     1       1.377  -1.540  -0.696  1.00  0.00     0.012 C 
ATOM     15  C   UNL     1      -2.008   2.164   0.164  1.00  0.00     0.011 C 
ATOM     16  C   UNL     1      -2.203   0.630  -1.748  1.00  0.00     0.011 C 
ENDBRANCH   1   3
BRANCH   1  17
ATOM     17  O   UNL     1       4.998  -0.393  -0.333  1.00  0.00    -0.478 OA
ATOM     18  H   UNL     1       4.688  -0.826  -1.137  1.00  0.00     0.297 HD
ENDBRANCH   1  17
TORSDOF 2
