REMARK SMILES CC(=O)OC[C@]12[C@H](OC(C)=O)[C@@H](OC(C)=O)[C@@H]3OC(=O)[C@H](C)CCc4ncccc4C(=O)OC[C@]4(C)O[C@]1([C@H](OC(C)=O)[C@@H]4C(=O)[C@@H]2OC(C)=O)[C@]3(C)O
REMARK SMILES IDX 34 1 35 2 6 3 7 4 38 5 47 6 12 7 37 8 39 9 52 10 45 11 17 12
REMARK SMILES IDX 44 13 46 14 53 15 36 16 5 17 4 18 2 19 3 20 1 21 8 22 9 23
REMARK SMILES IDX 11 24 10 25 48 26 49 27 51 28 50 29 13 30 14 31 16 32 15 33
REMARK SMILES IDX 40 34 41 35 43 36 42 37 54 38 18 40 19 41 20 42 21 43 22 44
REMARK SMILES IDX 33 46 31 47 32 48 30 49 29 50 25 51 28 52 26 53 27 54 24 55
REMARK SMILES IDX 23 56
REMARK H PARENT 54 39
REMARK Flexibility Score:   73.900
ROOT
ATOM      1  C   UNL     1       1.549  -3.223   0.102  1.00  0.00     0.269 C 
ENDROOT
BRANCH   1   2
ATOM      2  C   UNL     1       1.053  -2.458  -1.149  1.00  0.00     0.114 C 
ATOM      3  C   UNL     1      -1.621  -0.441  -0.523  1.00  0.00     0.125 C 
ATOM      4  C   UNL     1      -1.519   0.749   0.560  1.00  0.00     0.238 C 
ATOM      5  C   UNL     1      -0.275  -0.541  -1.485  1.00  0.00     0.155 C 
ATOM      6  C   UNL     1      -1.622  -1.821   0.227  1.00  0.00     0.260 C 
ATOM      7  C   UNL     1      -0.719   2.013   0.155  1.00  0.00     0.262 C 
ATOM      8  O   UNL     1       0.818  -1.122  -0.744  1.00  0.00    -0.356 OA
ATOM      9  C   UNL     1      -0.477  -1.584  -2.641  1.00  0.00     0.226 C 
ATOM     10  C   UNL     1       0.342   0.850  -1.871  1.00  0.00     0.136 C 
ATOM     11  C   UNL     1      -1.425  -2.961  -0.775  1.00  0.00     0.184 C 
ATOM     12  C   UNL     1       0.592   1.570  -0.486  1.00  0.00     0.255 C 
ATOM     13  C   UNL     1      -0.283  -2.861  -1.810  1.00  0.00     0.139 C 
ATOM     14  O   UNL     1      -2.168  -3.930  -0.772  1.00  0.00    -0.295 OA
ATOM     15  C   UNL     1      -0.501   1.692  -2.864  1.00  0.00     0.050 C 
ATOM     16  C   UNL     1       2.257  -2.562  -2.161  1.00  0.00     0.047 C 
BRANCH   3  17
ATOM     17  C   UNL     1      -3.018  -0.315  -1.280  1.00  0.00     0.251 C 
BRANCH  17  18
ATOM     18  O   UNL     1      -4.092  -0.373  -0.406  1.00  0.00    -0.465 OA
BRANCH  18  19
ATOM     19  C   UNL     1      -5.395  -0.402  -0.790  1.00  0.00     0.302 C 
ATOM     20  O   UNL     1      -5.707  -0.264  -1.965  1.00  0.00    -0.253 OA
ATOM     21  C   UNL     1      -6.455  -0.650   0.236  1.00  0.00     0.139 C 
ENDBRANCH  18  19
ENDBRANCH  17  18
ENDBRANCH   3  17
BRANCH   4  22
ATOM     22  O   UNL     1      -2.766   1.235   0.917  1.00  0.00    -0.457 OA
BRANCH  22  23
ATOM     23  C   UNL     1      -3.303   1.422   2.144  1.00  0.00     0.303 C 
ATOM     24  O   UNL     1      -2.717   1.061   3.155  1.00  0.00    -0.253 OA
ATOM     25  C   UNL     1      -4.608   2.146   2.239  1.00  0.00     0.139 C 
ENDBRANCH  22  23
ENDBRANCH   4  22
BRANCH   6  26
ATOM     26  O   UNL     1      -2.731  -2.014   1.041  1.00  0.00    -0.453 OA
BRANCH  26  27
ATOM     27  C   UNL     1      -2.692  -2.132   2.401  1.00  0.00     0.303 C 
ATOM     28  O   UNL     1      -1.634  -2.083   3.012  1.00  0.00    -0.253 OA
ATOM     29  C   UNL     1      -3.959  -2.306   3.170  1.00  0.00     0.139 C 
ENDBRANCH  26  27
ENDBRANCH   6  26
BRANCH   7  30
ATOM     30  O   UNL     1      -0.439   2.710   1.321  1.00  0.00    -0.454 OA
BRANCH  30  31
ATOM     31  C   UNL     1      -0.727   4.007   1.595  1.00  0.00     0.303 C 
ATOM     32  O   UNL     1      -1.322   4.710   0.793  1.00  0.00    -0.253 OA
ATOM     33  C   UNL     1      -0.274   4.585   2.899  1.00  0.00     0.139 C 
ENDBRANCH  30  31
ENDBRANCH   7  30
BRANCH   9  34
ATOM     34  O   UNL     1      -1.667  -1.558  -3.336  1.00  0.00    -0.458 OA
BRANCH  34  35
ATOM     35  C   UNL     1      -1.848  -1.437  -4.678  1.00  0.00     0.303 C 
ATOM     36  O   UNL     1      -0.901  -1.299  -5.438  1.00  0.00    -0.253 OA
ATOM     37  C   UNL     1      -3.237  -1.482  -5.229  1.00  0.00     0.139 C 
ENDBRANCH  34  35
ENDBRANCH   9  34
BRANCH  10  38
ATOM     38  O   UNL     1       1.617   0.644  -2.444  1.00  0.00    -0.383 OA
ATOM     39  H   UNL     1       1.515   0.383  -3.396  1.00  0.00     0.211 HD
ENDBRANCH  10  38
BRANCH  12  40
ATOM     40  O   UNL     1       1.592   2.543  -0.525  1.00  0.00    -0.455 OA
BRANCH  40  41
ATOM     41  C   UNL     1       2.512   2.602   0.502  1.00  0.00     0.309 C 
ATOM     42  O   UNL     1       2.135   2.535   1.663  1.00  0.00    -0.252 OA
BRANCH  41  43
ATOM     43  C   UNL     1       4.002   2.598   0.266  1.00  0.00     0.096 CG0
ATOM     44  C   UNL     1       4.415   3.875  -0.466  1.00  0.00     0.020 C 
ATOM     45  G   UNL     1       4.461   1.325  -0.496  1.00  0.00     0.000 G0
ENDBRANCH  41  43
ENDBRANCH  40  41
ENDBRANCH  12  40
ENDBRANCH   1   2
BRANCH   1  46
ATOM     46  O   UNL     1       2.605  -2.461   0.599  1.00  0.00    -0.459 OA
BRANCH  46  47
ATOM     47  C   UNL     1       3.359  -2.677   1.698  1.00  0.00     0.340 C 
ATOM     48  O   UNL     1       3.183  -3.696   2.351  1.00  0.00    -0.246 OA
BRANCH  47  49
ATOM     49  C   UNL     1       4.378  -1.656   2.148  1.00  0.00     0.081 A 
ATOM     50  C   UNL     1       5.071  -1.919   3.348  1.00  0.00     0.019 A 
ATOM     51  C   UNL     1       4.691  -0.430   1.459  1.00  0.00     0.055 A 
ATOM     52  C   UNL     1       6.013  -1.024   3.844  1.00  0.00     0.021 A 
ATOM     53  N   UNL     1       5.624   0.410   1.990  1.00  0.00    -0.260 NA
ATOM     54  C   UNL     1       6.279   0.147   3.148  1.00  0.00     0.111 A 
BRANCH  51  55
ATOM     55  C   UNL     1       4.056  -0.040   0.139  1.00  0.00     0.058 C 
BRANCH  55  56
ATOM     56  C   UNL     1       4.461   1.325  -0.496  1.00  0.00     0.021 CG0
ATOM     57  G   UNL     1       4.002   2.598   0.266  1.00  0.00     0.000 G0
ENDBRANCH  55  56
ENDBRANCH  51  55
ENDBRANCH  47  49
ENDBRANCH  46  47
ENDBRANCH   1  46
TORSDOF 12
