REMARK SMILES NCCO[C@@H]1O[C@H](COC(=O)CC(=O)O)[C@@H](O)[C@H](O)[C@H]1OOc1cc(Cc2ccc(O)cc2)c2c(c1)[C@H]1Oc3cc4c(cc3[C@H]1CO2)OCO4
REMARK SMILES IDX 5 1 6 2 7 3 16 4 18 5 20 6 4 7 3 8 2 9 1 10 21 13 22 14
REMARK SMILES IDX 23 15 24 16 36 17 25 18 35 19 34 20 37 21 47 22 38 23 45 24
REMARK SMILES IDX 46 25 39 26 44 27 40 28 43 29 41 30 42 31 50 32 48 33 49 34
REMARK SMILES IDX 26 35 27 36 28 37 33 38 29 39 32 40 30 41 31 42 8 44 9 45
REMARK SMILES IDX 10 46 11 47 12 48 13 49 14 50 15 51 19 53 17 55
REMARK H PARENT 1 11 1 12 31 43 15 52 19 54 17 56
ROOT
ATOM      1  C   UNL     1       3.875   0.709  -0.476  1.00  0.00     0.286 C 
ATOM      2  O   UNL     1       4.721   0.413   0.631  1.00  0.00    -0.340 OA
ATOM      3  C   UNL     1       4.453  -0.808   1.329  1.00  0.00     0.190 C 
ATOM      4  C   UNL     1       3.558  -1.801   0.535  1.00  0.00     0.178 C 
ATOM      5  C   UNL     1       2.221  -1.144   0.153  1.00  0.00     0.184 C 
ATOM      6  C   UNL     1       2.398   0.351  -0.213  1.00  0.00     0.257 C 
ENDROOT
BRANCH   1   7
ATOM      7  O   UNL     1       4.356   0.038  -1.633  1.00  0.00    -0.348 OA
BRANCH   7   8
ATOM      8  C   UNL     1       4.305   0.880  -2.770  1.00  0.00     0.178 C 
BRANCH   8   9
ATOM      9  C   UNL     1       4.400   0.043  -4.045  1.00  0.00     0.106 C 
BRANCH   9  10
ATOM     10  N   UNL     1       5.658  -0.695  -4.095  1.00  0.00    -0.328 NA
ATOM     11  H   UNL     1       5.702  -1.208  -5.005  1.00  0.00     0.118 HD
ATOM     12  H   UNL     1       5.667  -1.410  -3.332  1.00  0.00     0.118 HD
ENDBRANCH   9  10
ENDBRANCH   8   9
ENDBRANCH   7   8
ENDBRANCH   1   7
BRANCH   6  13
ATOM     13  O   UNL     1       1.888   1.157   0.851  1.00  0.00    -0.177 OA
BRANCH  13  14
ATOM     14  O   UNL     1       0.972   1.930   0.335  1.00  0.00    -0.337 OA
BRANCH  14  15
ATOM     15  C   UNL     1      -0.245   1.446  -0.007  1.00  0.00     0.166 A 
ATOM     16  C   UNL     1      -0.739   1.768  -1.268  1.00  0.00     0.058 A 
ATOM     17  C   UNL     1      -0.957   0.568   0.826  1.00  0.00     0.062 A 
ATOM     18  C   UNL     1      -1.915   1.182  -1.744  1.00  0.00     0.003 A 
ATOM     19  C   UNL     1      -2.146  -0.025   0.369  1.00  0.00     0.039 A 
ATOM     20  C   UNL     1      -2.605   0.257  -0.938  1.00  0.00     0.130 A 
ATOM     21  C   UNL     1      -2.860  -1.061   1.208  1.00  0.00     0.218 C 
ATOM     22  O   UNL     1      -3.679  -0.398  -1.450  1.00  0.00    -0.492 OA
ATOM     23  O   UNL     1      -3.689  -0.578   2.213  1.00  0.00    -0.484 OA
ATOM     24  C   UNL     1      -3.736  -2.004   0.360  1.00  0.00     0.106 C 
ATOM     25  C   UNL     1      -4.515  -1.204  -0.709  1.00  0.00     0.242 C 
ATOM     26  C   UNL     1      -4.679  -1.480   2.401  1.00  0.00     0.128 A 
ATOM     27  C   UNL     1      -4.717  -2.419   1.380  1.00  0.00     0.009 A 
ATOM     28  C   UNL     1      -5.602  -1.523   3.460  1.00  0.00     0.097 A 
ATOM     29  C   UNL     1      -5.655  -3.460   1.352  1.00  0.00     0.058 A 
ATOM     30  C   UNL     1      -6.532  -2.576   3.421  1.00  0.00     0.169 A 
ATOM     31  C   UNL     1      -6.548  -3.501   2.422  1.00  0.00     0.166 A 
ATOM     32  O   UNL     1      -7.513  -2.855   4.283  1.00  0.00    -0.453 OA
ATOM     33  O   UNL     1      -7.534  -4.372   2.643  1.00  0.00    -0.454 OA
ATOM     34  C   UNL     1      -8.175  -3.994   3.819  1.00  0.00     0.468 C 
BRANCH  18  35
ATOM     35  C   UNL     1      -2.418   1.530  -3.122  1.00  0.00     0.075 C 
BRANCH  35  36
ATOM     36  C   UNL     1      -3.542   2.525  -3.003  1.00  0.00    -0.043 A 
ATOM     37  C   UNL     1      -4.849   2.203  -3.397  1.00  0.00     0.008 A 
ATOM     38  C   UNL     1      -3.272   3.809  -2.495  1.00  0.00     0.008 A 
ATOM     39  C   UNL     1      -5.872   3.151  -3.274  1.00  0.00     0.046 A 
ATOM     40  C   UNL     1      -4.292   4.755  -2.380  1.00  0.00     0.046 A 
ATOM     41  C   UNL     1      -5.595   4.432  -2.768  1.00  0.00     0.115 A 
BRANCH  41  42
ATOM     42  O   UNL     1      -6.567   5.356  -2.648  1.00  0.00    -0.508 OA
ATOM     43  H   UNL     1      -7.483   5.176  -2.902  1.00  0.00     0.293 HD
ENDBRANCH  41  42
ENDBRANCH  35  36
ENDBRANCH  18  35
ENDBRANCH  14  15
ENDBRANCH  13  14
ENDBRANCH   6  13
BRANCH   3  44
ATOM     44  C   UNL     1       5.793  -1.499   1.662  1.00  0.00     0.267 C 
BRANCH  44  45
ATOM     45  O   UNL     1       6.648  -0.670   2.366  1.00  0.00    -0.462 OA
BRANCH  45  46
ATOM     46  C   UNL     1       7.421   0.306   1.814  1.00  0.00     0.317 C 
ATOM     47  O   UNL     1       7.432   0.472   0.601  1.00  0.00    -0.252 OA
BRANCH  46  48
ATOM     48  C   UNL     1       8.310   1.185   2.660  1.00  0.00     0.244 C 
BRANCH  48  49
ATOM     49  C   UNL     1       8.291   0.933   4.152  1.00  0.00     0.314 C 
ATOM     50  O   UNL     1       7.583   0.069   4.649  1.00  0.00    -0.252 OA
BRANCH  49  51
ATOM     51  O   UNL     1       9.073   1.675   4.961  1.00  0.00    -0.481 OA
ATOM     52  H   UNL     1       9.652   2.367   4.608  1.00  0.00     0.296 HD
ENDBRANCH  49  51
ENDBRANCH  48  49
ENDBRANCH  46  48
ENDBRANCH  45  46
ENDBRANCH  44  45
ENDBRANCH   3  44
BRANCH   5  53
ATOM     53  O   UNL     1       1.599  -1.870  -0.878  1.00  0.00    -0.387 OA
ATOM     54  H   UNL     1       2.159  -1.775  -1.693  1.00  0.00     0.211 HD
ENDBRANCH   5  53
BRANCH   4  55
ATOM     55  O   UNL     1       3.336  -3.006   1.225  1.00  0.00    -0.387 OA
ATOM     56  H   UNL     1       2.931  -2.776   2.101  1.00  0.00     0.211 HD
ENDBRANCH   4  55
TORSDOF 18
