REMARK SMILES CCCCCCCO[C@@H]1O[C@H](COC(C)=O)[C@H](OC(C)=O)[C@H](OC(C)=O)[C@H]1NC(C)=O
REMARK SMILES IDX 7 1 6 2 5 3 4 4 3 5 2 6 1 7 8 8 9 9 10 10 27 11 11 12 22 13
REMARK SMILES IDX 17 14 28 15 29 16 31 17 30 19 12 20 13 21 14 22 16 23 15 24
REMARK SMILES IDX 23 25 24 26 26 27 25 28 18 29 19 30 21 31 20 32
REMARK H PARENT 28 18
ROOT
ATOM      1  C   UNL     1       1.905  -0.581   0.167  1.00  0.00     0.163 C 
ENDROOT
BRANCH   1   2
ATOM      2  C   UNL     1       2.988  -1.151   1.084  1.00  0.00     0.029 C 
BRANCH   2   3
ATOM      3  C   UNL     1       4.366  -1.212   0.386  1.00  0.00     0.002 C 
BRANCH   3   4
ATOM      4  C   UNL     1       4.928   0.147  -0.089  1.00  0.00     0.000 C 
BRANCH   4   5
ATOM      5  C   UNL     1       5.145   1.183   1.033  1.00  0.00    -0.000 C 
BRANCH   5   6
ATOM      6  C   UNL     1       6.151   0.759   2.119  1.00  0.00    -0.003 C 
ATOM      7  C   UNL     1       7.564   0.548   1.574  1.00  0.00     0.004 C 
ENDBRANCH   5   6
ENDBRANCH   4   5
ENDBRANCH   3   4
ENDBRANCH   2   3
ENDBRANCH   1   2
BRANCH   1   8
ATOM      8  O   UNL     1       0.631  -0.620   0.791  1.00  0.00    -0.350 OA
BRANCH   8   9
ATOM      9  C   UNL     1      -0.360  -0.149  -0.118  1.00  0.00     0.276 C 
ATOM     10  O   UNL     1      -0.956   1.031   0.405  1.00  0.00    -0.339 OA
ATOM     11  C   UNL     1      -1.458  -1.210  -0.313  1.00  0.00     0.183 C 
ATOM     12  C   UNL     1      -1.810   1.630  -0.566  1.00  0.00     0.204 C 
ATOM     13  C   UNL     1      -2.381  -0.686  -1.429  1.00  0.00     0.247 C 
ATOM     14  C   UNL     1      -2.962   0.667  -0.988  1.00  0.00     0.252 C 
BRANCH  11  15
ATOM     15  N   UNL     1      -0.897  -2.506  -0.669  1.00  0.00    -0.345 N 
ATOM     16  C   UNL     1      -1.106  -3.624   0.089  1.00  0.00     0.217 C 
ATOM     17  O   UNL     1      -1.780  -3.575   1.108  1.00  0.00    -0.275 OA
ATOM     18  H   UNL     1      -0.327  -2.575  -1.527  1.00  0.00     0.164 HD
ATOM     19  C   UNL     1      -0.522  -4.947  -0.307  1.00  0.00     0.114 C 
ENDBRANCH  11  15
BRANCH  12  20
ATOM     20  C   UNL     1      -2.400   2.922   0.020  1.00  0.00     0.269 C 
BRANCH  20  21
ATOM     21  O   UNL     1      -1.397   3.774   0.439  1.00  0.00    -0.463 OA
BRANCH  21  22
ATOM     22  C   UNL     1      -1.646   4.964   1.047  1.00  0.00     0.302 C 
ATOM     23  O   UNL     1      -2.792   5.360   1.205  1.00  0.00    -0.253 OA
ATOM     24  C   UNL     1      -0.511   5.794   1.552  1.00  0.00     0.139 C 
ENDBRANCH  21  22
ENDBRANCH  20  21
ENDBRANCH  12  20
BRANCH  13  25
ATOM     25  O   UNL     1      -3.406  -1.587  -1.678  1.00  0.00    -0.456 OA
BRANCH  25  26
ATOM     26  C   UNL     1      -3.632  -2.207  -2.868  1.00  0.00     0.303 C 
ATOM     27  O   UNL     1      -2.906  -2.016  -3.832  1.00  0.00    -0.253 OA
ATOM     28  C   UNL     1      -4.790  -3.143  -2.999  1.00  0.00     0.139 C 
ENDBRANCH  25  26
ENDBRANCH  13  25
BRANCH  14  29
ATOM     29  O   UNL     1      -3.824   0.450   0.080  1.00  0.00    -0.456 OA
BRANCH  29  30
ATOM     30  C   UNL     1      -5.155   0.734   0.083  1.00  0.00     0.303 C 
ATOM     31  O   UNL     1      -5.695   1.256  -0.881  1.00  0.00    -0.253 OA
ATOM     32  C   UNL     1      -5.975   0.394   1.282  1.00  0.00     0.139 C 
ENDBRANCH  29  30
ENDBRANCH  14  29
ENDBRANCH   8   9
ENDBRANCH   1   8
TORSDOF 15
