REMARK SMILES O=C1C=C(/C=C/c2ccc(O)cc2)C[C@@H](c2cc(O)cc(O)c2)[C@H](c2ccc(O)cc2)C1
REMARK SMILES IDX 14 1 4 2 3 3 2 4 1 5 32 6 5 8 6 9 7 10 8 11 13 12 9 13 12 14
REMARK SMILES IDX 10 15 11 16 15 18 16 19 17 20 23 21 18 22 21 23 20 24 19 25
REMARK SMILES IDX 22 27 24 29 25 31 26 32 31 33 27 34 30 35 28 36 29 37
REMARK H PARENT 11 17 19 26 22 28 29 38
REMARK Flexibility Score:   49.900
ROOT
ATOM      1  C   UNL     1       0.152  -0.905   1.040  1.00  0.00     0.044 C 
ENDROOT
BRANCH   1   2
ATOM      2  C   UNL     1       1.203   0.208   1.154  1.00  0.00    -0.044 C 
ATOM      3  C   UNL     1       0.937   1.428   1.700  1.00  0.00     0.051 C 
BRANCH   3   4
ATOM      4  C   UNL     1      -0.344   1.886   2.288  1.00  0.00     0.156 C 
ATOM      5  O   UNL     1      -0.435   3.050   2.649  1.00  0.00    -0.295 OA
BRANCH   4   6
ATOM      6  C   UNL     1      -1.497   0.972   2.538  1.00  0.00     0.089 CG0
ATOM      7  G   UNL     1      -2.124   0.327   1.284  1.00  0.00     0.000 G0
ENDBRANCH   4   6
ENDBRANCH   3   4
BRANCH   2   8
ATOM      8  C   UNL     1       2.561  -0.111   0.577  1.00  0.00     0.004 C 
ATOM      9  C   UNL     1       3.642   0.705   0.590  1.00  0.00     0.008 C 
BRANCH   9  10
ATOM     10  C   UNL     1       4.984   0.358   0.034  1.00  0.00    -0.025 A 
ATOM     11  C   UNL     1       6.011   1.313   0.149  1.00  0.00     0.012 A 
ATOM     12  C   UNL     1       5.278  -0.874  -0.592  1.00  0.00     0.012 A 
ATOM     13  C   UNL     1       7.293   1.050  -0.340  1.00  0.00     0.047 A 
ATOM     14  C   UNL     1       6.563  -1.131  -1.081  1.00  0.00     0.047 A 
ATOM     15  C   UNL     1       7.574  -0.174  -0.957  1.00  0.00     0.115 A 
BRANCH  15  16
ATOM     16  O   UNL     1       8.807  -0.443  -1.432  1.00  0.00    -0.508 OA
ATOM     17  H   UNL     1       9.534   0.193  -1.362  1.00  0.00     0.293 HD
ENDBRANCH  15  16
ENDBRANCH   9  10
ENDBRANCH   2   8
ENDBRANCH   1   2
BRANCH   1  18
ATOM     18  C   UNL     1      -1.128  -0.411   0.326  1.00  0.00     0.032 C 
BRANCH  18  19
ATOM     19  C   UNL     1      -1.845  -1.568  -0.360  1.00  0.00    -0.037 A 
ATOM     20  C   UNL     1      -2.023  -1.567  -1.755  1.00  0.00     0.050 A 
ATOM     21  C   UNL     1      -2.329  -2.660   0.388  1.00  0.00     0.050 A 
ATOM     22  C   UNL     1      -2.678  -2.635  -2.390  1.00  0.00     0.119 A 
ATOM     23  C   UNL     1      -2.981  -3.724  -0.243  1.00  0.00     0.119 A 
ATOM     24  C   UNL     1      -3.155  -3.708  -1.633  1.00  0.00     0.092 A 
BRANCH  22  25
ATOM     25  O   UNL     1      -2.852  -2.639  -3.727  1.00  0.00    -0.508 OA
ATOM     26  H   UNL     1      -2.536  -1.919  -4.290  1.00  0.00     0.293 HD
ENDBRANCH  22  25
BRANCH  23  27
ATOM     27  O   UNL     1      -3.435  -4.756   0.498  1.00  0.00    -0.508 OA
ATOM     28  H   UNL     1      -3.891  -5.512   0.102  1.00  0.00     0.293 HD
ENDBRANCH  23  27
ENDBRANCH  18  19
BRANCH  18  29
ATOM     29  C   UNL     1      -2.124   0.327   1.284  1.00  0.00     0.035 CG0
ATOM     30  G   UNL     1      -1.497   0.972   2.538  1.00  0.00     0.000 G0
BRANCH  29  31
ATOM     31  C   UNL     1      -2.993   1.312   0.517  1.00  0.00    -0.044 A 
ATOM     32  C   UNL     1      -2.431   2.424  -0.140  1.00  0.00     0.008 A 
ATOM     33  C   UNL     1      -4.387   1.129   0.465  1.00  0.00     0.008 A 
ATOM     34  C   UNL     1      -3.244   3.332  -0.825  1.00  0.00     0.046 A 
ATOM     35  C   UNL     1      -5.198   2.039  -0.221  1.00  0.00     0.046 A 
ATOM     36  C   UNL     1      -4.631   3.143  -0.865  1.00  0.00     0.115 A 
BRANCH  36  37
ATOM     37  O   UNL     1      -5.428   4.014  -1.517  1.00  0.00    -0.508 OA
ATOM     38  H   UNL     1      -5.075   4.793  -1.970  1.00  0.00     0.293 HD
ENDBRANCH  36  37
ENDBRANCH  29  31
ENDBRANCH  18  29
ENDBRANCH   1  18
TORSDOF 8
