REMARK SMILES C=C[C@@H](C)CC[C@@H]1[C@@]2(C)CCCC(C)(C)[C@@H]2CC[C@@]1(C)O
REMARK SMILES IDX 6 1 5 2 3 3 4 4 2 5 1 6 7 7 8 8 19 9 10 10 16 11 18 12 11 13
REMARK SMILES IDX 13 14 17 15 12 16 9 17 20 18 14 19 15 20 21 21
REMARK H PARENT 21 22
ROOT
ATOM      1  C   UNL     1       1.559  -0.546  -1.301  1.00  0.00     0.008 C 
ENDROOT
BRANCH   1   2
ATOM      2  C   UNL     1       2.418   0.142  -0.211  1.00  0.00     0.008 C 
BRANCH   2   3
ATOM      3  C   UNL     1       3.801   0.581  -0.752  1.00  0.00     0.008 C 
ATOM      4  C   UNL     1       4.716  -0.612  -1.072  1.00  0.00     0.012 C 
BRANCH   3   5
ATOM      5  C   UNL     1       4.489   1.451   0.274  1.00  0.00    -0.032 C 
ATOM      6  C   UNL     1       4.827   2.717   0.009  1.00  0.00     0.004 C 
ENDBRANCH   3   5
ENDBRANCH   2   3
ENDBRANCH   1   2
BRANCH   1   7
ATOM      7  C   UNL     1       0.099  -1.062  -0.979  1.00  0.00     0.027 C 
ATOM      8  C   UNL     1      -1.113   0.005  -0.791  1.00  0.00    -0.024 C 
ATOM      9  C   UNL     1       0.045  -2.176   0.126  1.00  0.00     0.065 C 
ATOM     10  C   UNL     1      -2.339  -0.376  -1.717  1.00  0.00     0.007 C 
ATOM     11  C   UNL     1      -1.689  -0.014   0.685  1.00  0.00     0.001 C 
ATOM     12  C   UNL     1       0.128  -1.539   1.562  1.00  0.00     0.035 C 
ATOM     13  C   UNL     1      -3.750   0.008  -1.162  1.00  0.00     0.001 C 
ATOM     14  C   UNL     1      -2.816   1.064   0.982  1.00  0.00    -0.032 C 
ATOM     15  C   UNL     1      -0.562  -0.155   1.710  1.00  0.00     0.007 C 
ATOM     16  C   UNL     1      -3.721   1.272  -0.292  1.00  0.00     0.007 C 
ATOM     17  C   UNL     1      -0.621   1.417  -1.242  1.00  0.00     0.012 C 
ATOM     18  C   UNL     1       1.143  -3.254  -0.035  1.00  0.00     0.042 C 
ATOM     19  C   UNL     1      -2.267   2.428   1.465  1.00  0.00     0.011 C 
ATOM     20  C   UNL     1      -3.713   0.519   2.131  1.00  0.00     0.011 C 
BRANCH   9  21
ATOM     21  O   UNL     1      -1.196  -2.831  -0.037  1.00  0.00    -0.390 OA
ATOM     22  H   UNL     1      -1.283  -3.537   0.656  1.00  0.00     0.211 HD
ENDBRANCH   9  21
ENDBRANCH   1   7
TORSDOF 5
