REMARK SMILES C[C@@H](N)C(=O)Nc1ccccc1C(=O)N[C@@H](O)CCS
REMARK SMILES IDX 13 1 14 2 15 3 12 5 7 6 8 7 9 8 11 9 10 10 6 11 4 12 5 13
REMARK SMILES IDX 2 15 1 16 3 17 16 20 17 21 18 23 19 24 20 25
REMARK H PARENT 15 4 6 14 3 18 3 19 17 22 20 26
ROOT
ATOM      1  C   UNL     1       0.709  -1.153  -0.713  1.00  0.00     0.255 C 
ATOM      2  O   UNL     1       0.202  -1.370   0.375  1.00  0.00    -0.269 OA
ATOM      3  N   UNL     1       1.947  -1.679  -0.965  1.00  0.00    -0.327 N 
ATOM      4  H   UNL     1       2.435  -1.495  -1.848  1.00  0.00     0.166 HD
ENDROOT
BRANCH   1   5
ATOM      5  C   UNL     1      -0.009  -0.253  -1.702  1.00  0.00     0.063 A 
ATOM      6  C   UNL     1      -1.183   0.495  -1.345  1.00  0.00     0.054 A 
ATOM      7  C   UNL     1      -1.751   1.382  -2.285  1.00  0.00     0.027 A 
ATOM      8  C   UNL     1      -1.207   1.532  -3.555  1.00  0.00     0.002 A 
ATOM      9  C   UNL     1       0.514  -0.068  -3.008  1.00  0.00     0.016 A 
ATOM     10  C   UNL     1      -0.082   0.806  -3.915  1.00  0.00     0.001 A 
BRANCH   6  11
ATOM     11  N   UNL     1      -1.804   0.365  -0.061  1.00  0.00    -0.324 N 
ATOM     12  C   UNL     1      -2.234   1.429   0.684  1.00  0.00     0.241 C 
ATOM     13  O   UNL     1      -2.047   2.571   0.287  1.00  0.00    -0.273 OA
ATOM     14  H   UNL     1      -1.885  -0.575   0.340  1.00  0.00     0.170 HD
BRANCH  12  15
ATOM     15  C   UNL     1      -2.860   1.244   2.061  1.00  0.00     0.138 C 
ATOM     16  C   UNL     1      -4.166   2.042   2.178  1.00  0.00     0.035 C 
BRANCH  15  17
ATOM     17  N   UNL     1      -3.100  -0.167   2.374  1.00  0.00    -0.320 NA
ATOM     18  H   UNL     1      -3.833  -0.553   1.734  1.00  0.00     0.119 HD
ATOM     19  H   UNL     1      -3.447  -0.255   3.357  1.00  0.00     0.119 HD
ENDBRANCH  15  17
ENDBRANCH  12  15
ENDBRANCH   6  11
ENDBRANCH   1   5
BRANCH   3  20
ATOM     20  C   UNL     1       2.687  -2.468   0.016  1.00  0.00     0.211 C 
BRANCH  20  21
ATOM     21  O   UNL     1       2.978  -3.736  -0.513  1.00  0.00    -0.374 OA
ATOM     22  H   UNL     1       3.526  -3.602  -1.331  1.00  0.00     0.213 HD
ENDBRANCH  20  21
BRANCH  20  23
ATOM     23  C   UNL     1       3.986  -1.741   0.424  1.00  0.00     0.065 C 
BRANCH  23  24
ATOM     24  C   UNL     1       3.743  -0.354   1.039  1.00  0.00     0.070 C 
BRANCH  24  25
ATOM     25  S   UNL     1       2.797  -0.444   2.597  1.00  0.00    -0.179 SA
ATOM     26  H   UNL     1       1.662   0.191   2.056  1.00  0.00     0.102 HD
ENDBRANCH  24  25
ENDBRANCH  23  24
ENDBRANCH  20  23
ENDBRANCH   3  20
TORSDOF 9
