REMARK SMILES CC1=CC(=O)[C@H]2C(C)(C)[C@@H](O)CC[C@@]2(C)[C@@H]1CO
REMARK SMILES IDX 1 1 2 2 3 3 4 4 5 5 6 6 7 7 8 8 9 9 10 10 12 11 13 12 14 13
REMARK SMILES IDX 15 14 16 15 17 16 18 17 11 19
REMARK H PARENT 18 18 11 20
ROOT
ATOM      1  C   UNL     1      -3.632  -0.100   1.537  1.00  0.00     0.040 C 
ATOM      2  C   UNL     1      -2.159   0.079   1.230  1.00  0.00    -0.064 C 
ATOM      3  C   UNL     1      -1.430   0.857   2.051  1.00  0.00     0.047 C 
ATOM      4  C   UNL     1      -0.022   1.200   1.772  1.00  0.00     0.159 C 
ATOM      5  O   UNL     1       0.586   1.841   2.614  1.00  0.00    -0.295 OA
ATOM      6  C   UNL     1       0.625   0.917   0.420  1.00  0.00     0.075 C 
ATOM      7  C   UNL     1       1.971   0.094   0.466  1.00  0.00     0.001 C 
ATOM      8  C   UNL     1       3.002   0.724   1.441  1.00  0.00     0.014 C 
ATOM      9  C   UNL     1       1.750  -1.360   0.969  1.00  0.00     0.014 C 
ATOM     10  C   UNL     1       2.621   0.143  -0.977  1.00  0.00     0.120 C 
ATOM     11  C   UNL     1       1.619   0.309  -2.158  1.00  0.00     0.033 C 
ATOM     12  C   UNL     1       0.280  -0.340  -1.843  1.00  0.00     0.011 C 
ATOM     13  C   UNL     1      -0.444   0.384  -0.646  1.00  0.00    -0.013 C 
ATOM     14  C   UNL     1      -1.210   1.621  -1.206  1.00  0.00     0.013 C 
ATOM     15  C   UNL     1      -1.476  -0.599   0.033  1.00  0.00     0.047 C 
ENDROOT
BRANCH  15  16
ATOM     16  C   UNL     1      -2.477  -1.258  -0.962  1.00  0.00     0.164 C 
BRANCH  16  17
ATOM     17  O   UNL     1      -3.249  -2.250  -0.341  1.00  0.00    -0.396 OA
ATOM     18  H   UNL     1      -2.651  -3.030  -0.197  1.00  0.00     0.210 HD
ENDBRANCH  16  17
ENDBRANCH  15  16
BRANCH  10  19
ATOM     19  O   UNL     1       3.503  -0.934  -1.177  1.00  0.00    -0.393 OA
ATOM     20  H   UNL     1       2.961  -1.721  -1.444  1.00  0.00     0.210 HD
ENDBRANCH  10  19
TORSDOF 3
