REMARK SMILES O=c1c(O[C@@H]2O[C@H](CO[C@@H]3O[C@H](COS(=O)(=O)O)[C@@H](O)[C@@H](O)[C@H]3O)[C@@H](O)[C@@H](O)[C@@H]2O)c(-c2ccc(O)cc2)oc2cc(O)cc(O)c12
REMARK SMILES IDX 8 1 7 2 5 3 6 4 29 5 27 6 25 7 4 8 3 9 1 10 2 11 47 12 31 13
REMARK SMILES IDX 45 14 40 15 39 16 44 17 41 18 42 19 32 20 33 21 38 22 34 23
REMARK SMILES IDX 37 24 35 25 36 26 46 28 43 30 30 32 28 34 26 36 9 38 10 39
REMARK SMILES IDX 11 40 23 41 12 42 21 43 19 44 24 45 13 47 14 48 15 49 16 50
REMARK SMILES IDX 17 51 18 52 22 54 20 56
REMARK H PARENT 36 27 46 29 43 31 30 33 28 35 26 37 24 46 18 53 22 55 20 57
ROOT
ATOM      1  C   UNL     1       1.191  -1.745  -0.184  1.00  0.00     0.198 C 
ENDROOT
BRANCH   1   2
ATOM      2  C   UNL     1       0.539  -0.344  -0.266  1.00  0.00     0.180 C 
ATOM      3  C   UNL     1      -1.571   0.738  -0.325  1.00  0.00     0.339 C 
ATOM      4  O   UNL     1      -0.843  -0.454   0.012  1.00  0.00    -0.332 OA
ATOM      5  C   UNL     1      -0.728   2.051  -0.165  1.00  0.00     0.214 C 
ATOM      6  C   UNL     1       0.207   1.851   1.037  1.00  0.00     0.180 C 
ATOM      7  C   UNL     1       1.189   0.697   0.708  1.00  0.00     0.177 C 
BRANCH   3   8
ATOM      8  O   UNL     1      -2.707   0.811   0.476  1.00  0.00    -0.454 OA
BRANCH   8   9
ATOM      9  C   UNL     1      -3.767  -0.032   0.329  1.00  0.00     0.214 A 
ATOM     10  O   UNL     1      -2.671  -1.795   1.260  1.00  0.00    -0.285 OA
ATOM     11  C   UNL     1      -3.681  -1.385   0.714  1.00  0.00     0.239 A 
ATOM     12  C   UNL     1      -4.764  -2.257   0.471  1.00  0.00     0.111 A 
ATOM     13  C   UNL     1      -4.971   0.425  -0.271  1.00  0.00     0.180 A 
ATOM     14  C   UNL     1      -4.753  -3.630   0.824  1.00  0.00     0.134 A 
ATOM     15  C   UNL     1      -5.904  -1.723  -0.167  1.00  0.00     0.146 A 
ATOM     16  O   UNL     1      -5.953  -0.442  -0.502  1.00  0.00    -0.452 OA
ATOM     17  C   UNL     1      -5.869  -4.432   0.534  1.00  0.00     0.093 A 
ATOM     18  C   UNL     1      -7.004  -2.537  -0.449  1.00  0.00     0.094 A 
ATOM     19  C   UNL     1      -6.990  -3.892  -0.100  1.00  0.00     0.123 A 
BRANCH  13  20
ATOM     20  C   UNL     1      -5.214   1.839  -0.687  1.00  0.00     0.021 A 
ATOM     21  C   UNL     1      -6.152   2.106  -1.704  1.00  0.00     0.016 A 
ATOM     22  C   UNL     1      -4.566   2.930  -0.078  1.00  0.00     0.016 A 
ATOM     23  C   UNL     1      -6.399   3.417  -2.123  1.00  0.00     0.047 A 
ATOM     24  C   UNL     1      -4.818   4.239  -0.494  1.00  0.00     0.047 A 
ATOM     25  C   UNL     1      -5.728   4.488  -1.521  1.00  0.00     0.115 A 
BRANCH  25  26
ATOM     26  O   UNL     1      -5.954   5.758  -1.915  1.00  0.00    -0.508 OA
ATOM     27  H   UNL     1      -6.575   5.973  -2.625  1.00  0.00     0.293 HD
ENDBRANCH  25  26
ENDBRANCH  13  20
BRANCH  14  28
ATOM     28  O   UNL     1      -3.682  -4.180   1.435  1.00  0.00    -0.507 OA
ATOM     29  H   UNL     1      -3.652  -5.115   1.685  1.00  0.00     0.293 HD
ENDBRANCH  14  28
BRANCH  19  30
ATOM     30  O   UNL     1      -8.048  -4.684  -0.369  1.00  0.00    -0.508 OA
ATOM     31  H   UNL     1      -8.843  -4.349  -0.808  1.00  0.00     0.293 HD
ENDBRANCH  19  30
ENDBRANCH   8   9
ENDBRANCH   3   8
BRANCH   5  32
ATOM     32  O   UNL     1      -1.545   3.191  -0.065  1.00  0.00    -0.384 OA
ATOM     33  H   UNL     1      -1.704   3.380   0.896  1.00  0.00     0.211 HD
ENDBRANCH   5  32
BRANCH   6  34
ATOM     34  O   UNL     1       0.889   3.017   1.430  1.00  0.00    -0.387 OA
ATOM     35  H   UNL     1       1.236   3.458   0.611  1.00  0.00     0.211 HD
ENDBRANCH   6  34
BRANCH   7  36
ATOM     36  O   UNL     1       2.386   1.191   0.159  1.00  0.00    -0.387 OA
ATOM     37  H   UNL     1       2.174   1.623  -0.709  1.00  0.00     0.211 HD
ENDBRANCH   7  36
ENDBRANCH   1   2
BRANCH   1  38
ATOM     38  O   UNL     1       2.472  -1.801  -0.792  1.00  0.00    -0.347 OA
BRANCH  38  39
ATOM     39  C   UNL     1       3.537  -1.493   0.091  1.00  0.00     0.282 C 
ATOM     40  O   UNL     1       4.368  -0.560  -0.581  1.00  0.00    -0.341 OA
ATOM     41  C   UNL     1       4.351  -2.768   0.407  1.00  0.00     0.202 C 
ATOM     42  C   UNL     1       5.413  -0.085   0.251  1.00  0.00     0.180 C 
ATOM     43  C   UNL     1       5.568  -2.415   1.294  1.00  0.00     0.179 C 
ATOM     44  C   UNL     1       6.359  -1.265   0.625  1.00  0.00     0.177 C 
BRANCH  41  45
ATOM     45  O   UNL     1       3.561  -3.769   0.999  1.00  0.00    -0.385 OA
ATOM     46  H   UNL     1       3.142  -3.383   1.812  1.00  0.00     0.211 HD
ENDBRANCH  41  45
BRANCH  42  47
ATOM     47  C   UNL     1       6.152   1.008  -0.534  1.00  0.00     0.220 C 
BRANCH  47  48
ATOM     48  O   UNL     1       7.140   1.605   0.267  1.00  0.00    -0.245 OA
BRANCH  48  49
ATOM     49  S   UNL     1       8.066   2.661  -0.742  1.00  0.00     0.397 S 
ATOM     50  O   UNL     1       8.960   3.537   0.148  1.00  0.00    -0.169 OA
ATOM     51  O   UNL     1       7.143   3.681  -1.429  1.00  0.00    -0.169 OA
BRANCH  49  52
ATOM     52  O   UNL     1       9.049   1.894  -1.923  1.00  0.00    -0.264 OA
ATOM     53  H   UNL     1       9.764   1.447  -1.402  1.00  0.00     0.236 HD
ENDBRANCH  49  52
ENDBRANCH  48  49
ENDBRANCH  47  48
ENDBRANCH  42  47
BRANCH  43  54
ATOM     54  O   UNL     1       5.180  -2.102   2.615  1.00  0.00    -0.387 OA
ATOM     55  H   UNL     1       4.706  -1.234   2.626  1.00  0.00     0.211 HD
ENDBRANCH  43  54
BRANCH  44  56
ATOM     56  O   UNL     1       7.437  -0.861   1.433  1.00  0.00    -0.387 OA
ATOM     57  H   UNL     1       7.061  -0.381   2.216  1.00  0.00     0.211 HD
ENDBRANCH  44  56
ENDBRANCH  38  39
ENDBRANCH   1  38
TORSDOF 19
