REMARK SMILES Cc1ccc2nc(C[C@H]3CN(Cc4ccccc4O)CC[C@H]3CC(=O)O)[nH]c2c1
REMARK SMILES IDX 9 1 10 2 11 3 20 4 21 5 22 6 8 7 7 8 2 9 3 10 29 11 4 12
REMARK SMILES IDX 28 13 5 14 27 15 6 16 1 17 23 19 24 20 25 21 26 22 12 24
REMARK SMILES IDX 13 25 14 26 18 27 15 28 17 29 16 30 19 31
REMARK H PARENT 27 18 26 23 19 32
ROOT
ATOM      1  C   UNL     1      -0.319   1.485   0.849  1.00  0.00     0.014 C 
ATOM      2  C   UNL     1       0.414   0.298   1.522  1.00  0.00     0.089 C 
ATOM      3  N   UNL     1       1.743   0.002   0.906  1.00  0.00    -0.299 NA
ATOM      4  C   UNL     1       2.395   1.143   0.206  1.00  0.00     0.085 C 
ATOM      5  C   UNL     1       2.102   2.445   0.932  1.00  0.00     0.020 C 
ATOM      6  C   UNL     1       0.582   2.771   0.953  1.00  0.00     0.006 C 
ENDROOT
BRANCH   1   7
ATOM      7  C   UNL     1      -0.801   1.091  -0.583  1.00  0.00     0.080 C 
BRANCH   7   8
ATOM      8  C   UNL     1      -1.894   0.062  -0.526  1.00  0.00     0.107 A 
ATOM      9  C   UNL     1      -5.608  -2.389  -0.068  1.00  0.00    -0.049 A 
ATOM     10  C   UNL     1      -4.789  -3.331  -0.747  1.00  0.00     0.006 A 
ATOM     11  C   UNL     1      -5.097  -1.112   0.246  1.00  0.00     0.031 A 
ATOM     12  C   UNL     1      -3.469  -3.000  -1.119  1.00  0.00     0.031 A 
ATOM     13  C   UNL     1      -3.790  -0.828  -0.137  1.00  0.00     0.066 A 
ATOM     14  C   UNL     1      -3.007  -1.728  -0.796  1.00  0.00     0.089 A 
ATOM     15  N   UNL     1      -3.100   0.303   0.044  1.00  0.00    -0.342 N 
ATOM     16  N   UNL     1      -1.801  -1.185  -1.057  1.00  0.00    -0.233 NA
ATOM     17  C   UNL     1      -7.017  -2.732   0.318  1.00  0.00     0.044 C 
ATOM     18  H   UNL     1      -3.428   1.180   0.508  1.00  0.00     0.168 HD
ENDBRANCH   7   8
ENDBRANCH   1   7
BRANCH   6  19
ATOM     19  C   UNL     1       0.180   3.863  -0.070  1.00  0.00     0.126 C 
BRANCH  19  20
ATOM     20  C   UNL     1       0.783   5.240   0.138  1.00  0.00     0.303 C 
ATOM     21  O   UNL     1       0.515   6.113  -0.672  1.00  0.00    -0.252 OA
BRANCH  20  22
ATOM     22  O   UNL     1       1.577   5.561   1.187  1.00  0.00    -0.481 OA
ATOM     23  H   UNL     1       1.805   4.955   1.902  1.00  0.00     0.296 HD
ENDBRANCH  20  22
ENDBRANCH  19  20
ENDBRANCH   6  19
BRANCH   3  24
ATOM     24  C   UNL     1       1.784  -1.252   0.124  1.00  0.00     0.124 C 
BRANCH  24  25
ATOM     25  C   UNL     1       3.212  -1.635  -0.207  1.00  0.00     0.008 A 
ATOM     26  C   UNL     1       3.619  -1.732  -1.550  1.00  0.00     0.009 A 
ATOM     27  C   UNL     1       4.149  -1.883   0.818  1.00  0.00     0.120 A 
ATOM     28  C   UNL     1       4.939  -2.064  -1.866  1.00  0.00     0.001 A 
ATOM     29  C   UNL     1       5.472  -2.217   0.488  1.00  0.00     0.046 A 
ATOM     30  C   UNL     1       5.864  -2.306  -0.849  1.00  0.00     0.004 A 
BRANCH  27  31
ATOM     31  O   UNL     1       3.775  -1.794   2.112  1.00  0.00    -0.508 OA
ATOM     32  H   UNL     1       4.393  -1.954   2.840  1.00  0.00     0.293 HD
ENDBRANCH  27  31
ENDBRANCH  24  25
ENDBRANCH   3  24
TORSDOF 8
