REMARK SMILES OC[C@H]1O[C@@H](OC[C@H]2O[C@@H](OC/C=C/c3ccccc3)[C@H](O)[C@@H](O)[C@H]2O)[C@@H](O)[C@H]1O
REMARK SMILES IDX 7 1 6 2 5 3 3 4 4 5 29 6 27 7 2 8 1 9 30 11 28 13 8 15 9 16
REMARK SMILES IDX 25 17 10 18 23 19 21 20 26 21 11 23 12 24 13 25 14 26 15 27
REMARK SMILES IDX 16 28 20 29 17 30 19 31 18 32 24 33 22 35
REMARK H PARENT 1 10 30 12 28 14 26 22 24 34 22 36
ROOT
ATOM      1  C   UNL     1      -1.123  -0.456   0.739  1.00  0.00     0.198 C 
ENDROOT
BRANCH   1   2
ATOM      2  O   UNL     1      -2.003   0.583   0.362  1.00  0.00    -0.347 OA
BRANCH   2   3
ATOM      3  C   UNL     1      -3.348   0.161   0.259  1.00  0.00     0.282 C 
ATOM      4  C   UNL     1      -5.209   1.282  -0.467  1.00  0.00     0.178 C 
ATOM      5  O   UNL     1      -3.940   0.799  -0.867  1.00  0.00    -0.341 OA
ATOM      6  C   UNL     1      -5.513   0.608   0.876  1.00  0.00     0.179 C 
ATOM      7  C   UNL     1      -4.149   0.542   1.512  1.00  0.00     0.202 C 
BRANCH   4   8
ATOM      8  C   UNL     1      -5.171   2.824  -0.461  1.00  0.00     0.191 C 
BRANCH   8   9
ATOM      9  O   UNL     1      -4.882   3.280  -1.755  1.00  0.00    -0.394 OA
ATOM     10  H   UNL     1      -4.701   4.253  -1.675  1.00  0.00     0.210 HD
ENDBRANCH   8   9
ENDBRANCH   4   8
BRANCH   6  11
ATOM     11  O   UNL     1      -6.529   1.207   1.643  1.00  0.00    -0.387 OA
ATOM     12  H   UNL     1      -6.202   2.086   1.962  1.00  0.00     0.211 HD
ENDBRANCH   6  11
BRANCH   7  13
ATOM     13  O   UNL     1      -3.761   1.803   1.996  1.00  0.00    -0.385 OA
ATOM     14  H   UNL     1      -2.951   1.658   2.551  1.00  0.00     0.211 HD
ENDBRANCH   7  13
ENDBRANCH   2   3
ENDBRANCH   1   2
BRANCH   1  15
ATOM     15  C   UNL     1      -0.374  -1.007  -0.487  1.00  0.00     0.178 C 
ATOM     16  O   UNL     1       0.728  -1.782  -0.037  1.00  0.00    -0.341 OA
ATOM     17  C   UNL     1      -1.284  -1.870  -1.409  1.00  0.00     0.177 C 
ATOM     18  C   UNL     1       1.575  -2.127  -1.124  1.00  0.00     0.282 C 
ATOM     19  C   UNL     1      -0.440  -2.401  -2.589  1.00  0.00     0.179 C 
ATOM     20  C   UNL     1       0.841  -3.099  -2.073  1.00  0.00     0.202 C 
BRANCH  17  21
ATOM     21  O   UNL     1      -1.890  -2.928  -0.700  1.00  0.00    -0.387 OA
ATOM     22  H   UNL     1      -1.196  -3.401  -0.175  1.00  0.00     0.211 HD
ENDBRANCH  17  21
BRANCH  18  23
ATOM     23  O   UNL     1       2.735  -2.748  -0.588  1.00  0.00    -0.346 OA
BRANCH  23  24
ATOM     24  C   UNL     1       3.931  -2.101  -0.991  1.00  0.00     0.191 C 
BRANCH  24  25
ATOM     25  C   UNL     1       4.059  -0.712  -0.400  1.00  0.00     0.002 C 
ATOM     26  C   UNL     1       5.054  -0.369   0.436  1.00  0.00     0.006 C 
BRANCH  26  27
ATOM     27  C   UNL     1       5.227   0.994   1.022  1.00  0.00    -0.026 A 
ATOM     28  C   UNL     1       4.372   2.081   0.726  1.00  0.00     0.008 A 
ATOM     29  C   UNL     1       6.300   1.206   1.906  1.00  0.00     0.008 A 
ATOM     30  C   UNL     1       4.594   3.335   1.302  1.00  0.00     0.001 A 
ATOM     31  C   UNL     1       6.514   2.464   2.480  1.00  0.00     0.001 A 
ATOM     32  C   UNL     1       5.663   3.527   2.178  1.00  0.00     0.000 A 
ENDBRANCH  26  27
ENDBRANCH  24  25
ENDBRANCH  23  24
ENDBRANCH  18  23
BRANCH  19  33
ATOM     33  O   UNL     1      -1.195  -3.236  -3.431  1.00  0.00    -0.387 OA
ATOM     34  H   UNL     1      -1.394  -4.069  -2.929  1.00  0.00     0.211 HD
ENDBRANCH  19  33
BRANCH  20  35
ATOM     35  O   UNL     1       1.666  -3.490  -3.143  1.00  0.00    -0.385 OA
ATOM     36  H   UNL     1       1.923  -2.671  -3.643  1.00  0.00     0.211 HD
ENDBRANCH  20  35
ENDBRANCH   1  15
TORSDOF 14
