REMARK SMILES C[C@H](NC(=O)[C@@H]1O[C@@H]2OC(C)(C)O[C@@H]2[C@H]2OC(C)(C)O[C@H]21)C(=O)Nc1ccccc1
REMARK SMILES IDX 3 1 4 2 5 3 2 5 1 6 22 7 23 8 24 9 25 11 26 12 30 13 27 14
REMARK SMILES IDX 29 15 28 16 6 17 7 18 21 19 8 20 20 21 15 22 9 23 14 24
REMARK SMILES IDX 17 25 16 26 10 27 13 28 18 29 19 30 11 31 12 32
REMARK H PARENT 3 4 24 10
ROOT
ATOM      1  N   UNL     1       1.242   0.608  -1.264  1.00  0.00    -0.342 N 
ATOM      2  C   UNL     1       0.285  -0.359  -1.342  1.00  0.00     0.252 C 
ATOM      3  O   UNL     1       0.557  -1.448  -1.831  1.00  0.00    -0.272 OA
ATOM      4  H   UNL     1       0.997   1.529  -0.863  1.00  0.00     0.164 HD
ENDROOT
BRANCH   1   5
ATOM      5  C   UNL     1       2.593   0.453  -1.793  1.00  0.00     0.168 C 
ATOM      6  C   UNL     1       2.797   1.454  -2.932  1.00  0.00     0.041 C 
BRANCH   5   7
ATOM      7  C   UNL     1       3.633   0.719  -0.727  1.00  0.00     0.246 C 
ATOM      8  O   UNL     1       3.578   1.777  -0.121  1.00  0.00    -0.272 OA
ATOM      9  N   UNL     1       4.620  -0.198  -0.477  1.00  0.00    -0.324 N 
ATOM     10  H   UNL     1       4.573  -1.088  -0.997  1.00  0.00     0.170 HD
BRANCH   9  11
ATOM     11  C   UNL     1       5.727  -0.042   0.427  1.00  0.00     0.041 A 
ATOM     12  C   UNL     1       6.103   1.194   1.008  1.00  0.00     0.026 A 
ATOM     13  C   UNL     1       6.499  -1.180   0.736  1.00  0.00     0.026 A 
ATOM     14  C   UNL     1       7.195   1.271   1.876  1.00  0.00     0.002 A 
ATOM     15  C   UNL     1       7.585  -1.095   1.611  1.00  0.00     0.002 A 
ATOM     16  C   UNL     1       7.931   0.129   2.184  1.00  0.00     0.000 A 
ENDBRANCH   9  11
ENDBRANCH   5   7
ENDBRANCH   1   5
BRANCH   2  17
ATOM     17  C   UNL     1      -1.152  -0.100  -0.917  1.00  0.00     0.242 C 
ATOM     18  O   UNL     1      -1.334   1.213  -0.409  1.00  0.00    -0.334 OA
ATOM     19  C   UNL     1      -1.637  -1.102   0.151  1.00  0.00     0.192 C 
ATOM     20  C   UNL     1      -2.720   1.557  -0.309  1.00  0.00     0.286 C 
ATOM     21  O   UNL     1      -1.657  -2.403  -0.340  1.00  0.00    -0.341 OA
ATOM     22  C   UNL     1      -3.050  -0.771   0.607  1.00  0.00     0.188 C 
ATOM     23  O   UNL     1      -2.967   2.273   0.857  1.00  0.00    -0.319 OA
ATOM     24  C   UNL     1      -3.679   0.384  -0.205  1.00  0.00     0.210 C 
ATOM     25  C   UNL     1      -2.996  -2.845  -0.268  1.00  0.00     0.164 C 
ATOM     26  O   UNL     1      -3.806  -1.933   0.448  1.00  0.00    -0.342 OA
ATOM     27  C   UNL     1      -4.354   2.075   1.095  1.00  0.00     0.166 C 
ATOM     28  O   UNL     1      -4.806   0.894   0.445  1.00  0.00    -0.339 OA
ATOM     29  C   UNL     1      -3.032  -4.192   0.455  1.00  0.00     0.075 C 
ATOM     30  C   UNL     1      -3.521  -3.001  -1.701  1.00  0.00     0.075 C 
ATOM     31  C   UNL     1      -5.146   3.279   0.562  1.00  0.00     0.075 C 
ATOM     32  C   UNL     1      -4.584   1.939   2.607  1.00  0.00     0.075 C 
ENDBRANCH   2  17
TORSDOF 4
