REMARK SMILES COc1c2c(c(S(=O)(=O)NC[C@@H]3CCCO3)c3c1C(=O)N(C)CC3)OCO2
REMARK SMILES IDX 7 1 8 2 9 3 6 4 3 5 4 6 18 7 27 8 5 9 17 10 19 11 26 12
REMARK SMILES IDX 25 13 24 14 20 15 21 16 23 17 22 18 2 19 1 20 10 21 11 23
REMARK SMILES IDX 12 24 13 25 16 26 14 27 15 28
REMARK H PARENT 10 22
ROOT
ATOM      1  S   UNL     1       0.900   1.340  -0.853  1.00  0.00     0.244 S 
ATOM      2  O   UNL     1       1.121   0.698  -2.233  1.00  0.00    -0.207 OA
ATOM      3  O   UNL     1       1.213   2.809  -1.174  1.00  0.00    -0.207 OA
ENDROOT
BRANCH   1   4
ATOM      4  C   UNL     1      -0.795   1.161  -0.250  1.00  0.00     0.132 A 
ATOM      5  C   UNL     1      -3.482   1.044   0.707  1.00  0.00     0.177 A 
ATOM      6  C   UNL     1      -2.789   2.251   0.555  1.00  0.00     0.209 A 
ATOM      7  C   UNL     1      -2.791  -0.149   0.383  1.00  0.00     0.090 A 
ATOM      8  O   UNL     1      -3.207   3.494   0.818  1.00  0.00    -0.450 OA
ATOM      9  C   UNL     1      -1.518   2.302   0.104  1.00  0.00     0.190 A 
ATOM     10  C   UNL     1      -1.444  -0.096  -0.095  1.00  0.00    -0.006 A 
ATOM     11  C   UNL     1      -3.449  -1.487   0.496  1.00  0.00     0.257 C 
ATOM     12  C   UNL     1      -2.164   4.366   0.530  1.00  0.00     0.468 C 
ATOM     13  O   UNL     1      -1.116   3.576   0.073  1.00  0.00    -0.452 OA
ATOM     14  C   UNL     1      -0.757  -1.413  -0.403  1.00  0.00     0.059 C 
ATOM     15  O   UNL     1      -4.464  -1.615   1.163  1.00  0.00    -0.269 OA
ATOM     16  N   UNL     1      -2.887  -2.565  -0.135  1.00  0.00    -0.341 N 
ATOM     17  C   UNL     1      -1.769  -2.354  -1.045  1.00  0.00     0.124 C 
ATOM     18  C   UNL     1      -3.402  -3.915   0.045  1.00  0.00     0.147 C 
BRANCH   5  19
ATOM     19  O   UNL     1      -4.771   0.987   1.122  1.00  0.00    -0.492 OA
ATOM     20  C   UNL     1      -5.778   1.801   0.651  1.00  0.00     0.278 C 
ENDBRANCH   5  19
ENDBRANCH   1   4
BRANCH   1  21
ATOM     21  N   UNL     1       2.251   0.852   0.197  1.00  0.00    -0.208 NA
ATOM     22  H   UNL     1       1.881   0.710   1.165  1.00  0.00     0.141 HD
BRANCH  21  23
ATOM     23  C   UNL     1       2.886  -0.383  -0.267  1.00  0.00     0.130 C 
BRANCH  23  24
ATOM     24  C   UNL     1       4.156  -0.675   0.536  1.00  0.00     0.133 C 
ATOM     25  C   UNL     1       5.180   0.451   0.419  1.00  0.00     0.036 C 
ATOM     26  O   UNL     1       4.782  -1.859   0.066  1.00  0.00    -0.377 OA
ATOM     27  C   UNL     1       6.410  -0.311   0.781  1.00  0.00     0.031 C 
ATOM     28  C   UNL     1       6.161  -1.559  -0.043  1.00  0.00     0.160 C 
ENDBRANCH  23  24
ENDBRANCH  21  23
ENDBRANCH   1  21
TORSDOF 5
