REMARK SMILES CC[C@@H](C)[C@@H]1/N=C(/O)[C@H](Cc2ccc(OC)cc2)N(C)C(=O)[C@H]([C@@H](C)CC)N2C(=O)[C@H](CC[C@H]2O)N=C(O)[C@H](CCc2ccc(OC)cc2)/N=C(/O)[C@@H](NC(=O)[C@H](CCc2ccc(O)cc2)NC(=O)[C@@H](COS(=O)(=O)O)OC)[C@@H](C)OC1=O
REMARK SMILES IDX 79 1 80 2 81 3 82 4 83 5 5 6 3 7 4 8 2 9 1 10 6 11 7 12 8 13
REMARK SMILES IDX 9 15 10 16 11 17 12 18 18 19 13 20 17 21 14 22 15 23 16 24
REMARK SMILES IDX 19 25 20 26 21 27 22 28 53 30 51 31 50 32 52 33 39 35 37 36
REMARK SMILES IDX 36 37 38 38 31 40 29 41 32 42 28 43 30 44 33 45 34 46 23 47
REMARK SMILES IDX 24 49 25 50 26 51 27 52 35 53 40 55 41 56 42 57 43 58 49 59
REMARK SMILES IDX 44 60 48 61 45 62 46 63 47 64 54 65 55 66 56 67 57 69 58 70
REMARK SMILES IDX 59 71 60 72 61 73 66 74 62 75 65 76 63 77 64 78 67 80 68 81
REMARK SMILES IDX 69 82 70 84 71 85 72 86 73 87 74 88 75 89 76 90 77 92 78 93
REMARK H PARENT 8 14 52 34 38 39 35 54 54 68 64 79 67 83 76 91
REMARK Flexibility Score:  264.900
ROOT
ATOM      1  C   UNL     1      -0.517  -0.780   2.395  1.00  0.00     0.205 C 
ATOM      2  C   UNL     1      -1.540  -1.891   2.660  1.00  0.00     0.056 C 
ENDROOT
BRANCH   1   3
ATOM      3  O   UNL     1       0.331  -1.187   1.366  1.00  0.00    -0.458 OA
BRANCH   3   4
ATOM      4  C   UNL     1       1.667  -1.384   1.529  1.00  0.00     0.331 C 
ATOM      5  O   UNL     1       2.199  -1.027   2.575  1.00  0.00    -0.250 OA
BRANCH   4   6
ATOM      6  C   UNL     1       2.535  -2.046   0.456  1.00  0.00     0.221 C 
BRANCH   6   7
ATOM      7  C   UNL     1       2.070  -3.507   0.129  1.00  0.00     0.022 C 
ATOM      8  C   UNL     1       0.721  -3.501  -0.617  1.00  0.00     0.010 C 
BRANCH   7   9
ATOM      9  C   UNL     1       1.945  -4.452   1.359  1.00  0.00     0.003 C 
ATOM     10  C   UNL     1       3.254  -4.733   2.096  1.00  0.00     0.004 C 
ENDBRANCH   7   9
ENDBRANCH   6   7
BRANCH   6  11
ATOM     11  N   UNL     1       3.879  -2.016   0.995  1.00  0.00    -0.238 NA
ATOM     12  C   UNL     1       5.065  -2.230   0.533  1.00  0.00     0.205 C 
BRANCH  12  13
ATOM     13  O   UNL     1       6.070  -2.102   1.427  1.00  0.00    -0.495 OA
ATOM     14  H   UNL     1       5.910  -1.883   2.356  1.00  0.00     0.295 HD
ENDBRANCH  12  13
BRANCH  12  15
ATOM     15  C   UNL     1       5.436  -2.563  -0.924  1.00  0.00     0.175 C 
BRANCH  15  16
ATOM     16  C   UNL     1       6.963  -2.865  -1.057  1.00  0.00     0.070 C 
BRANCH  16  17
ATOM     17  C   UNL     1       7.431  -3.984  -0.152  1.00  0.00    -0.045 A 
ATOM     18  C   UNL     1       6.970  -5.297  -0.328  1.00  0.00     0.007 A 
ATOM     19  C   UNL     1       8.322  -3.707   0.899  1.00  0.00     0.007 A 
ATOM     20  C   UNL     1       7.377  -6.309   0.547  1.00  0.00     0.046 A 
ATOM     21  C   UNL     1       8.712  -4.712   1.784  1.00  0.00     0.046 A 
ATOM     22  C   UNL     1       8.235  -6.026   1.618  1.00  0.00     0.118 A 
BRANCH  22  23
ATOM     23  O   UNL     1       8.568  -7.033   2.468  1.00  0.00    -0.497 OA
ATOM     24  C   UNL     1       9.271  -6.886   3.646  1.00  0.00     0.278 C 
ENDBRANCH  22  23
ENDBRANCH  16  17
ENDBRANCH  15  16
BRANCH  15  25
ATOM     25  N   UNL     1       5.128  -1.461  -1.858  1.00  0.00    -0.332 N 
ATOM     26  C   UNL     1       4.458  -1.781  -3.112  1.00  0.00     0.147 C 
BRANCH  25  27
ATOM     27  C   UNL     1       5.533  -0.169  -1.573  1.00  0.00     0.246 CG0
ATOM     28  O   UNL     1       6.006   0.067  -0.473  1.00  0.00    -0.272 OA
ATOM     29  G   UNL     1       5.384   1.023  -2.542  1.00  0.00     0.000 G0
ENDBRANCH  25  27
ENDBRANCH  15  25
ENDBRANCH  12  15
ENDBRANCH   6  11
ENDBRANCH   4   6
ENDBRANCH   3   4
ENDBRANCH   1   3
BRANCH   1  30
ATOM     30  C   UNL     1      -1.181   0.591   2.073  1.00  0.00     0.209 C 
BRANCH  30  31
ATOM     31  C   UNL     1      -0.091   1.670   2.015  1.00  0.00     0.208 C 
ATOM     32  N   UNL     1       0.111   2.579   1.116  1.00  0.00    -0.241 NA
BRANCH  31  33
ATOM     33  O   UNL     1       0.764   1.670   3.063  1.00  0.00    -0.495 OA
ATOM     34  H   UNL     1       1.489   2.308   3.137  1.00  0.00     0.295 HD
ENDBRANCH  31  33
BRANCH  32  35
ATOM     35  C   UNL     1      -0.613   3.023  -0.056  1.00  0.00     0.195 C 
BRANCH  35  36
ATOM     36  C   UNL     1       0.382   3.841  -0.896  1.00  0.00     0.207 C 
ATOM     37  N   UNL     1       1.384   3.305  -1.522  1.00  0.00    -0.240 NA
BRANCH  36  38
ATOM     38  O   UNL     1       0.203   5.174  -1.033  1.00  0.00    -0.495 OA
ATOM     39  H   UNL     1       0.807   5.723  -1.555  1.00  0.00     0.295 HD
ENDBRANCH  36  38
BRANCH  37  40
ATOM     40  C   UNL     1       1.698   1.893  -1.606  1.00  0.00     0.198 C 
ATOM     41  C   UNL     1       3.174   1.553  -1.380  1.00  0.00     0.250 C 
ATOM     42  C   UNL     1       1.398   1.411  -3.029  1.00  0.00     0.042 C 
ATOM     43  N   UNL     1       4.094   1.762  -2.397  1.00  0.00    -0.303 N 
ATOM     44  O   UNL     1       3.451   0.897  -0.388  1.00  0.00    -0.272 OA
ATOM     45  C   UNL     1       2.285   2.126  -4.076  1.00  0.00     0.057 C 
ATOM     46  C   UNL     1       3.635   2.627  -3.499  1.00  0.00     0.214 C 
BRANCH  43  47
ATOM     47  C   UNL     1       5.384   1.023  -2.542  1.00  0.00     0.180 CG0
ATOM     48  G   UNL     1       5.533  -0.169  -1.573  1.00  0.00     0.000 G0
BRANCH  47  49
ATOM     49  C   UNL     1       6.748   1.844  -2.625  1.00  0.00     0.018 C 
ATOM     50  C   UNL     1       6.798   2.916  -3.726  1.00  0.00     0.010 C 
BRANCH  49  51
ATOM     51  C   UNL     1       7.335   2.424  -1.304  1.00  0.00     0.002 C 
ATOM     52  C   UNL     1       6.415   3.372  -0.548  1.00  0.00     0.004 C 
ENDBRANCH  49  51
ENDBRANCH  47  49
ENDBRANCH  43  47
BRANCH  46  53
ATOM     53  O   UNL     1       3.458   3.941  -3.024  1.00  0.00    -0.373 OA
ATOM     54  H   UNL     1       4.224   4.167  -2.440  1.00  0.00     0.213 HD
ENDBRANCH  46  53
ENDBRANCH  37  40
ENDBRANCH  35  36
BRANCH  35  55
ATOM     55  C   UNL     1      -1.837   3.886   0.351  1.00  0.00     0.042 C 
BRANCH  55  56
ATOM     56  C   UNL     1      -1.508   4.967   1.412  1.00  0.00     0.038 C 
BRANCH  56  57
ATOM     57  C   UNL     1      -2.522   6.085   1.428  1.00  0.00    -0.048 A 
ATOM     58  C   UNL     1      -2.623   6.935   0.314  1.00  0.00     0.007 A 
ATOM     59  C   UNL     1      -3.332   6.328   2.548  1.00  0.00     0.007 A 
ATOM     60  C   UNL     1      -3.512   8.010   0.318  1.00  0.00     0.046 A 
ATOM     61  C   UNL     1      -4.229   7.405   2.550  1.00  0.00     0.046 A 
ATOM     62  C   UNL     1      -4.321   8.260   1.430  1.00  0.00     0.118 A 
BRANCH  62  63
ATOM     63  O   UNL     1      -5.157   9.329   1.383  1.00  0.00    -0.497 OA
ATOM     64  C   UNL     1      -6.009   9.734   2.388  1.00  0.00     0.278 C 
ENDBRANCH  62  63
ENDBRANCH  56  57
ENDBRANCH  55  56
ENDBRANCH  35  55
ENDBRANCH  32  35
ENDBRANCH  30  31
BRANCH  30  65
ATOM     65  N   UNL     1      -2.030   0.402   0.901  1.00  0.00    -0.339 N 
ATOM     66  C   UNL     1      -3.378   0.203   1.044  1.00  0.00     0.243 C 
ATOM     67  O   UNL     1      -3.923   0.431   2.117  1.00  0.00    -0.273 OA
ATOM     68  H   UNL     1      -1.580   0.136   0.013  1.00  0.00     0.164 HD
BRANCH  66  69
ATOM     69  C   UNL     1      -4.173  -0.499  -0.046  1.00  0.00     0.171 C 
BRANCH  69  70
ATOM     70  C   UNL     1      -4.287   0.359  -1.317  1.00  0.00     0.040 C 
BRANCH  70  71
ATOM     71  C   UNL     1      -4.963  -0.360  -2.499  1.00  0.00     0.038 C 
BRANCH  71  72
ATOM     72  C   UNL     1      -6.468  -0.419  -2.405  1.00  0.00    -0.048 A 
ATOM     73  C   UNL     1      -7.208   0.776  -2.372  1.00  0.00     0.007 A 
ATOM     74  C   UNL     1      -7.151  -1.647  -2.404  1.00  0.00     0.007 A 
ATOM     75  C   UNL     1      -8.603   0.746  -2.339  1.00  0.00     0.046 A 
ATOM     76  C   UNL     1      -8.551  -1.673  -2.376  1.00  0.00     0.046 A 
ATOM     77  C   UNL     1      -9.280  -0.479  -2.345  1.00  0.00     0.115 A 
BRANCH  77  78
ATOM     78  O   UNL     1     -10.628  -0.520  -2.330  1.00  0.00    -0.508 OA
ATOM     79  H   UNL     1     -11.165   0.285  -2.311  1.00  0.00     0.293 HD
ENDBRANCH  77  78
ENDBRANCH  71  72
ENDBRANCH  70  71
ENDBRANCH  69  70
BRANCH  69  80
ATOM     80  N   UNL     1      -5.465  -0.920   0.506  1.00  0.00    -0.342 N 
ATOM     81  C   UNL     1      -5.708  -2.222   0.861  1.00  0.00     0.252 C 
ATOM     82  O   UNL     1      -4.887  -3.094   0.606  1.00  0.00    -0.272 OA
ATOM     83  H   UNL     1      -6.146  -0.194   0.773  1.00  0.00     0.164 HD
BRANCH  81  84
ATOM     84  C   UNL     1      -6.932  -2.601   1.678  1.00  0.00     0.233 C 
BRANCH  84  85
ATOM     85  C   UNL     1      -8.247  -2.386   0.930  1.00  0.00     0.227 C 
BRANCH  85  86
ATOM     86  O   UNL     1      -9.301  -2.736   1.795  1.00  0.00    -0.245 OA
BRANCH  86  87
ATOM     87  S   UNL     1     -10.787  -2.739   0.913  1.00  0.00     0.397 S 
ATOM     88  O   UNL     1     -10.695  -3.629  -0.337  1.00  0.00    -0.169 OA
ATOM     89  O   UNL     1     -11.077  -1.327   0.385  1.00  0.00    -0.169 OA
BRANCH  87  90
ATOM     90  O   UNL     1     -12.142  -3.237   1.844  1.00  0.00    -0.264 OA
ATOM     91  H   UNL     1     -11.958  -4.184   2.070  1.00  0.00     0.236 HD
ENDBRANCH  87  90
ENDBRANCH  86  87
ENDBRANCH  85  86
ENDBRANCH  84  85
BRANCH  84  92
ATOM     92  O   UNL     1      -6.847  -3.977   2.036  1.00  0.00    -0.369 OA
ATOM     93  C   UNL     1      -6.904  -4.145   3.436  1.00  0.00     0.196 C 
ENDBRANCH  84  92
ENDBRANCH  81  84
ENDBRANCH  69  80
ENDBRANCH  66  69
ENDBRANCH  30  65
ENDBRANCH   1  30
TORSDOF 28
