REMARK SMILES CC(C)CCC[C@@H](C)[C@H]1CC[C@@H]2[C@@H]3CC=C4C[C@@H](OC=O)CC[C@]4(C)[C@@H]3CC[C@@]21C
REMARK SMILES IDX 6 1 5 2 4 3 2 4 1 5 3 6 7 7 8 8 9 9 10 10 29 11 11 12 28 13
REMARK SMILES IDX 12 14 27 15 13 16 26 17 14 18 24 19 15 20 23 21 16 22 22 23
REMARK SMILES IDX 17 24 18 25 30 26 25 27 19 28 20 29 21 30
REMARK H PARENT
ROOT
ATOM      1  C   UNL     1       3.914   0.273   0.475  1.00  0.00     0.003 C 
ENDROOT
BRANCH   1   2
ATOM      2  C   UNL     1       5.086   0.289  -0.546  1.00  0.00     0.001 C 
BRANCH   2   3
ATOM      3  C   UNL     1       6.068  -0.900  -0.499  1.00  0.00     0.003 C 
BRANCH   3   4
ATOM      4  C   UNL     1       7.333  -0.766  -1.384  1.00  0.00    -0.017 C 
ATOM      5  C   UNL     1       6.987  -0.672  -2.877  1.00  0.00     0.007 C 
ATOM      6  C   UNL     1       8.232   0.402  -0.960  1.00  0.00     0.007 C 
ENDBRANCH   3   4
ENDBRANCH   2   3
ENDBRANCH   1   2
BRANCH   1   7
ATOM      7  C   UNL     1       2.791  -0.796   0.296  1.00  0.00    -0.011 C 
ATOM      8  C   UNL     1       3.260  -2.200   0.760  1.00  0.00     0.008 C 
BRANCH   7   9
ATOM      9  C   UNL     1       1.474  -0.476   1.091  1.00  0.00    -0.002 C 
ATOM     10  C   UNL     1       1.607  -0.130   2.578  1.00  0.00     0.005 C 
ATOM     11  C   UNL     1       0.421   0.564   0.573  1.00  0.00    -0.026 C 
ATOM     12  C   UNL     1       0.136  -0.065   2.982  1.00  0.00     0.005 C 
ATOM     13  C   UNL     1      -0.305   0.026  -0.683  1.00  0.00     0.007 C 
ATOM     14  C   UNL     1      -0.534   0.698   1.823  1.00  0.00    -0.001 C 
ATOM     15  C   UNL     1      -1.689   0.658  -0.953  1.00  0.00     0.005 C 
ATOM     16  C   UNL     1      -2.039   0.363   1.573  1.00  0.00     0.000 C 
ATOM     17  C   UNL     1      -2.506   1.115   0.312  1.00  0.00     0.003 C 
ATOM     18  C   UNL     1      -2.399  -1.145   1.483  1.00  0.00     0.031 C 
ATOM     19  C   UNL     1      -4.081   1.008   0.144  1.00  0.00    -0.008 C 
ATOM     20  C   UNL     1      -3.771  -1.395   0.904  1.00  0.00    -0.027 C 
ATOM     21  C   UNL     1      -4.515   1.518  -1.276  1.00  0.00     0.015 C 
ATOM     22  C   UNL     1      -4.544  -0.445   0.331  1.00  0.00    -0.064 C 
ATOM     23  C   UNL     1      -5.973   1.175  -1.640  1.00  0.00     0.046 C 
ATOM     24  C   UNL     1      -5.949  -0.809  -0.110  1.00  0.00     0.076 C 
ATOM     25  C   UNL     1      -6.187  -0.349  -1.548  1.00  0.00     0.180 C 
ATOM     26  C   UNL     1       1.001   1.961   0.225  1.00  0.00     0.012 C 
ATOM     27  C   UNL     1      -4.800   1.873   1.214  1.00  0.00     0.016 C 
BRANCH  25  28
ATOM     28  O   UNL     1      -7.488  -0.657  -1.913  1.00  0.00    -0.464 OA
BRANCH  28  29
ATOM     29  C   UNL     1      -7.846  -1.487  -2.927  1.00  0.00     0.447 C 
ATOM     30  O   UNL     1      -7.011  -2.048  -3.621  1.00  0.00    -0.256 OA
ENDBRANCH  28  29
ENDBRANCH  25  28
ENDBRANCH   7   9
ENDBRANCH   1   7
TORSDOF 7
