REMARK SMILES C=C1C=C[C@H]2C(C)(C)CCC[C@]2(C)[C@@]12CC[C@@](C)(CC(=O)O)O2
REMARK SMILES IDX 20 1 21 2 19 3 17 4 1 5 2 6 3 7 14 8 4 9 12 10 15 11 23 12
REMARK SMILES IDX 5 13 11 14 16 15 6 16 10 17 9 18 13 19 18 20 7 21 8 22 22 23
REMARK H PARENT 22 24
ROOT
ATOM      1  C   UNL     1       3.830  -1.189   1.898  1.00  0.00     0.306 C 
ATOM      2  O   UNL     1       3.921  -2.396   1.740  1.00  0.00    -0.252 OA
ENDROOT
BRANCH   1   3
ATOM      3  C   UNL     1       3.918  -0.252   0.711  1.00  0.00     0.157 C 
BRANCH   3   4
ATOM      4  C   UNL     1       2.745  -0.378  -0.300  1.00  0.00     0.077 C 
ATOM      5  C   UNL     1       1.709   2.932   0.670  1.00  0.00     0.015 C 
ATOM      6  C   UNL     1       0.655   2.161   0.334  1.00  0.00    -0.023 C 
ATOM      7  C   UNL     1      -0.648   2.663   0.839  1.00  0.00     0.002 C 
ATOM      8  C   UNL     1       0.737   0.804  -0.450  1.00  0.00     0.099 C 
ATOM      9  C   UNL     1      -1.712   1.871   0.946  1.00  0.00    -0.022 C 
ATOM     10  C   UNL     1      -0.766   0.226  -0.710  1.00  0.00     0.008 C 
ATOM     11  C   UNL     1       1.502   0.916  -1.799  1.00  0.00     0.044 C 
ATOM     12  O   UNL     1       1.502  -0.098   0.354  1.00  0.00    -0.363 OA
ATOM     13  C   UNL     1      -1.612   0.398   0.602  1.00  0.00     0.026 C 
ATOM     14  C   UNL     1      -0.696  -1.312  -1.019  1.00  0.00     0.011 C 
ATOM     15  C   UNL     1       2.925   0.657  -1.421  1.00  0.00     0.039 C 
ATOM     16  C   UNL     1      -2.987  -0.432   0.712  1.00  0.00    -0.028 C 
ATOM     17  C   UNL     1      -2.003  -2.131  -0.963  1.00  0.00     0.001 C 
ATOM     18  C   UNL     1      -3.223  -1.335  -0.528  1.00  0.00     0.007 C 
ATOM     19  C   UNL     1      -1.414   1.019  -1.897  1.00  0.00     0.015 C 
ATOM     20  C   UNL     1       2.713  -1.800  -0.917  1.00  0.00     0.043 C 
ATOM     21  C   UNL     1      -4.258   0.451   0.833  1.00  0.00     0.012 C 
ATOM     22  C   UNL     1      -2.933  -1.319   1.980  1.00  0.00     0.012 C 
ENDBRANCH   3   4
ENDBRANCH   1   3
BRANCH   1  23
ATOM     23  O   UNL     1       3.697  -0.703   3.151  1.00  0.00    -0.481 OA
ATOM     24  H   UNL     1       3.632   0.245   3.329  1.00  0.00     0.296 HD
ENDBRANCH   1  23
TORSDOF 3
