REMARK SMILES CCCCCCCCCCCCCC(=O)OC[C@@H](COC(=O)CCCCCCCC[C]CC[C]CCCCCCCC[C@@H](C)CC)OC(=O)CCCCCCCCCCCCCCCCCC(C)C
REMARK SMILES IDX 21 1 22 2 20 3 19 4 18 5 17 6 16 7 14 8 15 9 13 10 12 11
REMARK SMILES IDX 11 12 10 13 9 14 8 15 7 16 6 17 5 18 4 19 3 20 2 21 1 22
REMARK SMILES IDX 47 23 48 24 49 25 50 26 51 27 52 28 53 29 54 30 55 31 56 32
REMARK SMILES IDX 57 33 58 34 59 35 60 36 61 37 62 38 63 39 64 40 65 41 66 42
REMARK SMILES IDX 67 43 68 44 69 45 23 46 24 47 25 48 26 49 27 50 28 51 29 52
REMARK SMILES IDX 30 53 31 54 32 55 33 56 34 57 35 58 36 59 37 60 38 61 39 62
REMARK SMILES IDX 40 63 41 64 42 65 43 66 44 67 45 68 46 69
REMARK H PARENT
ROOT
ATOM      1  C   UNL     1      -5.196  -6.000   0.000  1.00  0.00     0.305 C 
ATOM      2  O   UNL     1      -4.175  -6.685   0.058  1.00  0.00    -0.252 OA
ENDROOT
BRANCH   1   3
ATOM      3  O   UNL     1      -4.975  -4.558  -0.045  1.00  0.00    -0.462 OA
BRANCH   3   4
ATOM      4  C   UNL     1      -3.678  -3.870   0.188  1.00  0.00     0.281 C 
BRANCH   4   5
ATOM      5  C   UNL     1      -3.291  -2.233  -0.081  1.00  0.00     0.251 C 
BRANCH   5   6
ATOM      6  C   UNL     1      -1.667  -1.865   0.194  1.00  0.00     0.281 C 
BRANCH   6   7
ATOM      7  O   UNL     1      -1.049  -0.547  -0.047  1.00  0.00    -0.462 OA
BRANCH   7   8
ATOM      8  C   UNL     1       0.356  -0.206   0.086  1.00  0.00     0.305 C 
ATOM      9  O   UNL     1       1.124  -1.114   0.362  1.00  0.00    -0.252 OA
BRANCH   8  10
ATOM     10  C   UNL     1       1.056   1.277  -0.097  1.00  0.00     0.123 C 
BRANCH  10  11
ATOM     11  C   UNL     1       2.715   1.513   0.037  1.00  0.00     0.012 C 
BRANCH  11  12
ATOM     12  C   UNL     1       3.527   2.988  -0.095  1.00  0.00     0.001 C 
BRANCH  12  13
ATOM     13  C   UNL     1       5.196   3.000   0.000  1.00  0.00     0.000 C 
BRANCH  13  14
ATOM     14  C   UNL     1       6.495   3.750   0.000  1.00  0.00     0.000 C 
BRANCH  14  15
ATOM     15  C   UNL     1       7.794   4.500   0.000  1.00  0.00     0.000 C 
BRANCH  15  16
ATOM     16  C   UNL     1       9.093   5.250   0.000  1.00  0.00     0.000 C 
BRANCH  16  17
ATOM     17  C   UNL     1      10.392   6.000   0.000  1.00  0.00    -0.000 C 
BRANCH  17  18
ATOM     18  C   UNL     1      11.691   6.750   0.000  1.00  0.00    -0.000 C 
BRANCH  18  19
ATOM     19  C   UNL     1      13.339   7.079   0.017  1.00  0.00    -0.000 C 
BRANCH  19  20
ATOM     20  C   UNL     1      13.940   8.673  -0.024  1.00  0.00    -0.000 C 
BRANCH  20  21
ATOM     21  C   UNL     1      15.588   9.000   0.000  1.00  0.00    -0.003 C 
ATOM     22  C   UNL     1      16.887   9.750   0.000  1.00  0.00     0.004 C 
ENDBRANCH  20  21
ENDBRANCH  19  20
ENDBRANCH  18  19
ENDBRANCH  17  18
ENDBRANCH  16  17
ENDBRANCH  15  16
ENDBRANCH  14  15
ENDBRANCH  13  14
ENDBRANCH  12  13
ENDBRANCH  11  12
ENDBRANCH  10  11
ENDBRANCH   8  10
ENDBRANCH   7   8
ENDBRANCH   6   7
ENDBRANCH   5   6
BRANCH   5  23
ATOM     23  O   UNL     1      -4.101  -1.343   0.670  1.00  0.00    -0.455 OA
BRANCH  23  24
ATOM     24  C   UNL     1      -4.901  -0.322   0.169  1.00  0.00     0.306 C 
ATOM     25  O   UNL     1      -5.033  -0.200  -1.041  1.00  0.00    -0.252 OA
BRANCH  24  26
ATOM     26  C   UNL     1      -5.601   0.708   1.101  1.00  0.00     0.123 C 
BRANCH  26  27
ATOM     27  C   UNL     1      -6.424   1.838   0.362  1.00  0.00     0.012 C 
BRANCH  27  28
ATOM     28  C   UNL     1      -7.091   2.959   1.264  1.00  0.00     0.001 C 
BRANCH  28  29
ATOM     29  C   UNL     1      -7.887   4.013   0.405  1.00  0.00     0.000 C 
BRANCH  29  30
ATOM     30  C   UNL     1      -8.570   5.275   1.100  1.00  0.00     0.000 C 
BRANCH  30  31
ATOM     31  C   UNL     1      -9.348   6.093   0.000  1.00  0.00     0.000 C 
BRANCH  31  32
ATOM     32  C   UNL     1     -10.098   7.392   0.000  1.00  0.00     0.000 C 
BRANCH  32  33
ATOM     33  C   UNL     1     -10.848   8.691   0.000  1.00  0.00     0.000 C 
BRANCH  33  34
ATOM     34  C   UNL     1     -11.277  10.277  -0.361  1.00  0.00     0.000 C 
BRANCH  34  35
ATOM     35  C   UNL     1     -12.732  10.961   0.208  1.00  0.00     0.000 C 
BRANCH  35  36
ATOM     36  C   UNL     1     -13.098  12.588   0.000  1.00  0.00     0.000 C 
BRANCH  36  37
ATOM     37  C   UNL     1     -13.848  13.887   0.000  1.00  0.00     0.000 C 
BRANCH  37  38
ATOM     38  C   UNL     1     -14.598  15.187   0.000  1.00  0.00     0.000 C 
BRANCH  38  39
ATOM     39  C   UNL     1     -15.348  16.486   0.000  1.00  0.00     0.000 C 
BRANCH  39  40
ATOM     40  C   UNL     1     -16.098  17.785   0.000  1.00  0.00     0.000 C 
BRANCH  40  41
ATOM     41  C   UNL     1     -16.848  19.084   0.000  1.00  0.00     0.000 C 
BRANCH  41  42
ATOM     42  C   UNL     1     -18.073  20.097  -0.638  1.00  0.00     0.003 C 
BRANCH  42  43
ATOM     43  C   UNL     1     -18.348  21.682   0.000  1.00  0.00    -0.017 C 
ATOM     44  C   UNL     1     -19.098  22.981   0.000  1.00  0.00     0.007 C 
ATOM     45  C   UNL     1     -17.049  22.432   0.000  1.00  0.00     0.007 C 
ENDBRANCH  42  43
ENDBRANCH  41  42
ENDBRANCH  40  41
ENDBRANCH  39  40
ENDBRANCH  38  39
ENDBRANCH  37  38
ENDBRANCH  36  37
ENDBRANCH  35  36
ENDBRANCH  34  35
ENDBRANCH  33  34
ENDBRANCH  32  33
ENDBRANCH  31  32
ENDBRANCH  30  31
ENDBRANCH  29  30
ENDBRANCH  28  29
ENDBRANCH  27  28
ENDBRANCH  26  27
ENDBRANCH  24  26
ENDBRANCH  23  24
ENDBRANCH   5  23
ENDBRANCH   4   5
ENDBRANCH   3   4
ENDBRANCH   1   3
BRANCH   1  46
ATOM     46  C   UNL     1      -6.495  -6.750   0.000  1.00  0.00     0.123 C 
BRANCH  46  47
ATOM     47  C   UNL     1      -7.794  -7.500   0.000  1.00  0.00     0.012 C 
BRANCH  47  48
ATOM     48  C   UNL     1      -9.093  -8.250   0.000  1.00  0.00     0.001 C 
BRANCH  48  49
ATOM     49  C   UNL     1     -10.392  -9.000   0.000  1.00  0.00     0.000 C 
BRANCH  49  50
ATOM     50  C   UNL     1     -11.691  -9.750   0.000  1.00  0.00     0.000 C 
BRANCH  50  51
ATOM     51  C   UNL     1     -13.341 -10.065  -0.051  1.00  0.00     0.000 C 
BRANCH  51  52
ATOM     52  C   UNL     1     -13.945 -11.652   0.056  1.00  0.00     0.001 C 
BRANCH  52  53
ATOM     53  C   UNL     1     -15.588 -12.000   0.000  1.00  0.00     0.008 C 
BRANCH  53  54
ATOM     54  C   UNL     1     -16.887 -12.750   0.000  1.00  0.00    -0.017 C 
BRANCH  54  55
ATOM     55  C   UNL     1     -18.186 -13.500   0.000  1.00  0.00     0.009 C 
BRANCH  55  56
ATOM     56  C   UNL     1     -19.486 -14.250   0.000  1.00  0.00     0.009 C 
BRANCH  56  57
ATOM     57  C   UNL     1     -20.785 -15.000   0.000  1.00  0.00    -0.017 C 
BRANCH  57  58
ATOM     58  C   UNL     1     -22.084 -15.750   0.000  1.00  0.00     0.008 C 
BRANCH  58  59
ATOM     59  C   UNL     1     -23.596 -16.332  -0.449  1.00  0.00     0.001 C 
BRANCH  59  60
ATOM     60  C   UNL     1     -24.464 -17.463   0.483  1.00  0.00     0.000 C 
BRANCH  60  61
ATOM     61  C   UNL     1     -25.981 -18.000   0.000  1.00  0.00     0.000 C 
BRANCH  61  62
ATOM     62  C   UNL     1     -27.280 -18.750   0.000  1.00  0.00     0.000 C 
BRANCH  62  63
ATOM     63  C   UNL     1     -28.579 -19.500   0.000  1.00  0.00     0.000 C 
BRANCH  63  64
ATOM     64  C   UNL     1     -30.237 -19.293  -0.000  1.00  0.00     0.000 C 
BRANCH  64  65
ATOM     65  C   UNL     1     -31.056 -20.725  -0.156  1.00  0.00     0.003 C 
BRANCH  65  66
ATOM     66  C   UNL     1     -32.476 -21.750   0.000  1.00  0.00    -0.015 C 
ATOM     67  C   UNL     1     -33.775 -22.500   0.000  1.00  0.00     0.007 C 
BRANCH  66  68
ATOM     68  C   UNL     1     -31.726 -23.049   0.000  1.00  0.00    -0.000 C 
ATOM     69  C   UNL     1     -30.976 -24.348   0.000  1.00  0.00     0.004 C 
ENDBRANCH  66  68
ENDBRANCH  65  66
ENDBRANCH  64  65
ENDBRANCH  63  64
ENDBRANCH  62  63
ENDBRANCH  61  62
ENDBRANCH  60  61
ENDBRANCH  59  60
ENDBRANCH  58  59
ENDBRANCH  57  58
ENDBRANCH  56  57
ENDBRANCH  55  56
ENDBRANCH  54  55
ENDBRANCH  53  54
ENDBRANCH  52  53
ENDBRANCH  51  52
ENDBRANCH  50  51
ENDBRANCH  49  50
ENDBRANCH  48  49
ENDBRANCH  47  48
ENDBRANCH  46  47
ENDBRANCH   1  46
TORSDOF 60
