REMARK SMILES CC1(C)CCC[C@]2(C)[C@@H]1CC=C(CO)[C@@H]2CO
REMARK SMILES IDX 1 1 2 2 3 3 4 4 5 5 6 6 7 7 8 8 9 9 10 10 11 11 12 12 15 13
REMARK SMILES IDX 16 14 17 15 13 17 14 18
REMARK H PARENT 17 16 14 19
ROOT
ATOM      1  C   UNL     1      -2.545   1.712   0.437  1.00  0.00     0.011 C 
ATOM      2  C   UNL     1      -2.151   0.208   0.450  1.00  0.00    -0.032 C 
ATOM      3  C   UNL     1      -2.908  -0.425   1.645  1.00  0.00     0.011 C 
ATOM      4  C   UNL     1      -2.661  -0.440  -0.851  1.00  0.00     0.007 C 
ATOM      5  C   UNL     1      -1.939   0.072  -2.127  1.00  0.00     0.001 C 
ATOM      6  C   UNL     1      -0.461   0.493  -1.911  1.00  0.00     0.008 C 
ATOM      7  C   UNL     1       0.223  -0.279  -0.765  1.00  0.00    -0.020 C 
ATOM      8  C   UNL     1       0.259  -1.800  -1.157  1.00  0.00     0.012 C 
ATOM      9  C   UNL     1      -0.560   0.031   0.572  1.00  0.00     0.005 C 
ATOM     10  C   UNL     1      -0.027  -0.892   1.691  1.00  0.00     0.032 C 
ATOM     11  C   UNL     1       1.489  -0.937   1.726  1.00  0.00    -0.025 C 
ATOM     12  C   UNL     1       2.296  -0.453   0.746  1.00  0.00    -0.043 C 
ATOM     13  C   UNL     1       1.736   0.144  -0.556  1.00  0.00     0.049 C 
ENDROOT
BRANCH  13  14
ATOM     14  C   UNL     1       2.078   1.657  -0.650  1.00  0.00     0.164 C 
BRANCH  14  15
ATOM     15  O   UNL     1       1.553   2.402   0.416  1.00  0.00    -0.396 OA
ATOM     16  H   UNL     1       0.869   3.015   0.040  1.00  0.00     0.210 HD
ENDBRANCH  14  15
ENDBRANCH  13  14
BRANCH  12  17
ATOM     17  C   UNL     1       3.798  -0.532   0.930  1.00  0.00     0.187 C 
BRANCH  17  18
ATOM     18  O   UNL     1       4.375  -1.290  -0.098  1.00  0.00    -0.392 OA
ATOM     19  H   UNL     1       4.161  -2.240   0.098  1.00  0.00     0.211 HD
ENDBRANCH  17  18
ENDBRANCH  12  17
TORSDOF 4
