REMARK SMILES C[C@H](CC[C@H](C)C(C)(C)C)[C@H]1CC[C@H]2[C@@H]3C[C@H](OS(=O)(=O)O)[C@H]4C[C@H](OS(=O)(=O)O)[C@@H](OS(=O)(=O)O)C[C@]4(C)[C@H]3CC[C@]12C
REMARK SMILES IDX 1 1 2 2 3 3 4 4 5 5 6 6 7 7 8 8 9 9 10 10 11 11 12 12 43 13
REMARK SMILES IDX 13 14 42 15 14 16 41 17 15 18 40 19 16 20 38 21 17 22 37 23
REMARK SMILES IDX 23 24 31 25 24 26 25 27 44 28 39 29 18 30 19 31 20 32 21 33
REMARK SMILES IDX 22 34 32 36 33 37 34 38 35 39 36 40 26 42 27 43 28 44 29 45
REMARK SMILES IDX 30 46
REMARK H PARENT 22 35 36 41 30 47
ROOT
ATOM      1  C   UNL     1      -4.081   1.525  -2.387  1.00  0.00     0.008 C 
ATOM      2  C   UNL     1      -3.442   0.768  -1.202  1.00  0.00    -0.011 C 
ENDROOT
BRANCH   2   3
ATOM      3  C   UNL     1      -4.380   0.800   0.046  1.00  0.00     0.004 C 
BRANCH   3   4
ATOM      4  C   UNL     1      -5.518  -0.260   0.098  1.00  0.00     0.004 C 
BRANCH   4   5
ATOM      5  C   UNL     1      -6.750  -0.126  -0.851  1.00  0.00    -0.009 C 
ATOM      6  C   UNL     1      -7.397   1.263  -0.645  1.00  0.00     0.008 C 
BRANCH   5   7
ATOM      7  C   UNL     1      -7.787  -1.323  -0.704  1.00  0.00    -0.036 C 
ATOM      8  C   UNL     1      -8.981  -1.133  -1.674  1.00  0.00     0.011 C 
ATOM      9  C   UNL     1      -8.353  -1.452   0.732  1.00  0.00     0.011 C 
ATOM     10  C   UNL     1      -7.117  -2.668  -1.084  1.00  0.00     0.011 C 
ENDBRANCH   5   7
ENDBRANCH   4   5
ENDBRANCH   3   4
ENDBRANCH   2   3
BRANCH   2  11
ATOM     11  C   UNL     1      -2.008   1.371  -0.961  1.00  0.00    -0.002 C 
ATOM     12  C   UNL     1      -1.921   2.828  -0.435  1.00  0.00     0.005 C 
ATOM     13  C   UNL     1      -0.902   0.616  -0.160  1.00  0.00    -0.026 C 
ATOM     14  C   UNL     1      -0.500   2.965   0.180  1.00  0.00     0.005 C 
ATOM     15  C   UNL     1      -0.392  -0.668  -0.858  1.00  0.00     0.007 C 
ATOM     16  C   UNL     1       0.216   1.683  -0.246  1.00  0.00    -0.001 C 
ATOM     17  C   UNL     1       0.916  -1.170  -0.214  1.00  0.00     0.005 C 
ATOM     18  C   UNL     1       1.521   1.242   0.470  1.00  0.00    -0.001 C 
ATOM     19  C   UNL     1       2.033  -0.073  -0.227  1.00  0.00    -0.001 C 
ATOM     20  C   UNL     1       2.592   2.345   0.402  1.00  0.00     0.038 C 
ATOM     21  C   UNL     1       3.417  -0.568   0.360  1.00  0.00    -0.021 C 
ATOM     22  C   UNL     1       3.909   1.884   1.050  1.00  0.00     0.145 C 
ATOM     23  C   UNL     1       4.007  -1.693  -0.560  1.00  0.00     0.044 C 
ATOM     24  C   UNL     1       4.431   0.635   0.301  1.00  0.00     0.029 C 
ATOM     25  C   UNL     1       5.455  -2.121  -0.215  1.00  0.00     0.172 C 
ATOM     26  C   UNL     1       5.844   0.204   0.775  1.00  0.00     0.043 C 
ATOM     27  C   UNL     1       6.399  -0.907  -0.137  1.00  0.00     0.172 C 
ATOM     28  C   UNL     1      -1.326   0.288   1.309  1.00  0.00     0.012 C 
ATOM     29  C   UNL     1       3.218  -1.105   1.814  1.00  0.00     0.012 C 
BRANCH  22  30
ATOM     30  O   UNL     1       4.854   2.928   0.927  1.00  0.00    -0.245 OA
BRANCH  30  31
ATOM     31  S   UNL     1       5.289   3.554   2.485  1.00  0.00     0.397 S 
ATOM     32  O   UNL     1       4.093   4.274   3.128  1.00  0.00    -0.169 OA
ATOM     33  O   UNL     1       5.617   2.402   3.450  1.00  0.00    -0.169 OA
BRANCH  31  34
ATOM     34  O   UNL     1       6.638   4.616   2.472  1.00  0.00    -0.264 OA
ATOM     35  H   UNL     1       6.292   5.463   2.095  1.00  0.00     0.236 HD
ENDBRANCH  31  34
ENDBRANCH  30  31
ENDBRANCH  22  30
BRANCH  25  36
ATOM     36  O   UNL     1       5.506  -2.840   1.004  1.00  0.00    -0.242 OA
BRANCH  36  37
ATOM     37  S   UNL     1       5.559  -4.554   0.705  1.00  0.00     0.397 S 
ATOM     38  O   UNL     1       6.522  -4.899  -0.449  1.00  0.00    -0.169 OA
ATOM     39  O   UNL     1       4.189  -5.053   0.221  1.00  0.00    -0.169 OA
BRANCH  37  40
ATOM     40  O   UNL     1       6.023  -5.496   2.062  1.00  0.00    -0.264 OA
ATOM     41  H   UNL     1       7.010  -5.565   1.998  1.00  0.00     0.236 HD
ENDBRANCH  37  40
ENDBRANCH  36  37
ENDBRANCH  25  36
BRANCH  27  42
ATOM     42  O   UNL     1       6.577  -0.385  -1.440  1.00  0.00    -0.242 OA
BRANCH  42  43
ATOM     43  S   UNL     1       8.255  -0.443  -1.871  1.00  0.00     0.397 S 
ATOM     44  O   UNL     1       8.393  -0.235  -3.386  1.00  0.00    -0.169 OA
ATOM     45  O   UNL     1       8.974   0.769  -1.259  1.00  0.00    -0.169 OA
BRANCH  43  46
ATOM     46  O   UNL     1       9.095  -1.878  -1.433  1.00  0.00    -0.264 OA
ATOM     47  H   UNL     1       8.509  -2.617  -1.733  1.00  0.00     0.236 HD
ENDBRANCH  43  46
ENDBRANCH  42  43
ENDBRANCH  27  42
ENDBRANCH   2  11
TORSDOF 14
