REMARK SMILES CCC/C=C/C=C/C(=O)O[C@@H](C)/C=C/C/C=C/C=C/C(=O)O[C@@H]1[C@@H](O)[C@H](O)[C@H](O[C@@H]2[C@H](O)[C@H](CO)O[C@@H]2n2cnc3c(=O)nc[nH]c32)O[C@H]1C
REMARK SMILES IDX 16 1 17 2 15 3 14 4 13 5 11 6 12 7 10 8 8 9 9 10 7 11 6 12
REMARK SMILES IDX 5 13 4 14 3 15 2 16 1 17 18 18 19 19 20 20 21 21 22 22 23 23
REMARK SMILES IDX 24 24 49 25 26 26 48 27 28 28 50 29 25 30 27 32 29 34 30 35
REMARK SMILES IDX 31 36 37 37 33 38 36 39 32 40 38 42 39 43 47 44 40 45 41 46
REMARK SMILES IDX 46 47 42 48 45 49 44 50 43 51 34 53 35 54
REMARK H PARENT 25 31 27 33 32 41 46 52 35 55
ROOT
ATOM      1  C   UNL     1       3.482   0.328  -0.954  1.00  0.00    -0.023 C 
ATOM      2  C   UNL     1       2.896   1.224  -0.142  1.00  0.00    -0.004 C 
ENDROOT
BRANCH   1   3
ATOM      3  C   UNL     1       4.907   0.296  -1.489  1.00  0.00     0.054 C 
BRANCH   3   4
ATOM      4  C   UNL     1       6.050   1.185  -1.023  1.00  0.00    -0.023 C 
ATOM      5  C   UNL     1       6.130   1.979   0.060  1.00  0.00     0.013 C 
BRANCH   5   6
ATOM      6  C   UNL     1       7.380   2.767   0.372  1.00  0.00     0.196 C 
ATOM      7  C   UNL     1       7.704   3.780  -0.730  1.00  0.00     0.058 C 
BRANCH   6   8
ATOM      8  O   UNL     1       8.439   1.888   0.519  1.00  0.00    -0.455 OA
BRANCH   8   9
ATOM      9  C   UNL     1       9.173   1.705   1.649  1.00  0.00     0.331 C 
ATOM     10  O   UNL     1       8.974   2.384   2.646  1.00  0.00    -0.247 OA
BRANCH   9  11
ATOM     11  C   UNL     1      10.214   0.659   1.690  1.00  0.00     0.093 C 
ATOM     12  C   UNL     1      10.473  -0.121   0.631  1.00  0.00     0.007 C 
BRANCH  12  13
ATOM     13  C   UNL     1      11.509  -1.171   0.696  1.00  0.00    -0.004 C 
ATOM     14  C   UNL     1      11.774  -1.938  -0.371  1.00  0.00    -0.027 C 
BRANCH  14  15
ATOM     15  C   UNL     1      12.821  -3.022  -0.332  1.00  0.00     0.027 C 
BRANCH  15  16
ATOM     16  C   UNL     1      13.966  -2.762  -1.322  1.00  0.00     0.001 C 
ATOM     17  C   UNL     1      13.512  -2.747  -2.782  1.00  0.00     0.004 C 
ENDBRANCH  15  16
ENDBRANCH  14  15
ENDBRANCH  12  13
ENDBRANCH   9  11
ENDBRANCH   8   9
ENDBRANCH   6   8
ENDBRANCH   5   6
ENDBRANCH   3   4
ENDBRANCH   1   3
BRANCH   2  18
ATOM     18  C   UNL     1       1.471   1.073   0.228  1.00  0.00     0.007 C 
ATOM     19  C   UNL     1       0.881   1.933   1.072  1.00  0.00     0.093 C 
BRANCH  19  20
ATOM     20  C   UNL     1      -0.548   1.822   1.432  1.00  0.00     0.331 C 
ATOM     21  O   UNL     1      -1.027   2.625   2.219  1.00  0.00    -0.247 OA
BRANCH  20  22
ATOM     22  O   UNL     1      -1.320   0.865   0.853  1.00  0.00    -0.454 OA
BRANCH  22  23
ATOM     23  C   UNL     1      -2.691   0.728   0.998  1.00  0.00     0.237 C 
ATOM     24  C   UNL     1      -3.041  -0.667   1.521  1.00  0.00     0.191 C 
ATOM     25  C   UNL     1      -3.365   0.861  -0.407  1.00  0.00     0.162 C 
ATOM     26  C   UNL     1      -4.579  -0.793   1.675  1.00  0.00     0.203 C 
ATOM     27  O   UNL     1      -4.683   0.312  -0.506  1.00  0.00    -0.343 OA
ATOM     28  C   UNL     1      -5.332   0.202   0.743  1.00  0.00     0.282 C 
ATOM     29  C   UNL     1      -3.361   2.310  -0.890  1.00  0.00     0.043 C 
BRANCH  24  30
ATOM     30  O   UNL     1      -2.380  -0.991   2.717  1.00  0.00    -0.386 OA
ATOM     31  H   UNL     1      -2.606  -0.287   3.380  1.00  0.00     0.211 HD
ENDBRANCH  24  30
BRANCH  26  32
ATOM     32  O   UNL     1      -4.965  -2.130   1.468  1.00  0.00    -0.385 OA
ATOM     33  H   UNL     1      -4.866  -2.322   0.499  1.00  0.00     0.211 HD
ENDBRANCH  26  32
BRANCH  28  34
ATOM     34  O   UNL     1      -6.638  -0.288   0.521  1.00  0.00    -0.339 OA
BRANCH  34  35
ATOM     35  C   UNL     1      -7.683   0.595   0.897  1.00  0.00     0.203 C 
ATOM     36  C   UNL     1      -8.464   0.018   2.057  1.00  0.00     0.179 C 
ATOM     37  C   UNL     1      -8.778   0.723  -0.194  1.00  0.00     0.254 C 
ATOM     38  C   UNL     1      -9.807   0.690   1.814  1.00  0.00     0.178 C 
ATOM     39  O   UNL     1     -10.045   0.572   0.429  1.00  0.00    -0.347 OA
BRANCH  36  40
ATOM     40  O   UNL     1      -8.566  -1.389   1.984  1.00  0.00    -0.387 OA
ATOM     41  H   UNL     1      -8.857  -1.656   1.077  1.00  0.00     0.211 HD
ENDBRANCH  36  40
BRANCH  37  42
ATOM     42  N   UNL     1      -8.574  -0.234  -1.298  1.00  0.00    -0.287 N 
ATOM     43  C   UNL     1      -7.553  -0.139  -2.193  1.00  0.00     0.204 A 
ATOM     44  C   UNL     1      -9.258  -1.327  -1.699  1.00  0.00     0.146 A 
ATOM     45  N   UNL     1      -7.569  -1.123  -3.126  1.00  0.00    -0.229 NA
ATOM     46  C   UNL     1      -8.644  -1.855  -2.790  1.00  0.00     0.173 A 
ATOM     47  N   UNL     1     -10.370  -1.896  -1.157  1.00  0.00    -0.330 N 
ATOM     48  C   UNL     1      -9.144  -2.998  -3.391  1.00  0.00     0.300 A 
ATOM     49  C   UNL     1     -10.865  -3.030  -1.743  1.00  0.00     0.202 A 
ATOM     50  N   UNL     1     -10.257  -3.570  -2.847  1.00  0.00    -0.198 NA
ATOM     51  O   UNL     1      -8.609  -3.488  -4.369  1.00  0.00    -0.265 OA
ATOM     52  H   UNL     1     -10.847  -1.510  -0.317  1.00  0.00     0.169 HD
ENDBRANCH  37  42
BRANCH  38  53
ATOM     53  C   UNL     1     -10.948   0.077   2.636  1.00  0.00     0.191 C 
BRANCH  53  54
ATOM     54  O   UNL     1     -12.160   0.716   2.340  1.00  0.00    -0.394 OA
ATOM     55  H   UNL     1     -12.152   1.581   2.826  1.00  0.00     0.210 HD
ENDBRANCH  53  54
ENDBRANCH  38  53
ENDBRANCH  34  35
ENDBRANCH  28  34
ENDBRANCH  22  23
ENDBRANCH  20  22
ENDBRANCH  19  20
ENDBRANCH   2  18
TORSDOF 21
