REMARK SMILES C[C][C][C][C]/C=C\C/C=C\[C]/C=C\C[C]CCC(=O)OC[C@@H](COC(=O)C[C]CCCCCCC[C]CCCCCCCCCCCCC)OC(=O)CCCCCCC/C=C\C/C=C\C/C=C\CC
REMARK SMILES IDX 27 1 25 2 26 3 24 4 23 5 22 6 50 7 51 8 52 9 53 10 54 11
REMARK SMILES IDX 55 12 56 13 57 14 58 15 59 16 60 17 61 18 62 19 63 20 64 21
REMARK SMILES IDX 65 22 66 23 67 24 68 25 69 26 21 27 20 28 18 29 19 30 17 31
REMARK SMILES IDX 16 32 15 33 14 34 13 35 12 36 11 37 10 38 9 39 8 40 7 41
REMARK SMILES IDX 6 42 5 43 4 44 3 45 2 46 1 47 28 48 29 49 30 50 31 51 32 52
REMARK SMILES IDX 33 53 34 54 35 55 36 56 37 57 38 58 39 59 40 60 41 61 42 62
REMARK SMILES IDX 43 63 44 64 45 65 46 66 47 67 48 68 49 69
REMARK H PARENT
ROOT
ATOM      1  C   UNL     1      18.696 -11.490   0.000  1.00  0.00     0.131 C 
ENDROOT
BRANCH   1   2
ATOM      2  C   UNL     1      18.095 -12.076   1.262  1.00  0.00     0.306 C 
ATOM      3  O   UNL     1      18.832 -12.674   2.029  1.00  0.00    -0.252 OA
BRANCH   2   4
ATOM      4  O   UNL     1      16.738 -12.128   1.491  1.00  0.00    -0.462 OA
BRANCH   4   5
ATOM      5  C   UNL     1      15.711 -11.631   0.685  1.00  0.00     0.281 C 
BRANCH   5   6
ATOM      6  C   UNL     1      14.487 -12.584   0.467  1.00  0.00     0.251 C 
BRANCH   6   7
ATOM      7  O   UNL     1      13.367 -11.752  -0.094  1.00  0.00    -0.455 OA
BRANCH   7   8
ATOM      8  C   UNL     1      13.303 -10.332  -0.469  1.00  0.00     0.306 C 
ATOM      9  O   UNL     1      14.352  -9.780  -0.763  1.00  0.00    -0.252 OA
BRANCH   8  10
ATOM     10  C   UNL     1      12.005  -9.320  -0.697  1.00  0.00     0.123 C 
BRANCH  10  11
ATOM     11  C   UNL     1      12.000  -7.794   0.000  1.00  0.00     0.012 C 
BRANCH  11  12
ATOM     12  C   UNL     1      11.250  -6.495   0.000  1.00  0.00     0.001 C 
BRANCH  12  13
ATOM     13  C   UNL     1      10.500  -5.196   0.000  1.00  0.00     0.000 C 
BRANCH  13  14
ATOM     14  C   UNL     1      11.087  -3.774  -0.022  1.00  0.00     0.000 C 
BRANCH  14  15
ATOM     15  C   UNL     1       9.890  -2.829  -0.328  1.00  0.00     0.004 C 
BRANCH  15  16
ATOM     16  C   UNL     1      10.142  -1.339  -0.088  1.00  0.00     0.027 C 
BRANCH  16  17
ATOM     17  C   UNL     1       9.063  -0.468  -0.715  1.00  0.00    -0.031 C 
ATOM     18  C   UNL     1       7.733  -0.435  -0.457  1.00  0.00    -0.027 C 
BRANCH  18  19
ATOM     19  C   UNL     1       6.957  -1.249   0.549  1.00  0.00     0.054 C 
BRANCH  19  20
ATOM     20  C   UNL     1       6.035  -2.176  -0.212  1.00  0.00    -0.027 C 
ATOM     21  C   UNL     1       4.684  -2.217  -0.178  1.00  0.00    -0.027 C 
BRANCH  21  22
ATOM     22  C   UNL     1       3.757  -1.365   0.652  1.00  0.00     0.054 C 
BRANCH  22  23
ATOM     23  C   UNL     1       2.915  -0.510  -0.266  1.00  0.00    -0.027 C 
ATOM     24  C   UNL     1       1.578  -0.510  -0.496  1.00  0.00    -0.031 C 
BRANCH  24  25
ATOM     25  C   UNL     1       0.433  -1.362   0.032  1.00  0.00     0.023 C 
ATOM     26  C   UNL     1       0.731  -2.493   1.004  1.00  0.00     0.008 C 
ENDBRANCH  24  25
ENDBRANCH  22  23
ENDBRANCH  21  22
ENDBRANCH  19  20
ENDBRANCH  18  19
ENDBRANCH  16  17
ENDBRANCH  15  16
ENDBRANCH  14  15
ENDBRANCH  13  14
ENDBRANCH  12  13
ENDBRANCH  11  12
ENDBRANCH  10  11
ENDBRANCH   8  10
ENDBRANCH   7   8
ENDBRANCH   6   7
BRANCH   6  27
ATOM     27  C   UNL     1      15.077 -14.068  -0.167  1.00  0.00     0.281 C 
BRANCH  27  28
ATOM     28  O   UNL     1      14.462 -15.361   0.114  1.00  0.00    -0.462 OA
BRANCH  28  29
ATOM     29  C   UNL     1      14.684 -16.808   0.075  1.00  0.00     0.305 C 
ATOM     30  O   UNL     1      13.661 -17.452   0.234  1.00  0.00    -0.252 OA
BRANCH  29  31
ATOM     31  C   UNL     1      16.003 -17.803  -0.075  1.00  0.00     0.123 C 
BRANCH  31  32
ATOM     32  C   UNL     1      15.750 -19.486   0.000  1.00  0.00     0.020 C 
BRANCH  32  33
ATOM     33  C   UNL     1      16.500 -20.785   0.000  1.00  0.00    -0.013 C 
BRANCH  33  34
ATOM     34  C   UNL     1      17.250 -22.084   0.000  1.00  0.00     0.035 C 
BRANCH  34  35
ATOM     35  C   UNL     1      17.873 -23.496   0.000  1.00  0.00    -0.030 C 
ATOM     36  C   UNL     1      17.250 -24.682   0.000  1.00  0.00    -0.018 C 
BRANCH  36  37
ATOM     37  C   UNL     1      15.750 -24.682   0.000  1.00  0.00     0.034 C 
BRANCH  37  38
ATOM     38  C   UNL     1      14.250 -24.682   0.000  1.00  0.00    -0.018 C 
ATOM     39  C   UNL     1      13.500 -25.981   0.000  1.00  0.00    -0.026 C 
BRANCH  39  40
ATOM     40  C   UNL     1      14.250 -27.280   0.000  1.00  0.00     0.054 C 
BRANCH  40  41
ATOM     41  C   UNL     1      15.000 -28.579   0.000  1.00  0.00    -0.027 C 
ATOM     42  C   UNL     1      14.250 -29.878   0.000  1.00  0.00    -0.022 C 
BRANCH  42  43
ATOM     43  C   UNL     1      12.750 -29.878   0.000  1.00  0.00     0.017 C 
BRANCH  43  44
ATOM     44  C   UNL     1      11.250 -29.878   0.000  1.00  0.00     0.004 C 
BRANCH  44  45
ATOM     45  C   UNL     1       9.750 -29.878   0.000  1.00  0.00    -0.001 C 
BRANCH  45  46
ATOM     46  C   UNL     1       8.250 -29.878   0.000  1.00  0.00    -0.012 C 
ATOM     47  C   UNL     1       6.750 -29.878   0.000  1.00  0.00     0.013 C 
ENDBRANCH  45  46
ENDBRANCH  44  45
ENDBRANCH  43  44
ENDBRANCH  42  43
ENDBRANCH  40  41
ENDBRANCH  39  40
ENDBRANCH  37  38
ENDBRANCH  36  37
ENDBRANCH  34  35
ENDBRANCH  33  34
ENDBRANCH  32  33
ENDBRANCH  31  32
ENDBRANCH  29  31
ENDBRANCH  28  29
ENDBRANCH  27  28
ENDBRANCH   6  27
ENDBRANCH   5   6
ENDBRANCH   4   5
ENDBRANCH   2   4
ENDBRANCH   1   2
BRANCH   1  48
ATOM     48  C   UNL     1      19.995 -10.740   0.000  1.00  0.00    -0.006 C 
BRANCH  48  49
ATOM     49  C   UNL     1      21.294  -9.990   0.000  1.00  0.00     0.009 C 
BRANCH  49  50
ATOM     50  C   UNL     1      22.593  -9.240   0.000  1.00  0.00     0.001 C 
BRANCH  50  51
ATOM     51  C   UNL     1      23.892  -8.490   0.000  1.00  0.00     0.000 C 
BRANCH  51  52
ATOM     52  C   UNL     1      25.191  -7.740   0.000  1.00  0.00     0.000 C 
BRANCH  52  53
ATOM     53  C   UNL     1      26.708  -7.204   0.485  1.00  0.00     0.000 C 
BRANCH  53  54
ATOM     54  C   UNL     1      27.576  -6.074  -0.447  1.00  0.00     0.001 C 
BRANCH  54  55
ATOM     55  C   UNL     1      29.088  -5.490   0.000  1.00  0.00     0.008 C 
BRANCH  55  56
ATOM     56  C   UNL     1      30.387  -4.740   0.000  1.00  0.00    -0.017 C 
BRANCH  56  57
ATOM     57  C   UNL     1      31.686  -3.990   0.000  1.00  0.00     0.008 C 
BRANCH  57  58
ATOM     58  C   UNL     1      32.986  -3.240   0.000  1.00  0.00     0.001 C 
BRANCH  58  59
ATOM     59  C   UNL     1      34.285  -2.490   0.000  1.00  0.00     0.000 C 
BRANCH  59  60
ATOM     60  C   UNL     1      35.584  -1.740   0.000  1.00  0.00     0.000 C 
BRANCH  60  61
ATOM     61  C   UNL     1      37.221  -1.395   0.157  1.00  0.00     0.000 C 
BRANCH  61  62
ATOM     62  C   UNL     1      37.835   0.176  -0.075  1.00  0.00     0.000 C 
BRANCH  62  63
ATOM     63  C   UNL     1      39.481   0.510   0.000  1.00  0.00    -0.000 C 
BRANCH  63  64
ATOM     64  C   UNL     1      40.780   1.260   0.000  1.00  0.00    -0.000 C 
BRANCH  64  65
ATOM     65  C   UNL     1      42.079   2.010   0.000  1.00  0.00    -0.000 C 
BRANCH  65  66
ATOM     66  C   UNL     1      43.612   2.531  -0.452  1.00  0.00    -0.000 C 
BRANCH  66  67
ATOM     67  C   UNL     1      44.461   3.695   0.461  1.00  0.00    -0.000 C 
BRANCH  67  68
ATOM     68  C   UNL     1      45.976   4.260   0.000  1.00  0.00    -0.003 C 
ATOM     69  C   UNL     1      47.275   5.010   0.000  1.00  0.00     0.004 C 
ENDBRANCH  67  68
ENDBRANCH  66  67
ENDBRANCH  65  66
ENDBRANCH  64  65
ENDBRANCH  63  64
ENDBRANCH  62  63
ENDBRANCH  61  62
ENDBRANCH  60  61
ENDBRANCH  59  60
ENDBRANCH  58  59
ENDBRANCH  57  58
ENDBRANCH  56  57
ENDBRANCH  55  56
ENDBRANCH  54  55
ENDBRANCH  53  54
ENDBRANCH  52  53
ENDBRANCH  51  52
ENDBRANCH  50  51
ENDBRANCH  49  50
ENDBRANCH  48  49
ENDBRANCH   1  48
TORSDOF 56
