REMARK SMILES CC[C@H]1Cc2cc(O)c(O[C@H]3C[C@@H](Cc4ccc[nH]4)c4ccnc(N)c4CSSC[C@H](CO)[C@@H]3O)cc2[C@@H]2C[C@H](O)[C@@H]3[C@@H](C#C[C@@]45C[C@H](c6ccccc6)[C@@H]6Cc7ccccc7CC[C@@H]7CC[C@@H](O)[C@H]4[C@]76C=C[C@@H]5[C@@H](O)CC[C@@H]3O)C=C12
REMARK SMILES IDX 3 1 4 2 5 3 6 4 7 5 9 6 36 7 37 8 38 9 81 10 82 11 2 13 1 14
REMARK SMILES IDX 43 15 44 16 42 17 40 18 39 19 41 21 79 23 78 24 77 25 75 26
REMARK SMILES IDX 76 28 80 30 45 32 46 33 47 34 70 35 74 36 48 37 68 38 71 39
REMARK SMILES IDX 73 40 55 41 67 42 72 43 65 44 66 45 49 47 50 48 54 49 51 50
REMARK SMILES IDX 53 51 52 52 69 53 56 55 57 56 58 57 62 58 59 59 61 60 60 61
REMARK SMILES IDX 63 62 64 64 8 66 10 68 11 69 12 70 13 71 14 72 15 73 16 74
REMARK SMILES IDX 19 75 17 76 18 77 20 79 21 80 26 81 22 82 24 83 23 84 27 85
REMARK SMILES IDX 28 86 29 87 30 88 25 90 34 93 31 94 32 96 33 97 35 99
REMARK H PARENT 41 22 76 29 80 31 69 54 8 67 19 78 25 91 25 92 33 98 35 100
REMARK Flexibility Score:  205.600
ROOT
ATOM      1  C   UNL     1       1.756   1.115  -1.250  1.00  0.00     0.019 C 
ATOM      2  C   UNL     1       0.911  -0.109  -1.524  1.00  0.00     0.044 C 
ATOM      3  C   UNL     1      -0.142  -0.292  -0.492  1.00  0.00    -0.040 A 
ATOM      4  C   UNL     1      -0.410  -1.575  -0.004  1.00  0.00     0.054 A 
ATOM      5  C   UNL     1      -1.491  -1.799   0.842  1.00  0.00     0.157 A 
ATOM      6  C   UNL     1      -2.340  -0.729   1.187  1.00  0.00     0.161 A 
ATOM      7  C   UNL     1      -2.014   0.574   0.766  1.00  0.00     0.055 A 
ATOM      8  C   UNL     1      -0.902   0.815  -0.070  1.00  0.00    -0.034 A 
ATOM      9  C   UNL     1      -0.539   2.255  -0.497  1.00  0.00     0.048 CG1
ATOM     10  C   UNL     1       1.376   3.474  -1.654  1.00  0.00    -0.010 C 
ATOM     11  C   UNL     1       0.850   2.345  -1.160  1.00  0.00    -0.062 C 
ATOM     12  G   UNL     1      -1.681   2.841  -1.362  1.00  0.00     0.000 G1
ENDROOT
BRANCH   1  13
ATOM     13  C   UNL     1       2.649   0.964   0.000  1.00  0.00     0.005 C 
ATOM     14  C   UNL     1       3.798   1.928  -0.000  1.00  0.00     0.004 C 
ENDBRANCH   1  13
BRANCH  10  15
ATOM     15  C   UNL     1       0.784   4.846  -1.735  1.00  0.00     0.095 C 
ATOM     16  C   UNL     1       1.490   5.855  -0.910  1.00  0.00    -0.095 C 
BRANCH  15  17
ATOM     17  C   UNL     1      -0.691   5.135  -2.194  1.00  0.00     0.065 C 
BRANCH  17  18
ATOM     18  C   UNL     1      -1.770   4.386  -1.368  1.00  0.00     0.122 C 
BRANCH  18  19
ATOM     19  C   UNL     1      -1.681   2.841  -1.362  1.00  0.00     0.045 CG1
ATOM     20  G   UNL     1      -0.539   2.255  -0.497  1.00  0.00     0.000 G1
ENDBRANCH  18  19
BRANCH  18  21
ATOM     21  O   UNL     1      -3.027   4.729  -1.903  1.00  0.00    -0.393 OA
ATOM     22  H   UNL     1      -3.673   4.758  -1.149  1.00  0.00     0.210 HD
ENDBRANCH  18  21
ENDBRANCH  17  18
BRANCH  17  23
ATOM     23  C   UNL     1      -0.997   6.691  -2.167  1.00  0.00     0.121 C 
BRANCH  23  24
ATOM     24  C   UNL     1       0.037   7.563  -2.967  1.00  0.00     0.035 C 
BRANCH  24  25
ATOM     25  C   UNL     1       0.348   8.933  -2.315  1.00  0.00     0.035 C 
BRANCH  25  26
ATOM     26  C   UNL     1       1.760   9.486  -2.651  1.00  0.00     0.123 CG3
ATOM     27  G   UNL     1       2.999   8.612  -2.155  1.00  0.00     0.000 G3
BRANCH  26  28
ATOM     28  O   UNL     1       1.859   9.675  -4.041  1.00  0.00    -0.392 OA
ATOM     29  H   UNL     1       1.353  10.499  -4.261  1.00  0.00     0.210 HD
ENDBRANCH  26  28
ENDBRANCH  25  26
ENDBRANCH  24  25
ENDBRANCH  23  24
BRANCH  23  30
ATOM     30  O   UNL     1      -1.034   7.089  -0.813  1.00  0.00    -0.393 OA
ATOM     31  H   UNL     1      -1.985   7.188  -0.546  1.00  0.00     0.210 HD
ENDBRANCH  23  30
ENDBRANCH  17  23
ENDBRANCH  15  17
BRANCH  16  32
ATOM     32  C   UNL     1       2.057   6.892  -0.632  1.00  0.00    -0.095 C 
ATOM     33  C   UNL     1       2.999   8.049  -0.652  1.00  0.00     0.047 C 
ATOM     34  C   UNL     1       2.541   9.147   0.382  1.00  0.00     0.030 C 
ATOM     35  C   UNL     1       4.451   7.529  -0.294  1.00  0.00     0.047 C 
ATOM     36  C   UNL     1       2.999   8.612  -2.155  1.00  0.00     0.059 CG3
ATOM     37  C   UNL     1       3.576   9.459   1.486  1.00  0.00     0.025 C 
ATOM     38  C   UNL     1       4.980   6.379  -1.232  1.00  0.00     0.120 C 
ATOM     39  C   UNL     1       5.421   8.787  -0.286  1.00  0.00     0.002 C 
ATOM     40  C   UNL     1       4.286   9.349  -2.489  1.00  0.00    -0.023 C 
ATOM     41  C   UNL     1       4.958   9.824   0.843  1.00  0.00     0.012 C 
ATOM     42  C   UNL     1       6.389   5.960  -0.837  1.00  0.00     0.032 C 
ATOM     43  C   UNL     1       5.356   9.422  -1.677  1.00  0.00    -0.023 C 
ATOM     44  C   UNL     1       6.891   8.289   0.021  1.00  0.00     0.000 C 
ATOM     45  C   UNL     1       7.324   7.145  -0.931  1.00  0.00     0.007 C 
ATOM     46  G   UNL     1       1.760   9.486  -2.651  1.00  0.00     0.000 G3
BRANCH  37  47
ATOM     47  C   UNL     1       3.133  10.537   2.493  1.00  0.00    -0.045 A 
ATOM     48  C   UNL     1       1.946  11.291   2.344  1.00  0.00     0.004 A 
ATOM     49  C   UNL     1       3.955  10.807   3.608  1.00  0.00     0.004 A 
ATOM     50  C   UNL     1       1.611  12.285   3.269  1.00  0.00     0.000 A 
ATOM     51  C   UNL     1       3.613  11.803   4.528  1.00  0.00     0.000 A 
ATOM     52  C   UNL     1       2.443  12.542   4.357  1.00  0.00     0.000 A 
ENDBRANCH  37  47
BRANCH  38  53
ATOM     53  O   UNL     1       4.169   5.235  -1.195  1.00  0.00    -0.393 OA
ATOM     54  H   UNL     1       4.107   4.942  -0.248  1.00  0.00     0.210 HD
ENDBRANCH  38  53
BRANCH  41  55
ATOM     55  C   UNL     1       4.913  11.308   0.382  1.00  0.00     0.041 C 
BRANCH  55  56
ATOM     56  C   UNL     1       6.149  12.152   0.127  1.00  0.00    -0.044 A 
ATOM     57  C   UNL     1       5.856  13.445  -0.366  1.00  0.00     0.004 A 
ATOM     58  C   UNL     1       7.517  11.811   0.360  1.00  0.00    -0.045 A 
ATOM     59  C   UNL     1       6.856  14.366  -0.656  1.00  0.00     0.000 A 
ATOM     60  C   UNL     1       8.509  12.779   0.059  1.00  0.00     0.004 A 
ATOM     61  C   UNL     1       8.182  14.032  -0.447  1.00  0.00     0.000 A 
BRANCH  58  62
ATOM     62  C   UNL     1       8.035  10.506   0.949  1.00  0.00     0.036 CG2
ATOM     63  G   UNL     1       8.047   9.325  -0.027  1.00  0.00     0.000 G2
ENDBRANCH  58  62
ENDBRANCH  55  56
ENDBRANCH  41  55
BRANCH  44  64
ATOM     64  C   UNL     1       8.047   9.325  -0.027  1.00  0.00     0.009 CG2
ATOM     65  G   UNL     1       8.035  10.506   0.949  1.00  0.00     0.000 G2
ENDBRANCH  44  64
ENDBRANCH  16  32
ENDBRANCH  10  15
BRANCH   5  66
ATOM     66  O   UNL     1      -1.703  -3.052   1.286  1.00  0.00    -0.504 OA
ATOM     67  H   UNL     1      -2.366  -3.262   1.953  1.00  0.00     0.293 HD
ENDBRANCH   5  66
BRANCH   6  68
ATOM     68  O   UNL     1      -3.506  -0.952   1.853  1.00  0.00    -0.484 OA
BRANCH  68  69
ATOM     69  C   UNL     1      -4.654  -1.294   1.128  1.00  0.00     0.203 C 
BRANCH  69  70
ATOM     70  C   UNL     1      -5.218  -2.692   1.586  1.00  0.00     0.056 C 
BRANCH  70  71
ATOM     71  C   UNL     1      -5.540  -3.618   0.373  1.00  0.00     0.029 C 
BRANCH  71  72
ATOM     72  C   UNL     1      -4.208  -4.088  -0.300  1.00  0.00     0.062 C 
BRANCH  72  73
ATOM     73  C   UNL     1      -4.358  -5.060  -1.436  1.00  0.00     0.015 A 
ATOM     74  C   UNL     1      -3.889  -6.361  -1.425  1.00  0.00     0.023 A 
ATOM     75  N   UNL     1      -4.928  -4.787  -2.622  1.00  0.00    -0.365 N 
ATOM     76  C   UNL     1      -4.199  -6.898  -2.655  1.00  0.00     0.019 A 
ATOM     77  C   UNL     1      -4.838  -5.904  -3.368  1.00  0.00     0.082 A 
ATOM     78  H   UNL     1      -5.346  -3.880  -2.920  1.00  0.00     0.166 HD
ENDBRANCH  72  73
ENDBRANCH  71  72
BRANCH  71  79
ATOM     79  C   UNL     1      -6.435  -4.816   0.715  1.00  0.00    -0.035 A 
ATOM     80  C   UNL     1      -5.869  -5.856   1.473  1.00  0.00     0.024 A 
ATOM     81  C   UNL     1      -7.804  -4.942   0.267  1.00  0.00     0.009 A 
ATOM     82  C   UNL     1      -6.595  -7.001   1.750  1.00  0.00     0.114 A 
ATOM     83  C   UNL     1      -8.492  -6.161   0.580  1.00  0.00     0.127 A 
ATOM     84  N   UNL     1      -7.859  -7.127   1.296  1.00  0.00    -0.239 NA
BRANCH  81  85
ATOM     85  C   UNL     1      -8.550  -3.792  -0.434  1.00  0.00     0.121 C 
BRANCH  85  86
ATOM     86  S   UNL     1      -7.886  -3.232  -2.048  1.00  0.00    -0.089 SA
BRANCH  86  87
ATOM     87  S   UNL     1      -8.479  -1.167  -1.799  1.00  0.00    -0.093 SA
BRANCH  87  88
ATOM     88  C   UNL     1      -6.927  -0.532  -1.034  1.00  0.00     0.090 CG0
ATOM     89  G   UNL     1      -7.058  -0.393   0.511  1.00  0.00     0.000 G0
ENDBRANCH  87  88
ENDBRANCH  86  87
ENDBRANCH  85  86
ENDBRANCH  81  85
BRANCH  83  90
ATOM     90  N   UNL     1      -9.831  -6.437   0.186  1.00  0.00    -0.383 N 
ATOM     91  H   UNL     1     -10.407  -5.827  -0.401  1.00  0.00     0.158 HD
ATOM     92  H   UNL     1     -10.257  -7.335   0.458  1.00  0.00     0.158 HD
ENDBRANCH  83  90
ENDBRANCH  71  79
ENDBRANCH  70  71
ENDBRANCH  69  70
BRANCH  69  93
ATOM     93  C   UNL     1      -5.701  -0.142   1.239  1.00  0.00     0.161 C 
BRANCH  93  94
ATOM     94  C   UNL     1      -7.058  -0.393   0.511  1.00  0.00     0.058 CG0
ATOM     95  G   UNL     1      -6.927  -0.532  -1.034  1.00  0.00     0.000 G0
BRANCH  94  96
ATOM     96  C   UNL     1      -8.076   0.722   0.845  1.00  0.00     0.163 C 
BRANCH  96  97
ATOM     97  O   UNL     1      -8.299   0.802   2.229  1.00  0.00    -0.396 OA
ATOM     98  H   UNL     1      -7.755   1.560   2.570  1.00  0.00     0.210 HD
ENDBRANCH  96  97
ENDBRANCH  94  96
ENDBRANCH  93  94
BRANCH  93  99
ATOM     99  O   UNL     1      -5.129   1.050   0.759  1.00  0.00    -0.389 OA
ATOM    100  H   UNL     1      -5.326   1.764   1.420  1.00  0.00     0.211 HD
ENDBRANCH  93  99
ENDBRANCH  69  93
ENDBRANCH  68  69
ENDBRANCH   6  68
TORSDOF 15
