REMARK SMILES CNc1ccc(C(=O)Nc2ccn([C@H]3C[C@@H](O)[C@H](O[C@H]4O[C@H](C)[C@@H](N(C)C)[C@H](O)[C@H]4O)[C@@H](C)O3)c(=O)n2)cc1
REMARK SMILES IDX 10 1 37 2 35 3 36 4 13 5 12 6 11 7 9 8 7 9 8 10 6 12 3 13
REMARK SMILES IDX 4 14 39 15 5 16 38 17 2 18 1 19 14 21 15 22 34 23 16 24
REMARK SMILES IDX 32 25 18 26 33 27 17 28 19 30 20 31 21 32 30 33 22 34 28 35
REMARK SMILES IDX 24 36 23 37 31 38 29 40 25 42 26 43 27 44
REMARK H PARENT 9 11 2 20 17 29 31 39 29 41
ROOT
ATOM      1  C   UNL     1       4.111  -0.451  -0.703  1.00  0.00     0.140 A 
ATOM      2  N   UNL     1       3.528   0.741  -1.009  1.00  0.00    -0.175 NA
ATOM      3  C   UNL     1       2.263   0.824  -1.484  1.00  0.00     0.351 A 
ATOM      4  O   UNL     1       1.814   1.928  -1.753  1.00  0.00    -0.246 OA
ATOM      5  N   UNL     1       1.494  -0.317  -1.665  1.00  0.00    -0.272 N 
ATOM      6  C   UNL     1       2.073  -1.533  -1.381  1.00  0.00     0.097 A 
ATOM      7  C   UNL     1       3.378  -1.618  -0.895  1.00  0.00     0.065 A 
ENDROOT
BRANCH   1   8
ATOM      8  N   UNL     1       5.456  -0.517  -0.215  1.00  0.00    -0.306 N 
ATOM      9  C   UNL     1       6.238   0.582   0.026  1.00  0.00     0.256 C 
ATOM     10  O   UNL     1       5.783   1.701  -0.162  1.00  0.00    -0.269 OA
ATOM     11  H   UNL     1       5.832  -1.458  -0.039  1.00  0.00     0.171 HD
BRANCH   9  12
ATOM     12  C   UNL     1       7.652   0.477   0.522  1.00  0.00     0.040 A 
ATOM     13  C   UNL     1      10.332   0.395   1.455  1.00  0.00     0.034 A 
ATOM     14  C   UNL     1       9.633  -0.794   1.179  1.00  0.00     0.026 A 
ATOM     15  C   UNL     1       9.681   1.619   1.262  1.00  0.00     0.026 A 
ATOM     16  C   UNL     1       8.312  -0.754   0.720  1.00  0.00     0.016 A 
ATOM     17  C   UNL     1       8.365   1.662   0.801  1.00  0.00     0.016 A 
BRANCH  13  18
ATOM     18  N   UNL     1      11.679   0.391   1.923  1.00  0.00    -0.388 N 
ATOM     19  C   UNL     1      12.437  -0.821   2.143  1.00  0.00     0.139 C 
ATOM     20  H   UNL     1      12.145   1.291   2.116  1.00  0.00     0.160 HD
ENDBRANCH  13  18
ENDBRANCH   9  12
ENDBRANCH   1   8
BRANCH   5  21
ATOM     21  C   UNL     1       0.114  -0.172  -2.208  1.00  0.00     0.226 C 
ATOM     22  C   UNL     1      -0.730  -1.465  -2.395  1.00  0.00     0.090 C 
ATOM     23  O   UNL     1      -0.617   0.851  -1.526  1.00  0.00    -0.352 OA
ATOM     24  C   UNL     1      -1.350  -1.964  -1.077  1.00  0.00     0.150 C 
ATOM     25  C   UNL     1      -1.194   0.460  -0.282  1.00  0.00     0.149 C 
ATOM     26  C   UNL     1      -2.107  -0.781  -0.432  1.00  0.00     0.179 C 
ATOM     27  C   UNL     1      -0.160   0.427   0.856  1.00  0.00     0.041 C 
BRANCH  24  28
ATOM     28  O   UNL     1      -0.365  -2.533  -0.249  1.00  0.00    -0.390 OA
ATOM     29  H   UNL     1      -0.490  -2.242   0.687  1.00  0.00     0.211 HD
ENDBRANCH  24  28
BRANCH  26  30
ATOM     30  O   UNL     1      -3.168  -0.429  -1.312  1.00  0.00    -0.341 OA
BRANCH  30  31
ATOM     31  C   UNL     1      -4.411  -0.170  -0.675  1.00  0.00     0.282 C 
ATOM     32  O   UNL     1      -4.760   1.183  -0.844  1.00  0.00    -0.345 OA
ATOM     33  C   UNL     1      -5.482  -1.040  -1.340  1.00  0.00     0.201 C 
ATOM     34  C   UNL     1      -5.863   1.557  -0.008  1.00  0.00     0.138 C 
ATOM     35  C   UNL     1      -6.905  -0.499  -1.058  1.00  0.00     0.168 C 
ATOM     36  C   UNL     1      -6.963   0.413   0.213  1.00  0.00     0.116 C 
ATOM     37  C   UNL     1      -5.269   2.137   1.295  1.00  0.00     0.040 C 
BRANCH  33  38
ATOM     38  O   UNL     1      -5.293  -1.153  -2.731  1.00  0.00    -0.385 OA
ATOM     39  H   UNL     1      -5.241  -0.233  -3.103  1.00  0.00     0.211 HD
ENDBRANCH  33  38
BRANCH  35  40
ATOM     40  O   UNL     1      -7.786  -1.591  -1.041  1.00  0.00    -0.388 OA
ATOM     41  H   UNL     1      -7.584  -2.115  -0.222  1.00  0.00     0.211 HD
ENDBRANCH  35  40
BRANCH  36  42
ATOM     42  N   UNL     1      -8.348   0.985   0.407  1.00  0.00    -0.301 NA
ATOM     43  C   UNL     1      -8.436   2.003   1.469  1.00  0.00     0.105 C 
ATOM     44  C   UNL     1      -9.381  -0.040   0.668  1.00  0.00     0.105 C 
ENDBRANCH  36  42
ENDBRANCH  30  31
ENDBRANCH  26  30
ENDBRANCH   5  21
TORSDOF 10
