REMARK SMILES C[C@@H]1O[C@@H](O[C@H]2[C@H](O[C@H]3CC[C@]4(C)[C@H]5CC=C6[C@@H]7CC(C)(C)CC[C@]7(C(=O)O[C@H]7O[C@@H](CO[C@H]8O[C@@H](CO)[C@H](O)[C@@H](O)[C@@H]8O)[C@H](O)[C@@H](O)[C@@H]7O)CC[C@@]6(C)[C@]5(C)CC[C@H]4C3(C)C)O[C@H](CO)[C@@H](O)[C@@H]2O)[C@H](O)[C@H](O)[C@H]1O
REMARK SMILES IDX 26 1 27 2 25 3 9 4 10 5 60 6 11 7 59 8 12 9 58 10 14 11
REMARK SMILES IDX 57 12 15 13 55 14 16 15 53 16 17 17 52 18 18 19 51 20 19 21
REMARK SMILES IDX 20 22 24 23 23 24 61 25 62 26 13 27 56 28 54 29 21 30 22 31
REMARK SMILES IDX 8 32 7 33 6 34 69 35 63 36 67 37 64 38 5 39 4 40 2 41 3 42
REMARK SMILES IDX 75 43 73 44 71 45 1 46 76 47 74 49 72 51 70 53 68 55 65 57
REMARK SMILES IDX 66 58 28 60 29 61 30 62 49 63 31 64 47 65 45 66 50 67 32 69
REMARK SMILES IDX 33 70 34 71 35 72 43 73 36 74 41 75 39 76 44 77 37 79 38 80
REMARK SMILES IDX 42 82 40 84 48 86 46 88
REMARK H PARENT 76 48 74 50 72 52 70 54 68 56 66 59 50 68 44 78 38 81 42 83
REMARK H PARENT 40 85 48 87 46 89
ROOT
ATOM      1  C   UNL     1      -4.156  -1.396   0.425  1.00  0.00     0.315 C 
ATOM      2  O   UNL     1      -3.852  -0.606   1.312  1.00  0.00    -0.252 OA
ENDROOT
BRANCH   1   3
ATOM      3  C   UNL     1      -3.215  -2.553   0.039  1.00  0.00     0.075 C 
ATOM      4  C   UNL     1       5.418   1.546   0.751  1.00  0.00     0.127 C 
ATOM      5  C   UNL     1       4.506   2.079   1.867  1.00  0.00     0.033 C 
ATOM      6  C   UNL     1       4.790   1.729  -0.673  1.00  0.00    -0.006 C 
ATOM      7  C   UNL     1       3.162   1.333   1.851  1.00  0.00     0.010 C 
ATOM      8  C   UNL     1       3.347   1.071  -0.671  1.00  0.00     0.003 C 
ATOM      9  C   UNL     1       2.377   1.479   0.505  1.00  0.00    -0.025 C 
ATOM     10  C   UNL     1       2.575   1.123  -2.025  1.00  0.00     0.005 C 
ATOM     11  C   UNL     1       1.186   0.408   0.490  1.00  0.00     0.006 C 
ATOM     12  C   UNL     1       1.459   0.061  -2.020  1.00  0.00     0.008 C 
ATOM     13  C   UNL     1       0.193   0.590   1.658  1.00  0.00     0.032 C 
ATOM     14  C   UNL     1       0.399   0.178  -0.861  1.00  0.00    -0.020 C 
ATOM     15  C   UNL     1      -0.769  -0.541   1.746  1.00  0.00    -0.027 C 
ATOM     16  C   UNL     1      -0.502  -1.195  -0.709  1.00  0.00    -0.006 C 
ATOM     17  C   UNL     1      -1.048  -1.391   0.736  1.00  0.00    -0.063 C 
ATOM     18  C   UNL     1      -1.783  -1.179  -1.628  1.00  0.00     0.013 C 
ATOM     19  C   UNL     1      -2.012  -2.544   1.048  1.00  0.00     0.033 C 
ATOM     20  C   UNL     1      -2.727  -2.392  -1.433  1.00  0.00     0.020 C 
ATOM     21  C   UNL     1      -1.316  -3.896   1.356  1.00  0.00     0.015 C 
ATOM     22  C   UNL     1      -2.316  -5.074   1.630  1.00  0.00    -0.035 C 
ATOM     23  C   UNL     1      -4.023  -3.896   0.145  1.00  0.00     0.020 C 
ATOM     24  C   UNL     1      -3.806  -4.622   1.478  1.00  0.00     0.007 C 
ATOM     25  C   UNL     1       5.710   0.958  -1.661  1.00  0.00     0.014 C 
ATOM     26  C   UNL     1       4.808   3.209  -1.133  1.00  0.00     0.014 C 
ATOM     27  C   UNL     1       1.870   2.959   0.442  1.00  0.00     0.012 C 
ATOM     28  C   UNL     1      -0.528   1.386  -1.202  1.00  0.00     0.012 C 
ATOM     29  C   UNL     1       0.348  -2.439  -1.111  1.00  0.00     0.017 C 
ATOM     30  C   UNL     1      -2.119  -5.624   3.056  1.00  0.00     0.011 C 
ATOM     31  C   UNL     1      -1.994  -6.231   0.643  1.00  0.00     0.011 C 
BRANCH   4  32
ATOM     32  O   UNL     1       6.686   2.184   0.803  1.00  0.00    -0.346 OA
BRANCH  32  33
ATOM     33  C   UNL     1       7.535   1.661   1.814  1.00  0.00     0.282 C 
ATOM     34  C   UNL     1       8.950   1.449   1.203  1.00  0.00     0.209 C 
ATOM     35  C   UNL     1      10.056   1.780   2.250  1.00  0.00     0.180 C 
ATOM     36  O   UNL     1       7.569   2.556   2.909  1.00  0.00    -0.341 OA
ATOM     37  C   UNL     1       9.611   1.266   3.626  1.00  0.00     0.177 C 
ATOM     38  C   UNL     1       8.266   1.993   4.031  1.00  0.00     0.178 C 
BRANCH  34  39
ATOM     39  O   UNL     1       9.016   0.075   0.855  1.00  0.00    -0.338 OA
BRANCH  39  40
ATOM     40  C   UNL     1       9.574  -0.218  -0.411  1.00  0.00     0.282 C 
ATOM     41  C   UNL     1       9.022  -1.328  -2.459  1.00  0.00     0.150 C 
ATOM     42  O   UNL     1       8.591  -0.912  -1.159  1.00  0.00    -0.344 OA
ATOM     43  C   UNL     1      10.553  -1.594  -2.595  1.00  0.00     0.174 C 
ATOM     44  C   UNL     1      11.038  -2.161  -1.261  1.00  0.00     0.179 C 
ATOM     45  C   UNL     1      10.836  -1.096  -0.159  1.00  0.00     0.202 C 
ATOM     46  C   UNL     1       8.539  -0.363  -3.541  1.00  0.00     0.041 C 
BRANCH  43  47
ATOM     47  O   UNL     1      10.815  -2.463  -3.671  1.00  0.00    -0.388 OA
ATOM     48  H   UNL     1      10.433  -3.349  -3.445  1.00  0.00     0.211 HD
ENDBRANCH  43  47
BRANCH  44  49
ATOM     49  O   UNL     1      12.362  -2.636  -1.294  1.00  0.00    -0.387 OA
ATOM     50  H   UNL     1      12.921  -1.947  -1.737  1.00  0.00     0.211 HD
ENDBRANCH  44  49
BRANCH  45  51
ATOM     51  O   UNL     1      11.961  -0.263  -0.006  1.00  0.00    -0.385 OA
ATOM     52  H   UNL     1      12.121   0.207  -0.867  1.00  0.00     0.211 HD
ENDBRANCH  45  51
ENDBRANCH  39  40
ENDBRANCH  34  39
BRANCH  35  53
ATOM     53  O   UNL     1      10.334   3.163   2.329  1.00  0.00    -0.387 OA
ATOM     54  H   UNL     1       9.549   3.689   2.029  1.00  0.00     0.211 HD
ENDBRANCH  35  53
BRANCH  37  55
ATOM     55  O   UNL     1       9.497  -0.141   3.576  1.00  0.00    -0.387 OA
ATOM     56  H   UNL     1       8.547  -0.414   3.555  1.00  0.00     0.211 HD
ENDBRANCH  37  55
BRANCH  38  57
ATOM     57  C   UNL     1       8.553   3.137   5.017  1.00  0.00     0.191 C 
BRANCH  57  58
ATOM     58  O   UNL     1       7.354   3.705   5.473  1.00  0.00    -0.394 OA
ATOM     59  H   UNL     1       7.050   4.336   4.771  1.00  0.00     0.210 HD
ENDBRANCH  57  58
ENDBRANCH  38  57
ENDBRANCH  32  33
ENDBRANCH   4  32
ENDBRANCH   1   3
BRANCH   1  60
ATOM     60  O   UNL     1      -5.387  -1.310  -0.141  1.00  0.00    -0.432 OA
BRANCH  60  61
ATOM     61  C   UNL     1      -6.489  -0.792   0.524  1.00  0.00     0.342 C 
ATOM     62  O   UNL     1      -6.972   0.368  -0.130  1.00  0.00    -0.332 OA
ATOM     63  C   UNL     1      -7.586  -1.882   0.601  1.00  0.00     0.214 C 
ATOM     64  C   UNL     1      -7.861   1.071   0.749  1.00  0.00     0.180 C 
ATOM     65  C   UNL     1      -9.005  -1.252   0.708  1.00  0.00     0.180 C 
ATOM     66  C   UNL     1      -8.971   0.141   1.387  1.00  0.00     0.177 C 
BRANCH  63  67
ATOM     67  O   UNL     1      -7.306  -2.791   1.637  1.00  0.00    -0.384 OA
ATOM     68  H   UNL     1      -7.457  -2.333   2.501  1.00  0.00     0.211 HD
ENDBRANCH  63  67
BRANCH  64  69
ATOM     69  C   UNL     1      -8.396   2.346   0.054  1.00  0.00     0.198 C 
BRANCH  69  70
ATOM     70  O   UNL     1      -8.857   2.138  -1.270  1.00  0.00    -0.347 OA
BRANCH  70  71
ATOM     71  C   UNL     1     -10.251   1.920  -1.347  1.00  0.00     0.282 C 
ATOM     72  O   UNL     1     -10.974   3.030  -0.797  1.00  0.00    -0.341 OA
ATOM     73  C   UNL     1     -10.613   1.726  -2.833  1.00  0.00     0.202 C 
ATOM     74  C   UNL     1     -12.360   3.115  -1.170  1.00  0.00     0.178 C 
ATOM     75  C   UNL     1     -12.089   1.293  -2.970  1.00  0.00     0.179 C 
ATOM     76  C   UNL     1     -12.939   1.802  -1.775  1.00  0.00     0.177 C 
BRANCH  73  77
ATOM     77  O   UNL     1      -9.755   0.836  -3.502  1.00  0.00    -0.385 OA
ATOM     78  H   UNL     1      -9.875  -0.059  -3.096  1.00  0.00     0.211 HD
ENDBRANCH  73  77
BRANCH  74  79
ATOM     79  C   UNL     1     -12.588   4.348  -2.059  1.00  0.00     0.191 C 
BRANCH  79  80
ATOM     80  O   UNL     1     -12.190   5.511  -1.385  1.00  0.00    -0.394 OA
ATOM     81  H   UNL     1     -12.934   5.755  -0.774  1.00  0.00     0.210 HD
ENDBRANCH  79  80
ENDBRANCH  74  79
BRANCH  75  82
ATOM     82  O   UNL     1     -12.595   1.665  -4.229  1.00  0.00    -0.387 OA
ATOM     83  H   UNL     1     -12.816   2.628  -4.205  1.00  0.00     0.211 HD
ENDBRANCH  75  82
BRANCH  76  84
ATOM     84  O   UNL     1     -12.906   0.819  -0.766  1.00  0.00    -0.387 OA
ATOM     85  H   UNL     1     -13.670   0.993  -0.157  1.00  0.00     0.211 HD
ENDBRANCH  76  84
ENDBRANCH  70  71
ENDBRANCH  69  70
ENDBRANCH  64  69
BRANCH  65  86
ATOM     86  O   UNL     1      -9.569  -1.140  -0.575  1.00  0.00    -0.387 OA
ATOM     87  H   UNL     1      -8.897  -0.739  -1.181  1.00  0.00     0.211 HD
ENDBRANCH  65  86
BRANCH  66  88
ATOM     88  O   UNL     1      -8.790   0.000   2.779  1.00  0.00    -0.387 OA
ATOM     89  H   UNL     1      -7.840  -0.187   2.975  1.00  0.00     0.211 HD
ENDBRANCH  66  88
ENDBRANCH  60  61
ENDBRANCH   1  60
TORSDOF 25
