REMARK SMILES CC1=C(CO[C@@H]2O[C@H](CO)[C@@H](O)[C@H](O)[C@H]2O)C(=O)O[C@@H]([C@@H](C)[C@H]2CC[C@H]3[C@@H]4[C@@H]5O[C@@H]5[C@@]5(O)CC=CC(=O)[C@]5(C)[C@H]4C[C@@H](O)[C@]23C)C1
REMARK SMILES IDX 4 1 3 2 2 3 46 4 17 5 20 6 18 7 19 8 1 9 21 10 22 11 23 12
REMARK SMILES IDX 24 13 44 14 25 15 42 16 26 17 41 18 27 19 40 20 28 21 38 22
REMARK SMILES IDX 29 23 30 24 36 25 31 26 35 27 37 28 33 29 34 30 45 31 39 32
REMARK SMILES IDX 43 33 32 35 5 37 6 38 7 39 15 40 8 41 13 42 11 43 16 44 9 46
REMARK SMILES IDX 10 47 14 49 12 51
REMARK H PARENT 43 34 32 36 16 45 10 48 14 50 12 52
ROOT
ATOM      1  C   UNL     1       5.780  -1.552  -1.073  1.00  0.00     0.207 C 
ENDROOT
BRANCH   1   2
ATOM      2  C   UNL     1       4.254  -1.672  -0.930  1.00  0.00     0.062 C 
ATOM      3  C   UNL     1       3.502  -1.694   0.224  1.00  0.00    -0.057 C 
ATOM      4  C   UNL     1       1.981  -1.765   0.156  1.00  0.00     0.077 C 
ATOM      5  C   UNL     1       3.517  -1.855  -2.220  1.00  0.00     0.336 C 
ATOM      6  C   UNL     1       1.431  -1.350  -1.227  1.00  0.00     0.184 C 
ATOM      7  O   UNL     1       4.124  -1.998  -3.270  1.00  0.00    -0.246 OA
ATOM      8  O   UNL     1       2.169  -1.947  -2.222  1.00  0.00    -0.458 OA
ATOM      9  C   UNL     1       4.040  -1.759   1.633  1.00  0.00     0.040 C 
BRANCH   6  10
ATOM     10  C   UNL     1      -0.090  -1.642  -1.453  1.00  0.00     0.031 C 
ATOM     11  C   UNL     1      -0.367  -3.139  -1.208  1.00  0.00     0.012 C 
BRANCH  10  12
ATOM     12  C   UNL     1      -1.026  -0.653  -0.657  1.00  0.00     0.004 C 
ATOM     13  C   UNL     1      -0.727   0.833  -1.054  1.00  0.00     0.005 C 
ATOM     14  C   UNL     1      -2.593  -0.750  -0.758  1.00  0.00    -0.000 C 
ATOM     15  C   UNL     1      -2.071   1.562  -1.157  1.00  0.00     0.005 C 
ATOM     16  C   UNL     1      -3.301  -1.695   0.271  1.00  0.00     0.121 C 
ATOM     17  C   UNL     1      -2.986   0.693  -0.323  1.00  0.00     0.004 C 
ATOM     18  C   UNL     1      -4.844  -1.484   0.281  1.00  0.00     0.037 C 
ATOM     19  C   UNL     1      -4.509   0.951  -0.416  1.00  0.00     0.029 C 
ATOM     20  C   UNL     1      -5.242  -0.002   0.596  1.00  0.00     0.014 C 
ATOM     21  C   UNL     1      -4.846   2.441  -0.242  1.00  0.00     0.154 C 
ATOM     22  C   UNL     1      -6.798   0.298   0.611  1.00  0.00     0.065 C 
ATOM     23  O   UNL     1      -4.903   2.861   1.068  1.00  0.00    -0.366 OA
ATOM     24  C   UNL     1      -6.158   2.814   0.372  1.00  0.00     0.181 C 
ATOM     25  C   UNL     1      -7.617  -0.565   1.581  1.00  0.00     0.164 C 
ATOM     26  C   UNL     1      -7.030   1.768   1.121  1.00  0.00     0.110 C 
ATOM     27  C   UNL     1      -9.013  -0.160   1.879  1.00  0.00     0.044 C 
ATOM     28  O   UNL     1      -7.159  -1.546   2.141  1.00  0.00    -0.294 OA
ATOM     29  C   UNL     1      -8.543   2.134   0.970  1.00  0.00     0.066 C 
ATOM     30  C   UNL     1      -9.454   1.072   1.561  1.00  0.00    -0.020 C 
ATOM     31  C   UNL     1      -3.017  -1.093  -2.232  1.00  0.00     0.015 C 
ATOM     32  C   UNL     1      -7.399   0.071  -0.816  1.00  0.00     0.023 C 
BRANCH  16  33
ATOM     33  O   UNL     1      -2.988  -3.050   0.081  1.00  0.00    -0.393 OA
ATOM     34  H   UNL     1      -3.534  -3.392  -0.674  1.00  0.00     0.210 HD
ENDBRANCH  16  33
BRANCH  26  35
ATOM     35  O   UNL     1      -6.706   1.812   2.500  1.00  0.00    -0.386 OA
ATOM     36  H   UNL     1      -6.879   2.733   2.833  1.00  0.00     0.211 HD
ENDBRANCH  26  35
ENDBRANCH  10  12
ENDBRANCH   6  10
ENDBRANCH   1   2
BRANCH   1  37
ATOM     37  O   UNL     1       6.525  -1.308   0.105  1.00  0.00    -0.345 OA
BRANCH  37  38
ATOM     38  C   UNL     1       6.537   0.070   0.449  1.00  0.00     0.282 C 
ATOM     39  O   UNL     1       7.331   0.783  -0.518  1.00  0.00    -0.341 OA
ATOM     40  C   UNL     1       7.080   0.177   1.921  1.00  0.00     0.202 C 
ATOM     41  C   UNL     1       7.983   1.906   0.041  1.00  0.00     0.178 C 
ATOM     42  C   UNL     1       8.616   0.214   1.873  1.00  0.00     0.179 C 
ATOM     43  C   UNL     1       9.088   1.447   1.038  1.00  0.00     0.177 C 
BRANCH  40  44
ATOM     44  O   UNL     1       6.606   1.340   2.550  1.00  0.00    -0.385 OA
ATOM     45  H   UNL     1       5.650   1.179   2.766  1.00  0.00     0.211 HD
ENDBRANCH  40  44
BRANCH  41  46
ATOM     46  C   UNL     1       8.572   2.789  -1.064  1.00  0.00     0.191 C 
BRANCH  46  47
ATOM     47  O   UNL     1       7.561   3.245  -1.921  1.00  0.00    -0.394 OA
ATOM     48  H   UNL     1       7.391   2.518  -2.575  1.00  0.00     0.210 HD
ENDBRANCH  46  47
ENDBRANCH  41  46
BRANCH  42  49
ATOM     49  O   UNL     1       9.099  -0.998   1.333  1.00  0.00    -0.387 OA
ATOM     50  H   UNL     1       9.069  -0.953   0.342  1.00  0.00     0.211 HD
ENDBRANCH  42  49
BRANCH  43  51
ATOM     51  O   UNL     1       9.462   2.524   1.863  1.00  0.00    -0.387 OA
ATOM     52  H   UNL     1       8.689   2.750   2.442  1.00  0.00     0.211 HD
ENDBRANCH  43  51
ENDBRANCH  37  38
ENDBRANCH   1  37
TORSDOF 12
