REMARK SMILES CC(=O)O[C@@H]1[C@@H]2C(C)(C)[C@@H](OC(C)=O)CC[C@@]2(C)[C@@H]2[C@@H]3C[C@@H](CC(=O)O3)C(=O)[C@]2(CO)[C@H]1OC(C)=O
REMARK SMILES IDX 5 1 6 2 7 3 8 4 9 5 10 6 15 7 16 8 17 9 18 10 19 11 20 12
REMARK SMILES IDX 21 13 22 14 23 15 24 16 25 17 26 18 27 19 28 20 29 21 32 22
REMARK SMILES IDX 4 23 2 24 3 25 1 26 33 27 34 28 36 29 35 30 30 31 31 32
REMARK SMILES IDX 11 34 12 35 14 36 13 37
REMARK H PARENT 31 33
ROOT
ATOM      1  C   UNL     1       0.006   1.325   0.150  1.00  0.00     0.222 C 
ATOM      2  C   UNL     1       0.985   0.070   0.180  1.00  0.00     0.050 C 
ATOM      3  C   UNL     1       2.524   0.307  -0.239  1.00  0.00     0.009 C 
ATOM      4  C   UNL     1       3.144   1.397   0.688  1.00  0.00     0.015 C 
ATOM      5  C   UNL     1       2.722   0.844  -1.695  1.00  0.00     0.015 C 
ATOM      6  C   UNL     1       3.409  -1.012  -0.075  1.00  0.00     0.182 C 
ATOM      7  C   UNL     1       2.692  -2.356  -0.310  1.00  0.00     0.046 C 
ATOM      8  C   UNL     1       1.275  -2.422   0.279  1.00  0.00     0.011 C 
ATOM      9  C   UNL     1       0.328  -1.305  -0.303  1.00  0.00    -0.018 C 
ATOM     10  C   UNL     1       0.271  -1.515  -1.847  1.00  0.00     0.012 C 
ATOM     11  C   UNL     1      -1.144  -1.454   0.348  1.00  0.00     0.056 C 
ATOM     12  C   UNL     1      -1.932  -2.774   0.034  1.00  0.00     0.182 C 
ATOM     13  C   UNL     1      -2.669  -2.685  -1.322  1.00  0.00     0.057 C 
ATOM     14  C   UNL     1      -3.838  -1.742  -1.151  1.00  0.00     0.072 C 
ATOM     15  C   UNL     1      -4.877  -2.436  -0.258  1.00  0.00     0.134 C 
ATOM     16  C   UNL     1      -4.199  -3.015   0.963  1.00  0.00     0.306 C 
ATOM     17  O   UNL     1      -4.877  -3.511   1.847  1.00  0.00    -0.252 OA
ATOM     18  O   UNL     1      -2.837  -3.037   1.067  1.00  0.00    -0.462 OA
ATOM     19  C   UNL     1      -3.428  -0.421  -0.524  1.00  0.00     0.149 C 
ATOM     20  O   UNL     1      -4.261   0.474  -0.570  1.00  0.00    -0.298 OA
ATOM     21  C   UNL     1      -2.107  -0.171   0.255  1.00  0.00     0.100 C 
ATOM     22  C   UNL     1      -1.374   1.015  -0.447  1.00  0.00     0.234 C 
ENDROOT
BRANCH   1  23
ATOM     23  O   UNL     1       0.511   2.399  -0.560  1.00  0.00    -0.458 OA
BRANCH  23  24
ATOM     24  C   UNL     1       0.610   3.681  -0.107  1.00  0.00     0.303 C 
ATOM     25  O   UNL     1       0.184   3.999   0.995  1.00  0.00    -0.253 OA
ATOM     26  C   UNL     1       1.255   4.710  -0.975  1.00  0.00     0.139 C 
ENDBRANCH  23  24
ENDBRANCH   1  23
BRANCH  22  27
ATOM     27  O   UNL     1      -2.148   2.172  -0.417  1.00  0.00    -0.457 OA
BRANCH  27  28
ATOM     28  C   UNL     1      -2.590   2.862  -1.505  1.00  0.00     0.303 C 
ATOM     29  O   UNL     1      -2.302   2.510  -2.641  1.00  0.00    -0.253 OA
ATOM     30  C   UNL     1      -3.441   4.074  -1.315  1.00  0.00     0.139 C 
ENDBRANCH  27  28
ENDBRANCH  22  27
BRANCH  21  31
ATOM     31  C   UNL     1      -2.521   0.203   1.725  1.00  0.00     0.175 C 
BRANCH  31  32
ATOM     32  O   UNL     1      -3.369   1.322   1.791  1.00  0.00    -0.395 OA
ATOM     33  H   UNL     1      -2.820   2.097   2.076  1.00  0.00     0.210 HD
ENDBRANCH  31  32
ENDBRANCH  21  31
BRANCH   6  34
ATOM     34  O   UNL     1       4.101  -1.054   1.135  1.00  0.00    -0.462 OA
BRANCH  34  35
ATOM     35  C   UNL     1       5.478  -1.052   1.213  1.00  0.00     0.302 C 
ATOM     36  O   UNL     1       6.166  -1.146   0.204  1.00  0.00    -0.253 OA
ATOM     37  C   UNL     1       6.177  -0.904   2.518  1.00  0.00     0.139 C 
ENDBRANCH  34  35
ENDBRANCH   6  34
TORSDOF 8
