REMARK SMILES CC(C)CCC[C@](C)(O)[C@H]1CC[C@@H](C2=C[C@H](O)[C@H]3C[C@@H](O)CC[C@]3(C)C2=O)[C@]1(C)CCO
REMARK SMILES IDX 7 1 8 2 6 3 5 4 4 5 2 6 1 7 3 8 9 9 10 11 11 12 28 13 12 14
REMARK SMILES IDX 13 15 29 16 30 17 31 18 32 19 14 21 15 22 26 23 16 24 24 25
REMARK SMILES IDX 27 26 18 27 23 28 19 29 22 30 20 31 25 32 17 33 21 35
REMARK H PARENT 9 10 32 20 17 34 21 36
ROOT
ATOM      1  C   UNL     1       2.740  -0.712  -0.661  1.00  0.00     0.065 C 
ATOM      2  C   UNL     1       2.928  -2.202  -0.990  1.00  0.00     0.042 C 
ENDROOT
BRANCH   1   3
ATOM      3  C   UNL     1       4.104  -0.107  -0.171  1.00  0.00     0.035 C 
BRANCH   3   4
ATOM      4  C   UNL     1       5.282  -0.176  -1.162  1.00  0.00     0.003 C 
BRANCH   4   5
ATOM      5  C   UNL     1       6.631   0.391  -0.659  1.00  0.00     0.003 C 
BRANCH   5   6
ATOM      6  C   UNL     1       6.778   1.933  -0.490  1.00  0.00    -0.017 C 
ATOM      7  C   UNL     1       8.276   2.282  -0.438  1.00  0.00     0.007 C 
ATOM      8  C   UNL     1       6.128   2.509   0.784  1.00  0.00     0.007 C 
ENDBRANCH   5   6
ENDBRANCH   4   5
ENDBRANCH   3   4
ENDBRANCH   1   3
BRANCH   1   9
ATOM      9  O   UNL     1       2.332  -0.027  -1.827  1.00  0.00    -0.390 OA
ATOM     10  H   UNL     1       2.886  -0.325  -2.595  1.00  0.00     0.211 HD
ENDBRANCH   1   9
BRANCH   1  11
ATOM     11  C   UNL     1       1.633  -0.490   0.476  1.00  0.00     0.027 C 
ATOM     12  C   UNL     1       1.436   1.036   0.704  1.00  0.00     0.008 C 
ATOM     13  C   UNL     1       0.121  -0.970   0.314  1.00  0.00    -0.018 C 
ATOM     14  C   UNL     1       0.246   1.197   1.616  1.00  0.00     0.009 C 
ATOM     15  C   UNL     1      -0.581  -0.070   1.410  1.00  0.00     0.029 C 
ATOM     16  C   UNL     1      -0.404  -0.690  -1.120  1.00  0.00     0.012 C 
BRANCH  13  17
ATOM     17  C   UNL     1      -0.272  -2.454   0.715  1.00  0.00     0.036 C 
BRANCH  17  18
ATOM     18  C   UNL     1       0.152  -3.672  -0.111  1.00  0.00     0.156 C 
BRANCH  18  19
ATOM     19  O   UNL     1      -0.540  -4.810   0.332  1.00  0.00    -0.396 OA
ATOM     20  H   UNL     1      -0.127  -5.086   1.192  1.00  0.00     0.210 HD
ENDBRANCH  18  19
ENDBRANCH  17  18
ENDBRANCH  13  17
BRANCH  15  21
ATOM     21  C   UNL     1      -2.090   0.171   1.298  1.00  0.00    -0.002 C 
ATOM     22  C   UNL     1      -2.923  -0.407   2.197  1.00  0.00     0.012 C 
ATOM     23  C   UNL     1      -2.667   1.040   0.218  1.00  0.00     0.165 C 
ATOM     24  C   UNL     1      -4.424  -0.197   2.153  1.00  0.00     0.142 C 
ATOM     25  C   UNL     1      -4.168   1.090  -0.039  1.00  0.00     0.036 C 
ATOM     26  O   UNL     1      -1.935   1.778  -0.425  1.00  0.00    -0.294 OA
ATOM     27  C   UNL     1      -4.859  -0.124   0.679  1.00  0.00     0.038 C 
ATOM     28  C   UNL     1      -4.465   0.939  -1.559  1.00  0.00     0.018 C 
ATOM     29  C   UNL     1      -6.387  -0.113   0.457  1.00  0.00     0.039 C 
ATOM     30  C   UNL     1      -5.980   0.920  -1.851  1.00  0.00     0.033 C 
ATOM     31  C   UNL     1      -6.675  -0.206  -1.059  1.00  0.00     0.114 C 
ATOM     32  C   UNL     1      -4.646   2.483   0.465  1.00  0.00     0.020 C 
BRANCH  24  33
ATOM     33  O   UNL     1      -5.077  -1.230   2.849  1.00  0.00    -0.389 OA
ATOM     34  H   UNL     1      -4.862  -2.085   2.390  1.00  0.00     0.211 HD
ENDBRANCH  24  33
BRANCH  31  35
ATOM     35  O   UNL     1      -8.057  -0.212  -1.307  1.00  0.00    -0.393 OA
ATOM     36  H   UNL     1      -8.422   0.652  -0.980  1.00  0.00     0.210 HD
ENDBRANCH  31  35
ENDBRANCH  15  21
ENDBRANCH   1  11
TORSDOF 12
