REMARK SMILES CO[C@@H]1C=C[C@@H]2C[C@@H]3N[C@]4(CC[C@@H](CC#C[C@@H]5C[C@@]6(CN7C(=O)[C@@]68[C@H](CCC[C@@H]8CO)CSS[C@H](O)[C@@]68C[C@@H](O)[C@](O)(CO)C9(CCCC9)[C@]6(C)[C@H]6C[C@@H]9C=CC[C@](O)([C@@H]%10O[C@H]%10[C@H](C)C(C)C)[C@H]%10CC[C@@](O)(C6=CC8=O)[C@@]%109CCc6cc(O)cc7c6)[C@H](O)[C@@H]53)C4)[C@H]2C1
REMARK SMILES IDX 79 1 80 2 85 3 86 4 84 5 82 6 81 7 21 8 89 9 87 10 17 11
REMARK SMILES IDX 19 12 16 13 18 14 20 15 24 16 22 17 25 18 29 19 23 20 26 21
REMARK SMILES IDX 28 22 27 23 8 24 3 25 4 26 92 27 5 28 91 29 6 30 10 31 7 32
REMARK SMILES IDX 9 33 11 34 90 35 12 36 13 37 2 40 1 41 88 42 15 44 14 45
REMARK SMILES IDX 32 47 33 48 34 49 35 50 36 52 30 54 31 55 83 57 78 59 77 60
REMARK SMILES IDX 71 61 54 62 68 63 70 64 73 65 53 66 69 67 74 68 52 69 75 70
REMARK SMILES IDX 50 71 37 72 76 73 45 74 38 75 41 76 46 77 49 78 39 79 47 80
REMARK SMILES IDX 48 81 51 82 72 85 55 87 56 88 57 89 58 90 59 92 60 94 61 95
REMARK SMILES IDX 62 96 63 97 64 98 65 99 66 100 67 101 42 102 43 104 44 105
REMARK SMILES IDX 40 107
REMARK H PARENT 9 38 88 43 36 53 31 56 83 58 72 86 59 93 42 103 44 106 40 108
REMARK Flexibility Score:  197.700
ROOT
ATOM      1  C   UNL     1      -3.040   2.589   0.055  1.00  0.00     0.036 C 
ENDROOT
BRANCH   1   2
ATOM      2  C   UNL     1      -1.751   3.235  -0.511  1.00  0.00    -0.042 A 
ATOM      3  C   UNL     1       0.697   3.082  -0.888  1.00  0.00     0.048 A 
ATOM      4  C   UNL     1      -0.549   2.549  -0.469  1.00  0.00     0.030 A 
ATOM      5  C   UNL     1       0.709   4.383  -1.394  1.00  0.00     0.072 A 
ATOM      6  C   UNL     1      -0.503   5.109  -1.481  1.00  0.00     0.117 A 
ATOM      7  C   UNL     1      -1.720   4.537  -1.043  1.00  0.00     0.050 A 
BRANCH   3   8
ATOM      8  N   UNL     1       1.876   2.241  -0.831  1.00  0.00    -0.311 N 
ATOM      9  C   UNL     1       5.753   1.603   0.307  1.00  0.00     0.051 C 
ATOM     10  C   UNL     1       4.829   0.819  -0.652  1.00  0.00     0.129 C 
ATOM     11  C   UNL     1       5.255   1.157   1.737  1.00  0.00     0.072 C 
ATOM     12  C   UNL     1       3.445   0.681   0.131  1.00  0.00     0.031 C 
ATOM     13  C   UNL     1       6.277   0.439   2.527  1.00  0.00    -0.099 C 
ATOM     14  C   UNL     1       4.019   0.244   1.498  1.00  0.00     0.029 C 
ATOM     15  C   UNL     1       2.739   2.098   0.312  1.00  0.00     0.136 C 
ATOM     16  C   UNL     1       2.325  -0.123  -0.743  1.00  0.00     0.068 C 
ATOM     17  C   UNL     1       1.890   1.122  -1.564  1.00  0.00     0.234 C 
ATOM     18  C   UNL     1       2.762  -1.402  -1.616  1.00  0.00     0.016 C 
ATOM     19  C   UNL     1       0.994  -0.671  -0.043  1.00  0.00     0.031 C 
ATOM     20  O   UNL     1       1.268   1.094  -2.617  1.00  0.00    -0.274 OA
ATOM     21  C   UNL     1       1.785  -1.633  -2.804  1.00  0.00     0.005 C 
ATOM     22  C   UNL     1      -0.126  -0.828  -1.167  1.00  0.00     0.007 C 
ATOM     23  C   UNL     1       0.307  -1.739  -2.370  1.00  0.00     0.001 C 
BRANCH   9  24
ATOM     24  C   UNL     1       7.311   1.645   0.057  1.00  0.00     0.061 C 
ATOM     25  C   UNL     1      12.159   1.929  -1.715  1.00  0.00     0.140 C 
ATOM     26  C   UNL     1      11.216   2.142  -2.880  1.00  0.00     0.000 C 
ATOM     27  C   UNL     1      11.544   1.054  -0.600  1.00  0.00     0.042 C 
ATOM     28  C   UNL     1       9.908   1.826  -2.844  1.00  0.00    -0.025 C 
ATOM     29  C   UNL     1      10.092   1.456  -0.319  1.00  0.00     0.019 C 
ATOM     30  C   UNL     1       9.239   1.276  -1.605  1.00  0.00     0.018 C 
ATOM     31  C   UNL     1       9.415   0.706   0.913  1.00  0.00     0.022 C 
ATOM     32  C   UNL     1       7.808   1.887  -1.397  1.00  0.00     0.027 C 
ATOM     33  N   UNL     1       7.988   0.464   0.592  1.00  0.00    -0.308 NA
ATOM     34  C   UNL     1       9.559   1.555   2.233  1.00  0.00     0.023 C 
ATOM     35  C   UNL     1       9.971  -0.676   1.362  1.00  0.00     0.027 C 
ATOM     36  C   UNL     1      10.116   0.626   3.313  1.00  0.00     0.006 C 
ATOM     37  C   UNL     1       9.675  -0.765   2.886  1.00  0.00     0.003 CG0
ATOM     38  H   UNL     1       7.861  -0.353  -0.047  1.00  0.00     0.123 HD
ATOM     39  G   UNL     1       8.235  -1.166   3.377  1.00  0.00     0.000 G0
BRANCH  25  40
ATOM     40  O   UNL     1      12.524   3.200  -1.203  1.00  0.00    -0.377 OA
ATOM     41  C   UNL     1      13.913   3.247  -0.947  1.00  0.00     0.195 C 
ENDBRANCH  25  40
ENDBRANCH   9  24
BRANCH  10  42
ATOM     42  O   UNL     1       5.422  -0.427  -0.956  1.00  0.00    -0.392 OA
ATOM     43  H   UNL     1       5.726  -0.886  -0.136  1.00  0.00     0.210 HD
ENDBRANCH  10  42
BRANCH  13  44
ATOM     44  C   UNL     1       7.118  -0.275   3.016  1.00  0.00    -0.103 C 
ATOM     45  C   UNL     1       8.235  -1.166   3.377  1.00  0.00     0.093 CG0
ATOM     46  G   UNL     1       9.675  -0.765   2.886  1.00  0.00     0.000 G0
ENDBRANCH  13  44
BRANCH  18  47
ATOM     47  C   UNL     1       3.023  -2.744  -0.774  1.00  0.00     0.086 C 
BRANCH  47  48
ATOM     48  S   UNL     1       1.791  -4.177  -0.875  1.00  0.00    -0.091 SA
BRANCH  48  49
ATOM     49  S   UNL     1       0.704  -4.365   1.026  1.00  0.00    -0.061 SA
BRANCH  49  50
ATOM     50  C   UNL     1      -0.943  -3.557   0.577  1.00  0.00     0.197 CG1
ATOM     51  G   UNL     1      -2.338  -4.314   0.368  1.00  0.00     0.000 G1
BRANCH  50  52
ATOM     52  O   UNL     1      -1.105  -2.398   1.297  1.00  0.00    -0.380 OA
ATOM     53  H   UNL     1      -0.633  -2.518   2.156  1.00  0.00     0.212 HD
ENDBRANCH  50  52
ENDBRANCH  49  50
ENDBRANCH  48  49
ENDBRANCH  47  48
ENDBRANCH  18  47
BRANCH  19  54
ATOM     54  C   UNL     1       0.536  -0.029   1.319  1.00  0.00     0.160 C 
BRANCH  54  55
ATOM     55  O   UNL     1       1.305  -0.469   2.404  1.00  0.00    -0.396 OA
ATOM     56  H   UNL     1       1.198  -1.447   2.500  1.00  0.00     0.210 HD
ENDBRANCH  54  55
ENDBRANCH  19  54
ENDBRANCH   3   8
BRANCH   6  57
ATOM     57  O   UNL     1      -0.513   6.359  -1.986  1.00  0.00    -0.508 OA
ATOM     58  H   UNL     1       0.291   6.788  -2.309  1.00  0.00     0.293 HD
ENDBRANCH   6  57
ENDBRANCH   1   2
BRANCH   1  59
ATOM     59  C   UNL     1      -3.388   1.130  -0.413  1.00  0.00     0.016 C 
BRANCH  59  60
ATOM     60  C   UNL     1      -4.797   0.433   0.068  1.00  0.00     0.015 C 
ATOM     61  C   UNL     1      -5.124  -0.855  -0.768  1.00  0.00     0.093 C 
ATOM     62  C   UNL     1      -4.713   0.071   1.600  1.00  0.00     0.022 C 
ATOM     63  C   UNL     1      -6.050   1.283  -0.381  1.00  0.00     0.034 CG2
ATOM     64  C   UNL     1      -5.310  -0.219  -2.194  1.00  0.00     0.041 C 
ATOM     65  C   UNL     1      -4.183  -2.029  -0.449  1.00  0.00    -0.031 C 
ATOM     66  C   UNL     1      -3.711  -1.133   1.840  1.00  0.00     0.017 C 
ATOM     67  C   UNL     1      -5.888   1.235  -1.924  1.00  0.00     0.011 C 
ATOM     68  C   UNL     1      -3.571  -2.759  -1.395  1.00  0.00     0.050 C 
ATOM     69  C   UNL     1      -4.140  -2.423   1.041  1.00  0.00     0.026 C 
ATOM     70  C   UNL     1      -2.794  -3.985  -1.071  1.00  0.00     0.166 C 
ATOM     71  C   UNL     1      -3.562  -3.918   1.365  1.00  0.00    -0.001 C 
ATOM     72  C   UNL     1      -2.338  -4.314   0.368  1.00  0.00     0.078 CG1
ATOM     73  O   UNL     1      -2.392  -4.661  -2.007  1.00  0.00    -0.294 OA
ATOM     74  C   UNL     1      -4.819  -5.015   1.250  1.00  0.00     0.011 C 
ATOM     75  C   UNL     1      -1.984  -5.823   0.489  1.00  0.00     0.054 C 
ATOM     76  C   UNL     1      -4.282  -6.536   1.399  1.00  0.00     0.120 C 
ATOM     77  C   UNL     1      -5.691  -4.893  -0.063  1.00  0.00     0.011 C 
ATOM     78  C   UNL     1      -5.939  -4.740   2.354  1.00  0.00     0.011 C 
ATOM     79  C   UNL     1      -3.166  -6.780   0.323  1.00  0.00     0.150 C 
ATOM     80  C   UNL     1      -7.145  -5.184   0.336  1.00  0.00     0.001 C 
ATOM     81  C   UNL     1      -7.251  -4.429   1.634  1.00  0.00     0.001 C 
ATOM     82  C   UNL     1      -3.042  -3.946   2.854  1.00  0.00     0.014 C 
ATOM     83  G   UNL     1      -0.943  -3.557   0.577  1.00  0.00     0.000 G1
ATOM     84  G   UNL     1      -6.555   2.420   0.615  1.00  0.00     0.000 G2
BRANCH  61  85
ATOM     85  O   UNL     1      -6.389  -1.367  -0.378  1.00  0.00    -0.385 OA
ATOM     86  H   UNL     1      -6.730  -1.959  -1.098  1.00  0.00     0.211 HD
ENDBRANCH  61  85
BRANCH  62  87
ATOM     87  C   UNL     1      -6.030  -0.270   2.283  1.00  0.00    -0.027 C 
ATOM     88  C   UNL     1      -7.161   0.451   2.330  1.00  0.00    -0.028 C 
BRANCH  88  89
ATOM     89  C   UNL     1      -7.525   1.753   1.658  1.00  0.00     0.065 C 
BRANCH  89  90
ATOM     90  C   UNL     1      -6.555   2.420   0.615  1.00  0.00     0.100 CG2
ATOM     91  G   UNL     1      -6.050   1.283  -0.381  1.00  0.00     0.000 G2
BRANCH  90  92
ATOM     92  O   UNL     1      -5.487   3.002   1.313  1.00  0.00    -0.386 OA
ATOM     93  H   UNL     1      -5.852   3.624   1.997  1.00  0.00     0.211 HD
ENDBRANCH  90  92
BRANCH  90  94
ATOM     94  C   UNL     1      -7.422   3.560   0.006  1.00  0.00     0.180 C 
ATOM     95  O   UNL     1      -8.028   3.220  -1.212  1.00  0.00    -0.366 OA
ATOM     96  C   UNL     1      -7.048   4.249  -1.254  1.00  0.00     0.153 C 
BRANCH  96  97
ATOM     97  C   UNL     1      -7.603   5.712  -1.289  1.00  0.00     0.020 C 
ATOM     98  C   UNL     1      -9.154   5.730  -1.370  1.00  0.00     0.011 C 
BRANCH  97  99
ATOM     99  C   UNL     1      -6.962   6.534  -2.456  1.00  0.00    -0.012 C 
ATOM    100  C   UNL     1      -7.473   7.990  -2.487  1.00  0.00     0.008 C 
ATOM    101  C   UNL     1      -5.425   6.588  -2.338  1.00  0.00     0.008 C 
ENDBRANCH  97  99
ENDBRANCH  96  97
ENDBRANCH  90  94
ENDBRANCH  89  90
ENDBRANCH  88  89
ENDBRANCH  62  87
BRANCH  76 102
ATOM    102  O   UNL     1      -3.770  -6.689   2.704  1.00  0.00    -0.384 OA
ATOM    103  H   UNL     1      -3.314  -7.563   2.789  1.00  0.00     0.211 HD
ENDBRANCH  76 102
BRANCH  76 104
ATOM    104  C   UNL     1      -5.380  -7.638   1.213  1.00  0.00     0.194 C 
BRANCH 104 105
ATOM    105  O   UNL     1      -4.871  -8.919   1.490  1.00  0.00    -0.393 OA
ATOM    106  H   UNL     1      -5.276  -9.548   0.838  1.00  0.00     0.210 HD
ENDBRANCH 104 105
ENDBRANCH  76 104
BRANCH  79 107
ATOM    107  O   UNL     1      -2.704  -8.112   0.320  1.00  0.00    -0.390 OA
ATOM    108  H   UNL     1      -2.088  -8.245   1.086  1.00  0.00     0.211 HD
ENDBRANCH  79 107
ENDBRANCH  59  60
ENDBRANCH   1  59
TORSDOF 15
