REMARK SMILES C[C@]12CC[C@H](O)CC1=CC[C@@H]1[C@H]2CC[C@]2(C)C(=O)/C(=C/c3ccccc3)C[C@H]12
REMARK SMILES IDX 1 1 2 2 3 3 4 4 5 5 7 6 8 7 9 8 10 9 11 10 12 11 13 12 14 13
REMARK SMILES IDX 15 14 16 15 17 16 18 17 19 18 20 19 27 20 28 21 6 22 21 24
REMARK SMILES IDX 22 25 26 26 23 27 25 28 24 29
REMARK H PARENT 6 23
ROOT
ATOM      1  C   UNL     1      -4.080   1.359   0.003  1.00  0.00     0.016 C 
ATOM      2  C   UNL     1      -2.905   0.330   0.027  1.00  0.00    -0.008 C 
ATOM      3  C   UNL     1      -3.057  -0.663  -1.168  1.00  0.00     0.014 C 
ATOM      4  C   UNL     1      -4.365  -1.496  -1.083  1.00  0.00     0.033 C 
ATOM      5  C   UNL     1      -4.466  -2.252   0.264  1.00  0.00     0.118 C 
ATOM      6  C   UNL     1      -4.312  -1.314   1.484  1.00  0.00     0.063 C 
ATOM      7  C   UNL     1      -3.019  -0.559   1.276  1.00  0.00    -0.065 C 
ATOM      8  C   UNL     1      -1.985  -0.817   2.092  1.00  0.00    -0.027 C 
ATOM      9  C   UNL     1      -0.601  -0.425   1.711  1.00  0.00     0.031 C 
ATOM     10  C   UNL     1      -0.521   0.984   1.138  1.00  0.00     0.001 C 
ATOM     11  C   UNL     1      -1.557   1.199  -0.017  1.00  0.00     0.003 C 
ATOM     12  C   UNL     1      -0.920   1.418  -1.414  1.00  0.00     0.006 C 
ATOM     13  C   UNL     1       0.033   2.629  -1.351  1.00  0.00     0.015 C 
ATOM     14  C   UNL     1       1.141   2.530  -0.254  1.00  0.00     0.034 C 
ATOM     15  C   UNL     1       1.246   3.861   0.519  1.00  0.00     0.020 C 
ATOM     16  C   UNL     1       2.471   2.200  -0.879  1.00  0.00     0.165 C 
ATOM     17  O   UNL     1       3.084   2.957  -1.618  1.00  0.00    -0.294 OA
ATOM     18  C   UNL     1       2.941   0.866  -0.507  1.00  0.00    -0.003 C 
ATOM     19  C   UNL     1       4.164   0.380  -0.830  1.00  0.00     0.015 C 
ATOM     20  C   UNL     1       1.778   0.175   0.132  1.00  0.00     0.044 C 
ATOM     21  C   UNL     1       0.951   1.335   0.732  1.00  0.00     0.011 C 
ENDROOT
BRANCH   5  22
ATOM     22  O   UNL     1      -5.661  -2.986   0.341  1.00  0.00    -0.393 OA
ATOM     23  H   UNL     1      -6.410  -2.333   0.320  1.00  0.00     0.210 HD
ENDBRANCH   5  22
BRANCH  19  24
ATOM     24  C   UNL     1       4.760  -0.938  -0.460  1.00  0.00    -0.025 A 
ATOM     25  C   UNL     1       4.465  -1.612   0.745  1.00  0.00     0.008 A 
ATOM     26  C   UNL     1       5.723  -1.501  -1.318  1.00  0.00     0.008 A 
ATOM     27  C   UNL     1       5.087  -2.821   1.059  1.00  0.00     0.001 A 
ATOM     28  C   UNL     1       6.336  -2.719  -1.004  1.00  0.00     0.001 A 
ATOM     29  C   UNL     1       6.016  -3.381   0.183  1.00  0.00     0.000 A 
ENDBRANCH  19  24
TORSDOF 2
