REMARK SMILES COc1cc2oc(C)cc(=O)c2c2c1C[C@@H](C)[C@@]1(C[C@@H](O)C[C@H](C)O1)O2
REMARK SMILES IDX 3 1 4 2 5 3 12 4 13 5 14 6 15 7 16 8 17 9 18 10 19 11 20 12
REMARK SMILES IDX 22 13 23 14 24 15 25 16 26 17 10 18 11 19 9 20 7 21 8 22
REMARK SMILES IDX 6 23 2 24 1 25 21 26
REMARK H PARENT 21 27
ROOT
ATOM      1  C   UNL     1       2.203  -1.771   0.710  1.00  0.00     0.129 A 
ATOM      2  C   UNL     1       3.370  -0.988   0.636  1.00  0.00     0.094 A 
ATOM      3  C   UNL     1       3.338   0.293   0.081  1.00  0.00     0.145 A 
ATOM      4  C   UNL     1       2.124   0.828  -0.407  1.00  0.00     0.107 A 
ATOM      5  C   UNL     1       0.947   0.051  -0.327  1.00  0.00     0.145 A 
ATOM      6  C   UNL     1       0.993  -1.251   0.213  1.00  0.00     0.038 A 
ATOM      7  C   UNL     1      -0.270  -2.082   0.260  1.00  0.00     0.053 C 
ATOM      8  C   UNL     1      -1.407  -1.473  -0.601  1.00  0.00     0.063 C 
ATOM      9  C   UNL     1      -2.683  -2.291  -0.408  1.00  0.00     0.015 C 
ATOM     10  C   UNL     1      -1.494   0.082  -0.402  1.00  0.00     0.216 C 
ATOM     11  C   UNL     1      -1.718   0.536   1.081  1.00  0.00     0.112 C 
ATOM     12  C   UNL     1      -3.180   0.732   1.457  1.00  0.00     0.123 C 
ATOM     13  C   UNL     1      -3.725   1.765   0.481  1.00  0.00     0.064 C 
ATOM     14  C   UNL     1      -3.656   1.220  -0.951  1.00  0.00     0.122 C 
ATOM     15  C   UNL     1      -4.827   0.275  -1.246  1.00  0.00     0.039 C 
ATOM     16  O   UNL     1      -2.399   0.661  -1.358  1.00  0.00    -0.337 OA
ATOM     17  O   UNL     1      -0.237   0.559  -0.757  1.00  0.00    -0.461 OA
ATOM     18  C   UNL     1       2.151   2.134  -0.944  1.00  0.00     0.196 A 
ATOM     19  O   UNL     1       1.144   2.664  -1.380  1.00  0.00    -0.289 OA
ATOM     20  C   UNL     1       3.356   2.837  -0.980  1.00  0.00     0.095 A 
ATOM     21  C   UNL     1       4.515   2.233  -0.480  1.00  0.00     0.105 A 
ATOM     22  C   UNL     1       5.827   2.952  -0.499  1.00  0.00     0.088 C 
ATOM     23  O   UNL     1       4.461   1.004   0.024  1.00  0.00    -0.461 OA
ENDROOT
BRANCH   1  24
ATOM     24  O   UNL     1       2.209  -3.025   1.238  1.00  0.00    -0.496 OA
ATOM     25  C   UNL     1       3.309  -3.682   1.752  1.00  0.00     0.278 C 
ENDBRANCH   1  24
BRANCH  12  26
ATOM     26  O   UNL     1      -3.295   1.185   2.784  1.00  0.00    -0.393 OA
ATOM     27  H   UNL     1      -2.827   2.058   2.859  1.00  0.00     0.210 HD
ENDBRANCH  12  26
TORSDOF 2
