REMARK SMILES CC(=O)O[C@H]1CC[C@]2(C)C(=CC[C@H]3[C@H]4CC=C(C5(C)OCCO5)[C@]4(C)CC[C@H]32)C1
REMARK SMILES IDX 5 1 6 2 7 3 8 4 9 5 10 6 11 7 12 8 13 9 14 10 15 11 16 12
REMARK SMILES IDX 17 13 24 14 25 15 26 16 27 17 28 18 29 19 4 20 2 21 3 22
REMARK SMILES IDX 1 23 18 24 20 25 23 26 21 27 22 28 19 29
REMARK H PARENT
ROOT
ATOM      1  C   UNL     1       5.111  -0.525  -0.246  1.00  0.00     0.180 C 
ATOM      2  C   UNL     1       4.522  -1.333   0.927  1.00  0.00     0.046 C 
ATOM      3  C   UNL     1       3.025  -1.007   1.152  1.00  0.00     0.015 C 
ATOM      4  C   UNL     1       2.154  -1.281  -0.116  1.00  0.00    -0.008 C 
ATOM      5  C   UNL     1       2.241  -2.793  -0.483  1.00  0.00     0.016 C 
ATOM      6  C   UNL     1       2.799  -0.423  -1.220  1.00  0.00    -0.064 C 
ATOM      7  C   UNL     1       2.154   0.578  -1.857  1.00  0.00    -0.027 C 
ATOM      8  C   UNL     1       0.738   0.967  -1.553  1.00  0.00     0.031 C 
ATOM      9  C   UNL     1       0.354   0.600  -0.108  1.00  0.00     0.001 C 
ATOM     10  C   UNL     1      -1.115   0.906   0.287  1.00  0.00     0.007 C 
ATOM     11  C   UNL     1      -1.688   2.311   0.249  1.00  0.00     0.032 C 
ATOM     12  C   UNL     1      -3.117   1.993   0.594  1.00  0.00    -0.021 C 
ATOM     13  C   UNL     1      -3.429   0.701   0.352  1.00  0.00    -0.010 C 
ATOM     14  C   UNL     1      -2.234   0.029  -0.319  1.00  0.00    -0.003 C 
ATOM     15  C   UNL     1      -2.496   0.139  -1.851  1.00  0.00     0.016 C 
ATOM     16  C   UNL     1      -1.889  -1.429   0.042  1.00  0.00     0.012 C 
ATOM     17  C   UNL     1      -0.469  -1.802  -0.473  1.00  0.00     0.006 C 
ATOM     18  C   UNL     1       0.635  -0.902   0.188  1.00  0.00     0.003 C 
ATOM     19  C   UNL     1       4.263  -0.686  -1.529  1.00  0.00     0.076 C 
ENDROOT
BRANCH   1  20
ATOM     20  O   UNL     1       5.190   0.810   0.127  1.00  0.00    -0.462 OA
BRANCH  20  21
ATOM     21  C   UNL     1       6.357   1.508   0.250  1.00  0.00     0.302 C 
ATOM     22  O   UNL     1       7.425   1.019  -0.087  1.00  0.00    -0.253 OA
ATOM     23  C   UNL     1       6.337   2.882   0.836  1.00  0.00     0.139 C 
ENDBRANCH  20  21
ENDBRANCH   1  20
BRANCH  13  24
ATOM     24  C   UNL     1      -4.821   0.106   0.603  1.00  0.00     0.188 C 
ATOM     25  O   UNL     1      -5.336  -0.434  -0.603  1.00  0.00    -0.344 OA
ATOM     26  O   UNL     1      -5.695   1.117   1.090  1.00  0.00    -0.344 OA
ATOM     27  C   UNL     1      -6.330   0.461  -0.979  1.00  0.00     0.192 C 
ATOM     28  C   UNL     1      -6.844   0.975   0.319  1.00  0.00     0.192 C 
ATOM     29  C   UNL     1      -4.771  -1.005   1.661  1.00  0.00     0.081 C 
ENDBRANCH  13  24
TORSDOF 3
