REMARK SMILES C[C][C][C][C][C][C][C]/C=C\[C]CC[C]CCCCCC(=O)O[C@@H](COC(=O)CCC[C]C/C=C\C/C=C\C/C=C\C/C=C\CCCCC)COC(=O)CCCCC[C]CCCCCCC/C=C\[C][C][C][C][C][C][C]C
REMARK SMILES IDX 51 1 52 2 50 3 49 4 23 5 24 6 25 7 26 8 27 9 28 10 29 11
REMARK SMILES IDX 30 12 31 13 32 14 33 15 34 16 35 17 36 18 37 19 38 20 39 21
REMARK SMILES IDX 40 22 41 23 42 24 43 25 44 26 45 27 46 28 47 29 48 30 22 31
REMARK SMILES IDX 20 32 21 33 19 34 18 35 17 36 16 37 15 38 14 39 13 40 12 41
REMARK SMILES IDX 11 42 10 43 9 44 8 45 7 46 6 47 5 48 4 49 3 50 2 51 1 52
REMARK SMILES IDX 53 53 54 54 55 55 56 56 57 57 58 58 59 59 60 60 61 61 62 62
REMARK SMILES IDX 63 63 64 64 65 65 66 66 67 67 68 68 69 69 70 70 71 71 72 72
REMARK SMILES IDX 73 73 74 74 75 75
REMARK H PARENT
ROOT
ATOM      1  C   UNL     1      15.264  10.901  -0.147  1.00  0.00     0.305 C 
ATOM      2  O   UNL     1      15.512  11.370  -1.247  1.00  0.00    -0.252 OA
ENDROOT
BRANCH   1   3
ATOM      3  O   UNL     1      16.027   9.741   0.246  1.00  0.00    -0.462 OA
BRANCH   3   4
ATOM      4  C   UNL     1      16.985   9.008  -0.599  1.00  0.00     0.281 C 
BRANCH   4   5
ATOM      5  C   UNL     1      18.000   7.794   0.000  1.00  0.00     0.251 C 
BRANCH   5   6
ATOM      6  C   UNL     1      17.250   6.495   0.000  1.00  0.00     0.281 C 
BRANCH   6   7
ATOM      7  O   UNL     1      16.500   5.196   0.000  1.00  0.00    -0.462 OA
BRANCH   7   8
ATOM      8  C   UNL     1      15.119   4.874  -0.052  1.00  0.00     0.305 C 
ATOM      9  O   UNL     1      14.302   5.778  -0.124  1.00  0.00    -0.252 OA
BRANCH   8  10
ATOM     10  C   UNL     1      14.585   3.359  -0.006  1.00  0.00     0.123 C 
BRANCH  10  11
ATOM     11  C   UNL     1      12.998   2.911  -0.044  1.00  0.00     0.012 C 
BRANCH  11  12
ATOM     12  C   UNL     1      12.750   1.299   0.000  1.00  0.00     0.009 C 
BRANCH  12  13
ATOM     13  C   UNL     1      12.000  -0.000  -0.000  1.00  0.00    -0.013 C 
BRANCH  13  14
ATOM     14  C   UNL     1      11.250  -1.299   0.000  1.00  0.00     0.035 C 
BRANCH  14  15
ATOM     15  C   UNL     1      10.255  -1.364  -1.156  1.00  0.00    -0.030 C 
ATOM     16  C   UNL     1       8.896  -1.514  -1.138  1.00  0.00    -0.027 C 
BRANCH  16  17
ATOM     17  C   UNL     1       7.945  -1.621   0.050  1.00  0.00     0.054 C 
BRANCH  17  18
ATOM     18  C   UNL     1       6.873  -0.537  -0.038  1.00  0.00    -0.027 C 
ATOM     19  C   UNL     1       5.509  -0.654  -0.041  1.00  0.00    -0.027 C 
BRANCH  19  20
ATOM     20  C   UNL     1       4.635  -1.901   0.075  1.00  0.00     0.054 C 
BRANCH  20  21
ATOM     21  C   UNL     1       3.719  -2.050  -1.136  1.00  0.00    -0.027 C 
ATOM     22  C   UNL     1       2.352  -2.080  -1.199  1.00  0.00    -0.027 C 
BRANCH  22  23
ATOM     23  C   UNL     1       1.316  -1.964  -0.082  1.00  0.00     0.054 C 
BRANCH  23  24
ATOM     24  C   UNL     1       0.460  -0.729  -0.314  1.00  0.00    -0.027 C 
ATOM     25  C   UNL     1      -0.887  -0.543  -0.480  1.00  0.00    -0.031 C 
BRANCH  25  26
ATOM     26  C   UNL     1      -2.140  -1.436  -0.498  1.00  0.00     0.027 C 
BRANCH  26  27
ATOM     27  C   UNL     1      -2.003  -2.933  -0.246  1.00  0.00     0.004 C 
BRANCH  27  28
ATOM     28  C   UNL     1      -3.366  -3.735  -0.288  1.00  0.00     0.000 C 
BRANCH  28  29
ATOM     29  C   UNL     1      -3.000  -5.196   0.000  1.00  0.00    -0.003 C 
ATOM     30  C   UNL     1      -3.750  -6.495   0.000  1.00  0.00     0.004 C 
ENDBRANCH  28  29
ENDBRANCH  27  28
ENDBRANCH  26  27
ENDBRANCH  25  26
ENDBRANCH  23  24
ENDBRANCH  22  23
ENDBRANCH  20  21
ENDBRANCH  19  20
ENDBRANCH  17  18
ENDBRANCH  16  17
ENDBRANCH  14  15
ENDBRANCH  13  14
ENDBRANCH  12  13
ENDBRANCH  11  12
ENDBRANCH  10  11
ENDBRANCH   8  10
ENDBRANCH   7   8
ENDBRANCH   6   7
ENDBRANCH   5   6
BRANCH   5  31
ATOM     31  O   UNL     1      19.116   8.527   0.642  1.00  0.00    -0.455 OA
BRANCH  31  32
ATOM     32  C   UNL     1      20.250   9.093   0.000  1.00  0.00     0.306 C 
ATOM     33  O   UNL     1      20.689   8.371  -0.885  1.00  0.00    -0.252 OA
BRANCH  32  34
ATOM     34  C   UNL     1      21.000  10.392   0.000  1.00  0.00     0.123 C 
BRANCH  34  35
ATOM     35  C   UNL     1      21.750  11.691   0.000  1.00  0.00     0.012 C 
BRANCH  35  36
ATOM     36  C   UNL     1      22.069  13.340  -0.035  1.00  0.00     0.001 C 
BRANCH  36  37
ATOM     37  C   UNL     1      23.658  13.943   0.037  1.00  0.00     0.001 C 
BRANCH  37  38
ATOM     38  C   UNL     1      24.000  15.588   0.000  1.00  0.00     0.008 C 
BRANCH  38  39
ATOM     39  C   UNL     1      24.750  16.887   0.000  1.00  0.00    -0.017 C 
BRANCH  39  40
ATOM     40  C   UNL     1      25.500  18.186   0.000  1.00  0.00     0.009 C 
BRANCH  40  41
ATOM     41  C   UNL     1      26.250  19.486   0.000  1.00  0.00     0.013 C 
BRANCH  41  42
ATOM     42  C   UNL     1      27.000  20.785   0.000  1.00  0.00     0.008 C 
BRANCH  42  43
ATOM     43  C   UNL     1      27.750  22.084   0.000  1.00  0.00    -0.022 C 
ATOM     44  C   UNL     1      27.000  23.383   0.000  1.00  0.00    -0.021 C 
BRANCH  44  45
ATOM     45  C   UNL     1      25.500  23.383   0.000  1.00  0.00     0.017 C 
BRANCH  45  46
ATOM     46  C   UNL     1      24.000  23.383   0.000  1.00  0.00     0.004 C 
BRANCH  46  47
ATOM     47  C   UNL     1      22.500  23.383   0.000  1.00  0.00     0.000 C 
BRANCH  47  48
ATOM     48  C   UNL     1      21.000  23.383   0.000  1.00  0.00     0.000 C 
BRANCH  48  49
ATOM     49  C   UNL     1      19.500  23.383   0.000  1.00  0.00    -0.000 C 
BRANCH  49  50
ATOM     50  C   UNL     1      18.000  23.383   0.000  1.00  0.00    -0.001 C 
BRANCH  50  51
ATOM     51  C   UNL     1      16.500  23.383   0.000  1.00  0.00    -0.012 C 
ATOM     52  C   UNL     1      15.000  23.383   0.000  1.00  0.00     0.013 C 
ENDBRANCH  50  51
ENDBRANCH  49  50
ENDBRANCH  48  49
ENDBRANCH  47  48
ENDBRANCH  46  47
ENDBRANCH  45  46
ENDBRANCH  44  45
ENDBRANCH  42  43
ENDBRANCH  41  42
ENDBRANCH  40  41
ENDBRANCH  39  40
ENDBRANCH  38  39
ENDBRANCH  37  38
ENDBRANCH  36  37
ENDBRANCH  35  36
ENDBRANCH  34  35
ENDBRANCH  32  34
ENDBRANCH  31  32
ENDBRANCH   5  31
ENDBRANCH   4   5
ENDBRANCH   3   4
ENDBRANCH   1   3
BRANCH   1  53
ATOM     53  C   UNL     1      14.190  11.783   0.741  1.00  0.00     0.123 C 
BRANCH  53  54
ATOM     54  C   UNL     1      12.804  12.294   0.000  1.00  0.00     0.012 C 
BRANCH  54  55
ATOM     55  C   UNL     1      11.505  13.044   0.000  1.00  0.00     0.001 C 
BRANCH  55  56
ATOM     56  C   UNL     1      10.206  13.794   0.000  1.00  0.00     0.001 C 
BRANCH  56  57
ATOM     57  C   UNL     1       8.907  14.544   0.000  1.00  0.00     0.008 C 
BRANCH  57  58
ATOM     58  C   UNL     1       7.608  15.294  -0.000  1.00  0.00    -0.017 C 
BRANCH  58  59
ATOM     59  C   UNL     1       6.309  16.044   0.000  1.00  0.00     0.008 C 
BRANCH  59  60
ATOM     60  C   UNL     1       4.699  16.454   0.267  1.00  0.00     0.001 C 
BRANCH  60  61
ATOM     61  C   UNL     1       4.061  17.990  -0.100  1.00  0.00     0.000 C 
BRANCH  61  62
ATOM     62  C   UNL     1       2.412  18.294  -0.000  1.00  0.00     0.000 C 
BRANCH  62  63
ATOM     63  C   UNL     1       1.113  19.044   0.000  1.00  0.00     0.000 C 
BRANCH  63  64
ATOM     64  C   UNL     1      -0.186  19.794   0.000  1.00  0.00     0.004 C 
BRANCH  64  65
ATOM     65  C   UNL     1      -1.538  19.870  -0.866  1.00  0.00     0.027 C 
BRANCH  65  66
ATOM     66  C   UNL     1      -2.753  20.883  -0.375  1.00  0.00    -0.031 C 
ATOM     67  C   UNL     1      -4.084  20.544   0.000  1.00  0.00    -0.022 C 
BRANCH  67  68
ATOM     68  C   UNL     1      -4.084  19.044   0.000  1.00  0.00     0.017 C 
BRANCH  68  69
ATOM     69  C   UNL     1      -4.084  17.544   0.000  1.00  0.00     0.004 C 
BRANCH  69  70
ATOM     70  C   UNL     1      -4.084  16.044   0.000  1.00  0.00     0.000 C 
BRANCH  70  71
ATOM     71  C   UNL     1      -4.084  14.544   0.000  1.00  0.00     0.000 C 
BRANCH  71  72
ATOM     72  C   UNL     1      -4.084  13.044   0.000  1.00  0.00    -0.000 C 
BRANCH  72  73
ATOM     73  C   UNL     1      -4.084  11.544   0.000  1.00  0.00    -0.001 C 
BRANCH  73  74
ATOM     74  C   UNL     1      -4.084  10.044   0.000  1.00  0.00    -0.012 C 
ATOM     75  C   UNL     1      -4.084   8.544   0.000  1.00  0.00     0.013 C 
ENDBRANCH  73  74
ENDBRANCH  72  73
ENDBRANCH  71  72
ENDBRANCH  70  71
ENDBRANCH  69  70
ENDBRANCH  68  69
ENDBRANCH  67  68
ENDBRANCH  65  66
ENDBRANCH  64  65
ENDBRANCH  63  64
ENDBRANCH  62  63
ENDBRANCH  61  62
ENDBRANCH  60  61
ENDBRANCH  59  60
ENDBRANCH  58  59
ENDBRANCH  57  58
ENDBRANCH  56  57
ENDBRANCH  55  56
ENDBRANCH  54  55
ENDBRANCH  53  54
ENDBRANCH   1  53
TORSDOF 62
