REMARK SMILES CC1=C(/C=C/C(C)=C/C=C/C(C)=C/C=C/C=C(C)/C=C/C=C(C)/C=C/C2=C(C)C(=O)[C@@H](O)CC2(C)C)C(C)(C)C[C@H](O[C@@H]2O[C@H](CO)[C@@H](O)[C@H](O)[C@H]2O)C1=O
REMARK SMILES IDX 9 1 10 2 8 3 6 4 7 5 5 6 4 7 3 8 2 9 54 10 37 11 41 12 55 13
REMARK SMILES IDX 40 14 1 15 38 16 39 17 42 18 43 19 44 20 52 21 45 22 50 23
REMARK SMILES IDX 48 24 53 25 46 27 47 28 51 30 49 32 11 34 13 35 12 36 14 37
REMARK SMILES IDX 15 38 16 39 17 40 18 41 19 42 20 43 21 44 22 45 23 46 24 47
REMARK SMILES IDX 25 48 26 49 27 50 34 51 29 52 33 53 30 54 31 55 28 56 35 57
REMARK SMILES IDX 36 58 32 59
REMARK H PARENT 53 26 47 29 51 31 49 33 32 60
ROOT
ATOM      1  C   UNL     1       0.860   3.792   0.966  1.00  0.00     0.001 C 
ATOM      2  C   UNL     1       0.063   4.016  -0.094  1.00  0.00     0.003 C 
ENDROOT
BRANCH   1   3
ATOM      3  C   UNL     1       2.345   3.691   0.877  1.00  0.00     0.003 C 
ATOM      4  C   UNL     1       3.091   3.136   1.870  1.00  0.00    -0.051 C 
ATOM      5  C   UNL     1       2.393   2.605   3.119  1.00  0.00     0.044 C 
BRANCH   4   6
ATOM      6  C   UNL     1       4.587   3.043   1.703  1.00  0.00     0.004 C 
ATOM      7  C   UNL     1       5.350   2.194   2.432  1.00  0.00     0.005 C 
BRANCH   7   8
ATOM      8  C   UNL     1       6.857   1.994   2.445  1.00  0.00    -0.036 C 
ATOM      9  C   UNL     1       7.420   1.292   3.506  1.00  0.00    -0.001 C 
ATOM     10  C   UNL     1       8.903   1.212   3.689  1.00  0.00     0.187 C 
ATOM     11  C   UNL     1       7.794   2.628   1.370  1.00  0.00    -0.007 C 
ATOM     12  C   UNL     1       9.859   1.851   2.740  1.00  0.00     0.193 C 
ATOM     13  O   UNL     1       9.358   0.729   4.718  1.00  0.00    -0.292 OA
ATOM     14  C   UNL     1       9.194   1.943   1.376  1.00  0.00     0.052 C 
ATOM     15  C   UNL     1       6.650   0.616   4.644  1.00  0.00     0.048 C 
ATOM     16  C   UNL     1       7.936   4.139   1.639  1.00  0.00     0.016 C 
ATOM     17  C   UNL     1       7.285   2.385  -0.080  1.00  0.00     0.016 C 
BRANCH  12  18
ATOM     18  O   UNL     1      10.995   1.005   2.652  1.00  0.00    -0.338 OA
BRANCH  18  19
ATOM     19  C   UNL     1      12.172   1.682   2.250  1.00  0.00     0.282 C 
ATOM     20  O   UNL     1      12.414   1.351   0.877  1.00  0.00    -0.341 OA
ATOM     21  C   UNL     1      13.304   1.207   3.187  1.00  0.00     0.202 C 
ATOM     22  C   UNL     1      13.784   1.319   0.457  1.00  0.00     0.178 C 
ATOM     23  C   UNL     1      14.653   1.854   2.818  1.00  0.00     0.179 C 
ATOM     24  C   UNL     1      14.709   2.224   1.314  1.00  0.00     0.177 C 
BRANCH  21  25
ATOM     25  O   UNL     1      13.004   1.411   4.545  1.00  0.00    -0.385 OA
ATOM     26  H   UNL     1      12.807   2.377   4.662  1.00  0.00     0.211 HD
ENDBRANCH  21  25
BRANCH  22  27
ATOM     27  C   UNL     1      14.272  -0.134   0.303  1.00  0.00     0.191 C 
BRANCH  27  28
ATOM     28  O   UNL     1      13.473  -0.817  -0.626  1.00  0.00    -0.394 OA
ATOM     29  H   UNL     1      12.654  -1.103  -0.143  1.00  0.00     0.210 HD
ENDBRANCH  27  28
ENDBRANCH  22  27
BRANCH  23  30
ATOM     30  O   UNL     1      15.718   1.033   3.230  1.00  0.00    -0.387 OA
ATOM     31  H   UNL     1      15.791   0.275   2.597  1.00  0.00     0.211 HD
ENDBRANCH  23  30
BRANCH  24  32
ATOM     32  O   UNL     1      14.245   3.546   1.174  1.00  0.00    -0.387 OA
ATOM     33  H   UNL     1      14.604   3.893   0.315  1.00  0.00     0.211 HD
ENDBRANCH  24  32
ENDBRANCH  18  19
ENDBRANCH  12  18
ENDBRANCH   7   8
ENDBRANCH   4   6
ENDBRANCH   1   3
BRANCH   2  34
ATOM     34  C   UNL     1      -1.431   3.955   0.037  1.00  0.00    -0.051 C 
ATOM     35  C   UNL     1      -2.140   3.539  -1.036  1.00  0.00     0.003 C 
ATOM     36  C   UNL     1      -2.130   4.232   1.356  1.00  0.00     0.044 C 
BRANCH  35  37
ATOM     37  C   UNL     1      -3.597   3.230  -0.979  1.00  0.00     0.000 C 
ATOM     38  C   UNL     1      -4.147   2.476  -1.941  1.00  0.00     0.000 C 
BRANCH  38  39
ATOM     39  C   UNL     1      -5.532   1.939  -1.802  1.00  0.00     0.003 C 
ATOM     40  C   UNL     1      -6.032   0.911  -2.539  1.00  0.00    -0.051 C 
ATOM     41  C   UNL     1      -5.245   0.239  -3.657  1.00  0.00     0.044 C 
BRANCH  40  42
ATOM     42  C   UNL     1      -7.391   0.366  -2.185  1.00  0.00     0.003 C 
ATOM     43  C   UNL     1      -7.829  -0.811  -2.678  1.00  0.00     0.001 C 
BRANCH  43  44
ATOM     44  C   UNL     1      -9.138  -1.431  -2.328  1.00  0.00     0.003 C 
ATOM     45  C   UNL     1      -9.470  -2.723  -2.615  1.00  0.00    -0.051 C 
ATOM     46  C   UNL     1      -8.493  -3.699  -3.267  1.00  0.00     0.044 C 
BRANCH  45  47
ATOM     47  C   UNL     1     -10.850  -3.219  -2.267  1.00  0.00     0.004 C 
ATOM     48  C   UNL     1     -11.240  -4.500  -2.493  1.00  0.00     0.005 C 
BRANCH  48  49
ATOM     49  C   UNL     1     -12.588  -5.167  -2.261  1.00  0.00    -0.036 C 
ATOM     50  C   UNL     1     -12.664  -6.556  -2.305  1.00  0.00    -0.001 C 
ATOM     51  C   UNL     1     -13.887  -4.325  -2.026  1.00  0.00    -0.007 C 
ATOM     52  C   UNL     1     -13.960  -7.262  -2.068  1.00  0.00     0.187 C 
ATOM     53  C   UNL     1     -15.187  -5.190  -2.208  1.00  0.00     0.051 C 
ATOM     54  O   UNL     1     -14.073  -8.449  -2.337  1.00  0.00    -0.292 OA
ATOM     55  C   UNL     1     -15.134  -6.535  -1.510  1.00  0.00     0.186 C 
ATOM     56  C   UNL     1     -11.499  -7.509  -2.561  1.00  0.00     0.048 C 
ATOM     57  C   UNL     1     -14.033  -3.207  -3.093  1.00  0.00     0.016 C 
ATOM     58  C   UNL     1     -13.869  -3.688  -0.615  1.00  0.00     0.016 C 
BRANCH  55  59
ATOM     59  O   UNL     1     -15.007  -6.380  -0.124  1.00  0.00    -0.385 OA
ATOM     60  H   UNL     1     -15.158  -7.276   0.279  1.00  0.00     0.211 HD
ENDBRANCH  55  59
ENDBRANCH  48  49
ENDBRANCH  45  47
ENDBRANCH  43  44
ENDBRANCH  40  42
ENDBRANCH  38  39
ENDBRANCH  35  37
ENDBRANCH   2  34
TORSDOF 18
