REMARK SMILES C[C@@H]1O[C@@H](Oc2c(-c3ccc(O)cc3)oc3cc(O)cc(O)c3c2=O)[C@H](O)[C@H](O)[C@H]1O[C@@H]1O[C@H](CO)[C@@H](O)[C@H](O)[C@H]1O[C@@H]1O[C@H](CO)[C@@H](O)[C@H](O)[C@H]1O
REMARK SMILES IDX 31 1 30 2 2 3 3 4 4 5 28 6 26 7 1 8 5 9 6 10 7 11 24 12
REMARK SMILES IDX 15 13 23 14 25 15 16 16 21 17 17 18 20 19 18 20 8 21 9 22
REMARK SMILES IDX 14 23 10 24 13 25 11 26 12 27 22 29 19 31 29 33 27 35 32 37
REMARK SMILES IDX 33 38 41 39 34 40 39 41 37 42 42 43 43 44 44 45 52 46 45 47
REMARK SMILES IDX 50 48 48 49 53 50 46 52 47 53 51 55 49 57 35 59 36 60 40 62
REMARK SMILES IDX 38 64
REMARK H PARENT 12 28 22 30 19 32 29 34 27 36 53 51 47 54 51 56 49 58 36 61
REMARK H PARENT 40 63 38 65
ROOT
ATOM      1  O   UNL     1      -0.912   1.055   0.327  1.00  0.00    -0.341 OA
ENDROOT
BRANCH   1   2
ATOM      2  C   UNL     1      -0.501   0.556  -0.942  1.00  0.00     0.182 C 
ATOM      3  C   UNL     1       0.886   1.214  -1.222  1.00  0.00     0.151 C 
ATOM      4  O   UNL     1       1.808   0.294  -1.778  1.00  0.00    -0.335 OA
ATOM      5  C   UNL     1       2.148  -0.733  -0.839  1.00  0.00     0.339 C 
ATOM      6  C   UNL     1      -0.357  -0.997  -0.869  1.00  0.00     0.181 C 
ATOM      7  C   UNL     1       0.912  -1.293  -0.071  1.00  0.00     0.214 C 
ATOM      8  C   UNL     1       0.739   2.429  -2.135  1.00  0.00     0.042 C 
BRANCH   5   9
ATOM      9  O   UNL     1       3.088  -0.265   0.068  1.00  0.00    -0.454 OA
BRANCH   9  10
ATOM     10  C   UNL     1       4.251  -0.891   0.349  1.00  0.00     0.214 A 
ATOM     11  C   UNL     1       5.474  -0.540  -0.276  1.00  0.00     0.180 A 
ATOM     12  C   UNL     1       4.241  -1.926   1.298  1.00  0.00     0.239 A 
ATOM     13  O   UNL     1       6.569  -1.235   0.034  1.00  0.00    -0.452 OA
ATOM     14  C   UNL     1       5.429  -2.614   1.602  1.00  0.00     0.111 A 
ATOM     15  O   UNL     1       3.198  -2.214   1.858  1.00  0.00    -0.285 OA
ATOM     16  C   UNL     1       6.600  -2.223   0.921  1.00  0.00     0.146 A 
ATOM     17  C   UNL     1       5.492  -3.664   2.552  1.00  0.00     0.134 A 
ATOM     18  C   UNL     1       7.813  -2.868   1.184  1.00  0.00     0.094 A 
ATOM     19  C   UNL     1       6.721  -4.298   2.800  1.00  0.00     0.093 A 
ATOM     20  C   UNL     1       7.875  -3.904   2.124  1.00  0.00     0.123 A 
BRANCH  11  21
ATOM     21  C   UNL     1       5.640   0.573  -1.270  1.00  0.00     0.021 A 
ATOM     22  C   UNL     1       6.819   0.611  -2.047  1.00  0.00     0.016 A 
ATOM     23  C   UNL     1       4.695   1.607  -1.459  1.00  0.00     0.016 A 
ATOM     24  C   UNL     1       7.032   1.623  -2.987  1.00  0.00     0.047 A 
ATOM     25  C   UNL     1       4.915   2.619  -2.398  1.00  0.00     0.047 A 
ATOM     26  C   UNL     1       6.078   2.629  -3.168  1.00  0.00     0.115 A 
BRANCH  26  27
ATOM     27  O   UNL     1       6.269   3.612  -4.071  1.00  0.00    -0.508 OA
ATOM     28  H   UNL     1       7.063   3.656  -4.623  1.00  0.00     0.293 HD
ENDBRANCH  26  27
ENDBRANCH  11  21
BRANCH  17  29
ATOM     29  O   UNL     1       4.390  -4.064   3.221  1.00  0.00    -0.507 OA
ATOM     30  H   UNL     1       4.409  -4.778   3.874  1.00  0.00     0.293 HD
ENDBRANCH  17  29
BRANCH  20  31
ATOM     31  O   UNL     1       9.042  -4.528   2.387  1.00  0.00    -0.508 OA
ATOM     32  H   UNL     1       9.867  -4.283   1.944  1.00  0.00     0.293 HD
ENDBRANCH  20  31
ENDBRANCH   9  10
ENDBRANCH   5   9
BRANCH   6  33
ATOM     33  O   UNL     1      -0.278  -1.612  -2.140  1.00  0.00    -0.387 OA
ATOM     34  H   UNL     1      -0.109  -0.933  -2.842  1.00  0.00     0.211 HD
ENDBRANCH   6  33
BRANCH   7  35
ATOM     35  O   UNL     1       1.051  -2.662   0.221  1.00  0.00    -0.384 OA
ATOM     36  H   UNL     1       1.084  -3.155  -0.640  1.00  0.00     0.211 HD
ENDBRANCH   7  35
ENDBRANCH   1   2
BRANCH   1  37
ATOM     37  C   UNL     1      -2.233   1.573   0.390  1.00  0.00     0.282 C 
ATOM     38  O   UNL     1      -2.211   2.798   1.108  1.00  0.00    -0.341 OA
ATOM     39  C   UNL     1      -3.190   0.542   1.047  1.00  0.00     0.209 C 
ATOM     40  C   UNL     1      -1.853   2.676   2.494  1.00  0.00     0.178 C 
ATOM     41  C   UNL     1      -3.014   0.472   2.587  1.00  0.00     0.180 C 
ATOM     42  C   UNL     1      -1.750   1.213   3.041  1.00  0.00     0.177 C 
BRANCH  39  43
ATOM     43  O   UNL     1      -4.540   0.892   0.775  1.00  0.00    -0.338 OA
BRANCH  43  44
ATOM     44  C   UNL     1      -5.178  -0.003  -0.121  1.00  0.00     0.282 C 
ATOM     45  O   UNL     1      -5.119   0.561  -1.436  1.00  0.00    -0.341 OA
ATOM     46  C   UNL     1      -6.629  -0.187   0.362  1.00  0.00     0.202 C 
ATOM     47  C   UNL     1      -6.104   0.097  -2.370  1.00  0.00     0.178 C 
ATOM     48  C   UNL     1      -7.387  -1.183  -0.548  1.00  0.00     0.179 C 
ATOM     49  C   UNL     1      -6.766  -1.248  -1.968  1.00  0.00     0.177 C 
BRANCH  46  50
ATOM     50  O   UNL     1      -6.701  -0.588   1.708  1.00  0.00    -0.385 OA
ATOM     51  H   UNL     1      -6.137  -1.400   1.806  1.00  0.00     0.211 HD
ENDBRANCH  46  50
BRANCH  47  52
ATOM     52  C   UNL     1      -7.105   1.223  -2.691  1.00  0.00     0.191 C 
BRANCH  52  53
ATOM     53  O   UNL     1      -8.024   0.812  -3.669  1.00  0.00    -0.394 OA
ATOM     54  H   UNL     1      -7.532   0.791  -4.532  1.00  0.00     0.210 HD
ENDBRANCH  52  53
ENDBRANCH  47  52
BRANCH  48  55
ATOM     55  O   UNL     1      -8.768  -0.914  -0.563  1.00  0.00    -0.387 OA
ATOM     56  H   UNL     1      -8.905   0.033  -0.815  1.00  0.00     0.211 HD
ENDBRANCH  48  55
BRANCH  49  57
ATOM     57  O   UNL     1      -5.738  -2.212  -1.977  1.00  0.00    -0.387 OA
ATOM     58  H   UNL     1      -6.170  -3.105  -2.008  1.00  0.00     0.211 HD
ENDBRANCH  49  57
ENDBRANCH  43  44
ENDBRANCH  39  43
BRANCH  40  59
ATOM     59  C   UNL     1      -0.578   3.481   2.780  1.00  0.00     0.191 C 
BRANCH  59  60
ATOM     60  O   UNL     1       0.518   2.963   2.074  1.00  0.00    -0.394 OA
ATOM     61  H   UNL     1       0.988   2.339   2.686  1.00  0.00     0.210 HD
ENDBRANCH  59  60
ENDBRANCH  40  59
BRANCH  41  62
ATOM     62  O   UNL     1      -3.060  -0.854   3.052  1.00  0.00    -0.387 OA
ATOM     63  H   UNL     1      -2.245  -1.311   2.714  1.00  0.00     0.211 HD
ENDBRANCH  41  62
BRANCH  42  64
ATOM     64  O   UNL     1      -1.615   1.194   4.441  1.00  0.00    -0.387 OA
ATOM     65  H   UNL     1      -2.415   1.634   4.831  1.00  0.00     0.211 HD
ENDBRANCH  42  64
ENDBRANCH   1  37
TORSDOF 21
