REMARK SMILES CCCCn1c(Cc2ccc3c(c2)OCO3)nc2c(N)ncnc21
REMARK SMILES IDX 4 1 3 2 2 3 1 4 5 5 6 6 24 7 17 8 23 9 18 10 22 11 19 12
REMARK SMILES IDX 21 13 7 14 8 15 9 16 13 17 10 18 12 19 11 20 14 21 16 22
REMARK SMILES IDX 15 23 20 24
REMARK H PARENT 20 25 20 26
ROOT
ATOM      1  C   UNL     1      -1.920   0.678  -0.935  1.00  0.00     0.125 C 
ENDROOT
BRANCH   1   2
ATOM      2  C   UNL     1      -3.168  -0.132  -0.542  1.00  0.00     0.022 C 
BRANCH   2   3
ATOM      3  C   UNL     1      -3.980  -0.607  -1.757  1.00  0.00    -0.002 C 
ATOM      4  C   UNL     1      -3.235  -1.640  -2.605  1.00  0.00     0.004 C 
ENDBRANCH   2   3
ENDBRANCH   1   2
BRANCH   1   5
ATOM      5  N   UNL     1      -1.169   1.094   0.253  1.00  0.00    -0.312 N 
ATOM      6  C   UNL     1      -0.419   0.333   1.105  1.00  0.00     0.115 A 
ATOM      7  C   UNL     1      -1.037   2.341   0.728  1.00  0.00     0.165 A 
ATOM      8  N   UNL     1       0.152   1.073   2.095  1.00  0.00    -0.227 NA
ATOM      9  N   UNL     1      -1.577   3.481   0.232  1.00  0.00    -0.217 NA
ATOM     10  C   UNL     1      -0.255   2.328   1.831  1.00  0.00     0.150 A 
ATOM     11  C   UNL     1      -1.311   4.654   0.883  1.00  0.00     0.226 A 
ATOM     12  C   UNL     1       0.023   3.512   2.504  1.00  0.00     0.155 A 
ATOM     13  N   UNL     1      -0.521   4.662   2.006  1.00  0.00    -0.217 NA
BRANCH   6  14
ATOM     14  C   UNL     1      -0.189  -1.150   0.964  1.00  0.00     0.111 C 
BRANCH  14  15
ATOM     15  C   UNL     1       1.264  -1.441   0.679  1.00  0.00    -0.037 A 
ATOM     16  C   UNL     1       2.270  -1.152   1.640  1.00  0.00     0.008 A 
ATOM     17  C   UNL     1       1.634  -2.005  -0.565  1.00  0.00     0.054 A 
ATOM     18  C   UNL     1       3.624  -1.415   1.357  1.00  0.00     0.051 A 
ATOM     19  C   UNL     1       2.983  -2.244  -0.799  1.00  0.00     0.166 A 
ATOM     20  C   UNL     1       3.932  -1.962   0.116  1.00  0.00     0.165 A 
ATOM     21  O   UNL     1       3.559  -2.753  -1.891  1.00  0.00    -0.454 OA
ATOM     22  O   UNL     1       5.130  -2.287  -0.377  1.00  0.00    -0.454 OA
ATOM     23  C   UNL     1       4.931  -2.793  -1.660  1.00  0.00     0.468 C 
ENDBRANCH  14  15
ENDBRANCH   6  14
BRANCH  12  24
ATOM     24  N   UNL     1       0.836   3.541   3.661  1.00  0.00    -0.382 N 
ATOM     25  H   UNL     1       1.246   2.675   4.040  1.00  0.00     0.158 HD
ATOM     26  H   UNL     1       1.025   4.434   4.138  1.00  0.00     0.158 HD
ENDBRANCH  12  24
ENDBRANCH   1   5
TORSDOF 6
