REMARK SMILES OC[C@H]1O[C@@](O)(CO)[C@@H](O)[C@@H]1O
REMARK SMILES IDX 3 1 4 2 5 3 9 4 11 5 2 6 1 7 12 9 6 11 7 13 8 14 10 16
REMARK H PARENT 1 8 12 10 6 12 8 15 10 17
ROOT
ATOM      1  C   UNL     1       1.257  -0.083  -0.538  1.00  0.00     0.179 C 
ATOM      2  O   UNL     1       0.298  -1.112  -0.744  1.00  0.00    -0.337 OA
ATOM      3  C   UNL     1      -0.996  -0.512  -0.670  1.00  0.00     0.219 C 
ATOM      4  C   UNL     1      -0.757   1.011  -0.675  1.00  0.00     0.207 C 
ATOM      5  C   UNL     1       0.522   1.086   0.116  1.00  0.00     0.180 C 
ENDROOT
BRANCH   1   6
ATOM      6  C   UNL     1       2.430  -0.571   0.313  1.00  0.00     0.191 C 
BRANCH   6   7
ATOM      7  O   UNL     1       3.065  -1.636  -0.337  1.00  0.00    -0.394 OA
ATOM      8  H   UNL     1       3.847  -1.874   0.226  1.00  0.00     0.210 HD
ENDBRANCH   6   7
ENDBRANCH   1   6
BRANCH   5   9
ATOM      9  O   UNL     1       1.191   2.319   0.019  1.00  0.00    -0.387 OA
ATOM     10  H   UNL     1       1.377   2.492  -0.940  1.00  0.00     0.211 HD
ENDBRANCH   5   9
BRANCH   3  11
ATOM     11  O   UNL     1      -1.758  -0.850  -1.802  1.00  0.00    -0.362 OA
ATOM     12  H   UNL     1      -1.644  -1.825  -1.952  1.00  0.00     0.214 HD
ENDBRANCH   3  11
BRANCH   3  13
ATOM     13  C   UNL     1      -1.707  -1.040   0.599  1.00  0.00     0.224 C 
BRANCH  13  14
ATOM     14  O   UNL     1      -3.004  -0.511   0.687  1.00  0.00    -0.391 OA
ATOM     15  H   UNL     1      -3.251  -0.513   1.648  1.00  0.00     0.210 HD
ENDBRANCH  13  14
ENDBRANCH   3  13
BRANCH   4  16
ATOM     16  O   UNL     1      -1.823   1.790  -0.187  1.00  0.00    -0.385 OA
ATOM     17  H   UNL     1      -1.768   1.812   0.803  1.00  0.00     0.211 HD
ENDBRANCH   4  16
TORSDOF 7
