REMARK SMILES CC[C]CCCCCCCCCCCCC(=O)OC[C@H](COC(=O)CCCCCCCC[C]CC(C)CC)OC(=O)CCCCCCCCCCCCCCCCCCCCC(C)CC
REMARK SMILES IDX 42 1 40 2 41 3 39 4 20 5 19 6 18 7 16 8 17 9 15 10 14 11
REMARK SMILES IDX 13 12 12 13 11 14 10 15 9 16 8 17 7 18 6 19 5 20 4 21 3 22
REMARK SMILES IDX 2 23 1 24 21 25 22 26 23 27 24 28 25 29 26 30 27 31 28 32
REMARK SMILES IDX 29 33 30 34 31 35 32 36 33 37 34 38 35 39 36 40 37 41 38 42
REMARK SMILES IDX 43 43 44 44 45 45 46 46 47 47 48 48 49 49 50 50 51 51 52 52
REMARK SMILES IDX 53 53 54 54 55 55 56 56 57 57 58 58 59 59 60 60 61 61 62 62
REMARK SMILES IDX 63 63 64 64 65 65
REMARK H PARENT
ROOT
ATOM      1  C   UNL     1      -5.941   0.406   0.628  1.00  0.00     0.123 C 
ENDROOT
BRANCH   1   2
ATOM      2  C   UNL     1      -5.468  -0.969   0.086  1.00  0.00     0.306 C 
ATOM      3  O   UNL     1      -6.271  -1.883  -0.008  1.00  0.00    -0.252 OA
BRANCH   2   4
ATOM      4  O   UNL     1      -4.125  -1.200  -0.143  1.00  0.00    -0.455 OA
BRANCH   4   5
ATOM      5  C   UNL     1      -3.292  -2.261   0.290  1.00  0.00     0.251 C 
BRANCH   5   6
ATOM      6  C   UNL     1      -1.701  -1.863  -0.119  1.00  0.00     0.281 C 
BRANCH   6   7
ATOM      7  O   UNL     1      -1.041  -0.587   0.225  1.00  0.00    -0.462 OA
BRANCH   7   8
ATOM      8  C   UNL     1       0.348  -0.227  -0.005  1.00  0.00     0.305 C 
ATOM      9  O   UNL     1       1.087  -1.102  -0.430  1.00  0.00    -0.252 OA
BRANCH   8  10
ATOM     10  C   UNL     1       1.067   1.239   0.244  1.00  0.00     0.123 C 
BRANCH  10  11
ATOM     11  C   UNL     1       2.714   1.499   0.002  1.00  0.00     0.012 C 
BRANCH  11  12
ATOM     12  C   UNL     1       3.532   2.968   0.183  1.00  0.00     0.001 C 
BRANCH  12  13
ATOM     13  C   UNL     1       5.196   3.000   0.000  1.00  0.00     0.000 C 
BRANCH  13  14
ATOM     14  C   UNL     1       6.495   3.750   0.000  1.00  0.00     0.000 C 
BRANCH  14  15
ATOM     15  C   UNL     1       7.794   4.500   0.000  1.00  0.00     0.000 C 
BRANCH  15  16
ATOM     16  C   UNL     1       9.093   5.250   0.000  1.00  0.00     0.000 C 
BRANCH  16  17
ATOM     17  C   UNL     1      10.392   6.000   0.000  1.00  0.00     0.000 C 
BRANCH  17  18
ATOM     18  C   UNL     1      11.691   6.750   0.000  1.00  0.00     0.000 C 
BRANCH  18  19
ATOM     19  C   UNL     1      13.341   7.064  -0.034  1.00  0.00     0.000 C 
BRANCH  19  20
ATOM     20  C   UNL     1      13.944   8.654   0.028  1.00  0.00     0.001 C 
BRANCH  20  21
ATOM     21  C   UNL     1      15.588   9.000   0.000  1.00  0.00     0.008 C 
BRANCH  21  22
ATOM     22  C   UNL     1      16.887   9.750   0.000  1.00  0.00    -0.018 C 
BRANCH  22  23
ATOM     23  C   UNL     1      18.186  10.500   0.000  1.00  0.00     0.005 C 
ATOM     24  C   UNL     1      19.486  11.250   0.000  1.00  0.00     0.004 C 
ENDBRANCH  22  23
ENDBRANCH  21  22
ENDBRANCH  20  21
ENDBRANCH  19  20
ENDBRANCH  18  19
ENDBRANCH  17  18
ENDBRANCH  16  17
ENDBRANCH  15  16
ENDBRANCH  14  15
ENDBRANCH  13  14
ENDBRANCH  12  13
ENDBRANCH  11  12
ENDBRANCH  10  11
ENDBRANCH   8  10
ENDBRANCH   7   8
ENDBRANCH   6   7
ENDBRANCH   5   6
BRANCH   5  25
ATOM     25  C   UNL     1      -3.743  -3.830  -0.188  1.00  0.00     0.281 C 
BRANCH  25  26
ATOM     26  O   UNL     1      -4.987  -4.565   0.143  1.00  0.00    -0.462 OA
BRANCH  26  27
ATOM     27  C   UNL     1      -5.196  -6.000   0.000  1.00  0.00     0.305 C 
ATOM     28  O   UNL     1      -4.180  -6.665  -0.204  1.00  0.00    -0.252 OA
BRANCH  27  29
ATOM     29  C   UNL     1      -6.495  -6.750   0.000  1.00  0.00     0.123 C 
BRANCH  29  30
ATOM     30  C   UNL     1      -7.794  -7.500   0.000  1.00  0.00     0.012 C 
BRANCH  30  31
ATOM     31  C   UNL     1      -9.093  -8.250   0.000  1.00  0.00     0.001 C 
BRANCH  31  32
ATOM     32  C   UNL     1     -10.392  -9.000   0.000  1.00  0.00     0.000 C 
BRANCH  32  33
ATOM     33  C   UNL     1     -11.691  -9.750   0.000  1.00  0.00     0.000 C 
BRANCH  33  34
ATOM     34  C   UNL     1     -13.341 -10.065   0.047  1.00  0.00     0.000 C 
BRANCH  34  35
ATOM     35  C   UNL     1     -13.944 -11.653  -0.042  1.00  0.00     0.001 C 
BRANCH  35  36
ATOM     36  C   UNL     1     -15.588 -12.000   0.000  1.00  0.00     0.008 C 
BRANCH  36  37
ATOM     37  C   UNL     1     -16.887 -12.750   0.000  1.00  0.00    -0.017 C 
BRANCH  37  38
ATOM     38  C   UNL     1     -18.186 -13.500   0.000  1.00  0.00     0.011 C 
BRANCH  38  39
ATOM     39  C   UNL     1     -19.486 -14.250   0.000  1.00  0.00    -0.014 C 
ATOM     40  C   UNL     1     -20.785 -15.000   0.000  1.00  0.00     0.007 C 
BRANCH  39  41
ATOM     41  C   UNL     1     -18.736 -15.549   0.000  1.00  0.00    -0.000 C 
ATOM     42  C   UNL     1     -17.986 -16.848   0.000  1.00  0.00     0.004 C 
ENDBRANCH  39  41
ENDBRANCH  38  39
ENDBRANCH  37  38
ENDBRANCH  36  37
ENDBRANCH  35  36
ENDBRANCH  34  35
ENDBRANCH  33  34
ENDBRANCH  32  33
ENDBRANCH  31  32
ENDBRANCH  30  31
ENDBRANCH  29  30
ENDBRANCH  27  29
ENDBRANCH  26  27
ENDBRANCH  25  26
ENDBRANCH   5  25
ENDBRANCH   4   5
ENDBRANCH   2   4
ENDBRANCH   1   2
BRANCH   1  43
ATOM     43  C   UNL     1      -6.990   1.322  -0.146  1.00  0.00     0.012 C 
BRANCH  43  44
ATOM     44  C   UNL     1      -7.260   2.633   0.697  1.00  0.00     0.001 C 
BRANCH  44  45
ATOM     45  C   UNL     1      -7.845   3.999   0.133  1.00  0.00     0.000 C 
BRANCH  45  46
ATOM     46  C   UNL     1      -9.373   4.499   0.076  1.00  0.00     0.000 C 
BRANCH  46  47
ATOM     47  C   UNL     1      -9.348   6.093   0.000  1.00  0.00     0.000 C 
BRANCH  47  48
ATOM     48  C   UNL     1     -10.098   7.392   0.000  1.00  0.00     0.000 C 
BRANCH  48  49
ATOM     49  C   UNL     1     -10.848   8.691   0.000  1.00  0.00     0.000 C 
BRANCH  49  50
ATOM     50  C   UNL     1     -11.245  10.284  -0.374  1.00  0.00     0.000 C 
BRANCH  50  51
ATOM     51  C   UNL     1     -12.797  10.932  -0.072  1.00  0.00     0.000 C 
BRANCH  51  52
ATOM     52  C   UNL     1     -13.098  12.588   0.000  1.00  0.00     0.000 C 
BRANCH  52  53
ATOM     53  C   UNL     1     -13.848  13.887   0.000  1.00  0.00     0.000 C 
BRANCH  53  54
ATOM     54  C   UNL     1     -14.598  15.187   0.000  1.00  0.00     0.000 C 
BRANCH  54  55
ATOM     55  C   UNL     1     -15.348  16.486   0.000  1.00  0.00     0.000 C 
BRANCH  55  56
ATOM     56  C   UNL     1     -16.098  17.785   0.000  1.00  0.00     0.000 C 
BRANCH  56  57
ATOM     57  C   UNL     1     -16.848  19.084   0.000  1.00  0.00     0.000 C 
BRANCH  57  58
ATOM     58  C   UNL     1     -17.222  20.707  -0.231  1.00  0.00     0.000 C 
BRANCH  58  59
ATOM     59  C   UNL     1     -18.799  21.326  -0.018  1.00  0.00     0.000 C 
BRANCH  59  60
ATOM     60  C   UNL     1     -19.098  22.981   0.000  1.00  0.00     0.000 C 
BRANCH  60  61
ATOM     61  C   UNL     1     -19.848  24.280   0.000  1.00  0.00     0.003 C 
BRANCH  61  62
ATOM     62  C   UNL     1     -20.598  25.579   0.000  1.00  0.00    -0.015 C 
ATOM     63  C   UNL     1     -21.348  26.878   0.000  1.00  0.00     0.007 C 
BRANCH  62  64
ATOM     64  C   UNL     1     -21.897  24.829   0.000  1.00  0.00    -0.000 C 
ATOM     65  C   UNL     1     -23.196  24.079   0.000  1.00  0.00     0.004 C 
ENDBRANCH  62  64
ENDBRANCH  61  62
ENDBRANCH  60  61
ENDBRANCH  59  60
ENDBRANCH  58  59
ENDBRANCH  57  58
ENDBRANCH  56  57
ENDBRANCH  55  56
ENDBRANCH  54  55
ENDBRANCH  53  54
ENDBRANCH  52  53
ENDBRANCH  51  52
ENDBRANCH  50  51
ENDBRANCH  49  50
ENDBRANCH  48  49
ENDBRANCH  47  48
ENDBRANCH  46  47
ENDBRANCH  45  46
ENDBRANCH  44  45
ENDBRANCH  43  44
ENDBRANCH   1  43
TORSDOF 56
