REMARK SMILES Cc1ccc(N2C(=O)[C@@H]3[C@H](C2=O)[C@]2(Br)c4ccccc4[C@@]3(Br)c3ccccc32)c(C)c1
REMARK SMILES IDX 6 1 11 2 12 3 10 4 9 5 7 6 8 7 21 8 22 9 20 10 19 11 18 12
REMARK SMILES IDX 17 13 16 14 15 15 13 16 14 17 28 18 27 19 26 20 25 21 24 22
REMARK SMILES IDX 23 23 5 24 2 25 3 26 31 27 4 28 29 29 1 30 30 31
REMARK H PARENT
ROOT
ATOM      1  N   UNL     1      -1.184   0.392  -0.182  1.00  0.00    -0.250 N 
ATOM      2  C   UNL     1      -0.386   0.434  -1.269  1.00  0.00     0.239 C 
ATOM      3  O   UNL     1      -0.743   0.053  -2.375  1.00  0.00    -0.274 OA
ATOM      4  C   UNL     1       0.938   1.096  -0.998  1.00  0.00     0.120 C 
ATOM      5  C   UNL     1       0.850   1.392   0.546  1.00  0.00     0.120 C 
ATOM      6  C   UNL     1      -0.528   0.899   0.885  1.00  0.00     0.239 C 
ATOM      7  O   UNL     1      -1.008   0.944   2.008  1.00  0.00    -0.274 OA
ATOM      8  C   UNL     1       2.028   0.687   1.301  1.00  0.00     0.089 C 
ATOM      9  Br  UNL     1       1.916   1.019   3.232  1.00  0.00    -0.074 Br
ATOM     10  C   UNL     1       2.024  -0.798   0.917  1.00  0.00    -0.021 A 
ATOM     11  C   UNL     1       1.959  -1.882   1.808  1.00  0.00     0.006 A 
ATOM     12  C   UNL     1       1.990  -3.190   1.310  1.00  0.00     0.000 A 
ATOM     13  C   UNL     1       2.083  -3.424  -0.066  1.00  0.00     0.000 A 
ATOM     14  C   UNL     1       2.147  -2.352  -0.963  1.00  0.00     0.006 A 
ATOM     15  C   UNL     1       2.119  -1.037  -0.475  1.00  0.00    -0.021 A 
ATOM     16  C   UNL     1       2.201   0.235  -1.324  1.00  0.00     0.089 C 
ATOM     17  Br  UNL     1       2.333  -0.090  -3.254  1.00  0.00    -0.074 Br
ATOM     18  C   UNL     1       3.383   1.024  -0.746  1.00  0.00    -0.021 A 
ATOM     19  C   UNL     1       4.487   1.504  -1.467  1.00  0.00     0.006 A 
ATOM     20  C   UNL     1       5.491   2.215  -0.801  1.00  0.00     0.000 A 
ATOM     21  C   UNL     1       5.404   2.445   0.577  1.00  0.00     0.000 A 
ATOM     22  C   UNL     1       4.311   1.969   1.308  1.00  0.00     0.006 A 
ATOM     23  C   UNL     1       3.293   1.260   0.651  1.00  0.00    -0.021 A 
ENDROOT
BRANCH   1  24
ATOM     24  C   UNL     1      -2.529  -0.106  -0.176  1.00  0.00     0.055 A 
ATOM     25  C   UNL     1      -5.149  -1.167  -0.200  1.00  0.00    -0.051 A 
ATOM     26  C   UNL     1      -4.083  -1.905  -0.726  1.00  0.00     0.005 A 
ATOM     27  C   UNL     1      -4.910   0.105   0.328  1.00  0.00     0.009 A 
ATOM     28  C   UNL     1      -2.789  -1.377  -0.720  1.00  0.00     0.027 A 
ATOM     29  C   UNL     1      -3.617   0.653   0.344  1.00  0.00    -0.027 A 
ATOM     30  C   UNL     1      -6.548  -1.711  -0.211  1.00  0.00     0.044 C 
ATOM     31  C   UNL     1      -3.489   2.066   0.857  1.00  0.00     0.046 C 
ENDBRANCH   1  24
TORSDOF 1
