REMARK SMILES CC1(C)[C@H](O)[C@H](O)C[C@@]2(C)[C@H]3CC[C@@H]4[C@@](C)(CC[C@H]5[C@]4(C)CC[C@H](O)[C@]5(C)CO)CC3=CC(=O)[C@@H]12
REMARK SMILES IDX 14 1 15 2 16 3 17 4 18 5 19 6 26 7 27 8 24 9 23 10 22 11
REMARK SMILES IDX 20 12 21 13 30 14 31 15 2 16 4 17 35 18 6 19 33 20 9 21 8 22
REMARK SMILES IDX 32 23 34 24 11 25 1 26 3 27 10 28 5 30 7 32 13 34 12 35
REMARK SMILES IDX 28 37 29 38 25 40
REMARK H PARENT 5 31 7 33 29 39 25 41
REMARK Flexibility Score:   43.900
ROOT
ATOM      1  C   UNL     1      -1.474  -1.020   0.618  1.00  0.00     0.001 C 
ATOM      2  C   UNL     1      -1.133  -1.157  -0.944  1.00  0.00    -0.025 C 
ATOM      3  C   UNL     1      -0.680  -2.613  -1.313  1.00  0.00     0.012 C 
ATOM      4  C   UNL     1      -2.405  -0.864  -1.815  1.00  0.00     0.008 C 
ATOM      5  C   UNL     1      -3.633  -1.494  -1.189  1.00  0.00     0.005 C 
ATOM      6  C   UNL     1      -4.069  -0.817   0.160  1.00  0.00     0.006 C 
ATOM      7  C   UNL     1      -5.378   0.126   0.061  1.00  0.00     0.020 C 
ATOM      8  C   UNL     1      -6.393  -0.388  -1.007  1.00  0.00     0.017 C 
ATOM      9  C   UNL     1      -4.952   1.574  -0.336  1.00  0.00     0.123 C 
ATOM     10  C   UNL     1      -3.893   2.155   0.630  1.00  0.00     0.033 C 
ATOM     11  C   UNL     1      -2.608   1.323   0.586  1.00  0.00     0.010 C 
ATOM     12  C   UNL     1      -2.811  -0.188   0.950  1.00  0.00    -0.026 C 
ATOM     13  C   UNL     1      -3.078  -0.279   2.484  1.00  0.00     0.012 C 
ENDROOT
BRANCH   2  14
ATOM     14  C   UNL     1      -0.009  -0.186  -1.388  1.00  0.00     0.038 C 
BRANCH  14  15
ATOM     15  C   UNL     1       1.443  -0.601  -1.101  1.00  0.00    -0.062 C 
ATOM     16  C   UNL     1       5.734   0.348  -0.372  1.00  0.00     0.004 C 
ATOM     17  C   UNL     1       5.420   1.763   0.263  1.00  0.00     0.149 C 
ATOM     18  C   UNL     1       4.416  -0.593  -0.498  1.00  0.00     0.075 C 
ATOM     19  C   UNL     1       3.976   2.172  -0.051  1.00  0.00     0.144 C 
ATOM     20  C   UNL     1       3.770  -0.623  -1.903  1.00  0.00     0.159 C 
ATOM     21  C   UNL     1       3.300  -0.284   0.610  1.00  0.00    -0.013 C 
ATOM     22  C   UNL     1       2.952   1.254   0.668  1.00  0.00     0.042 C 
ATOM     23  C   UNL     1       2.325  -0.433  -2.104  1.00  0.00     0.047 C 
ATOM     24  O   UNL     1       4.436  -0.871  -2.896  1.00  0.00    -0.295 OA
ATOM     25  C   UNL     1       2.012  -1.131   0.230  1.00  0.00     0.022 CG0
ATOM     26  C   UNL     1       6.856  -0.371   0.435  1.00  0.00     0.015 C 
ATOM     27  C   UNL     1       6.396   0.604  -1.759  1.00  0.00     0.015 C 
ATOM     28  C   UNL     1       3.845  -0.748   1.994  1.00  0.00     0.013 C 
ATOM     29  G   UNL     1       0.971  -1.483   1.344  1.00  0.00     0.000 G0
BRANCH  17  30
ATOM     30  O   UNL     1       5.612   1.774   1.657  1.00  0.00    -0.390 OA
ATOM     31  H   UNL     1       5.965   2.668   1.911  1.00  0.00     0.211 HD
ENDBRANCH  17  30
BRANCH  19  32
ATOM     32  O   UNL     1       3.737   3.522   0.260  1.00  0.00    -0.390 OA
ATOM     33  H   UNL     1       3.841   3.632   1.241  1.00  0.00     0.211 HD
ENDBRANCH  19  32
ENDBRANCH  14  15
ENDBRANCH   2  14
BRANCH   1  34
ATOM     34  C   UNL     1      -0.246  -0.589   1.507  1.00  0.00     0.005 C 
BRANCH  34  35
ATOM     35  C   UNL     1       0.971  -1.483   1.344  1.00  0.00     0.009 CG0
ATOM     36  G   UNL     1       2.012  -1.131   0.230  1.00  0.00     0.000 G0
ENDBRANCH  34  35
ENDBRANCH   1  34
BRANCH   7  37
ATOM     37  C   UNL     1      -6.221   0.149   1.389  1.00  0.00     0.165 C 
BRANCH  37  38
ATOM     38  O   UNL     1      -6.498  -1.149   1.851  1.00  0.00    -0.396 OA
ATOM     39  H   UNL     1      -7.391  -1.405   1.502  1.00  0.00     0.210 HD
ENDBRANCH  37  38
ENDBRANCH   7  37
BRANCH   9  40
ATOM     40  O   UNL     1      -6.063   2.435  -0.440  1.00  0.00    -0.392 OA
ATOM     41  H   UNL     1      -6.322   2.727   0.473  1.00  0.00     0.210 HD
ENDBRANCH   9  40
TORSDOF 5
