REMARK SMILES CN[C@@]1(C)C[C@@H](c2ccc3c(c2O)C(=O)c2c(cc([C@@](O)(C(=O)OC)[C@H]4C[C@H](OC)[C@H](O)[C@H](C)O4)c4c(=O)cc([C@@]5(C)O[C@@H]5C)oc24)C3=O)O[C@H](C)[C@@H]1O[C@H]1C[C@H](OC)[C@@H](O)[C@@H](C)O1
REMARK SMILES IDX 7 1 8 2 9 3 10 4 48 5 49 6 17 7 16 8 14 9 15 10 11 11 12 12
REMARK SMILES IDX 47 13 36 14 19 15 18 16 37 17 38 18 39 19 40 20 46 21 6 22
REMARK SMILES IDX 3 23 5 24 53 25 51 26 50 27 4 28 52 29 2 30 1 31 54 33 55 34
REMARK SMILES IDX 56 35 64 36 57 37 62 38 60 39 63 40 58 41 59 42 61 43 13 45
REMARK SMILES IDX 20 47 21 48 22 50 23 51 24 52 25 53 26 54 27 55 35 56 28 57
REMARK SMILES IDX 33 58 31 59 34 60 29 61 30 62 32 63 41 65 43 66 44 67 42 68
REMARK SMILES IDX 45 69
REMARK H PARENT 2 32 61 44 13 46 21 49 32 64
ROOT
ATOM      1  C   UNL     1       1.930   0.461   0.106  1.00  0.00     0.023 A 
ATOM      2  C   UNL     1       1.605   1.752   0.530  1.00  0.00     0.011 A 
ATOM      3  C   UNL     1       0.300   2.072   0.862  1.00  0.00     0.013 A 
ATOM      4  C   UNL     1      -0.727   1.120   0.758  1.00  0.00     0.037 A 
ATOM      5  C   UNL     1      -2.104   1.510   1.124  1.00  0.00     0.194 C 
ATOM      6  O   UNL     1      -2.319   2.643   1.537  1.00  0.00    -0.289 OA
ATOM      7  C   UNL     1      -3.226   0.554   0.978  1.00  0.00     0.038 A 
ATOM      8  C   UNL     1      -3.003  -0.737   0.498  1.00  0.00     0.077 A 
ATOM      9  C   UNL     1      -1.599  -1.153   0.172  1.00  0.00     0.202 C 
ATOM     10  O   UNL     1      -1.408  -2.289  -0.227  1.00  0.00    -0.288 OA
ATOM     11  C   UNL     1      -0.445  -0.192   0.306  1.00  0.00     0.076 A 
ATOM     12  C   UNL     1       0.915  -0.521  -0.006  1.00  0.00     0.133 A 
ATOM     13  C   UNL     1      -4.107  -1.610   0.334  1.00  0.00     0.150 A 
ATOM     14  C   UNL     1      -5.446  -1.194   0.653  1.00  0.00     0.072 A 
ATOM     15  C   UNL     1      -5.659   0.138   1.178  1.00  0.00     0.013 A 
ATOM     16  C   UNL     1      -4.516   0.956   1.317  1.00  0.00     0.021 A 
ATOM     17  C   UNL     1      -6.463  -2.170   0.434  1.00  0.00     0.193 A 
ATOM     18  O   UNL     1      -7.635  -1.952   0.657  1.00  0.00    -0.289 OA
ATOM     19  C   UNL     1      -6.141  -3.436  -0.045  1.00  0.00     0.098 A 
ATOM     20  C   UNL     1      -4.817  -3.751  -0.315  1.00  0.00     0.142 A 
ATOM     21  O   UNL     1      -3.875  -2.841  -0.127  1.00  0.00    -0.457 OA
ENDROOT
BRANCH   1  22
ATOM     22  C   UNL     1       3.365   0.104  -0.234  1.00  0.00     0.154 C 
ATOM     23  C   UNL     1       5.502  -0.981   0.623  1.00  0.00     0.047 C 
ATOM     24  C   UNL     1       3.988  -0.782   0.894  1.00  0.00     0.062 C 
ATOM     25  C   UNL     1       6.186   0.443   0.528  1.00  0.00     0.170 C 
ATOM     26  C   UNL     1       5.130   1.581   0.346  1.00  0.00     0.147 C 
ATOM     27  O   UNL     1       4.146   1.247  -0.610  1.00  0.00    -0.368 OA
ATOM     28  C   UNL     1       5.651  -1.749  -0.725  1.00  0.00     0.031 C 
ATOM     29  C   UNL     1       5.787   2.912  -0.031  1.00  0.00     0.041 C 
BRANCH  23  30
ATOM     30  N   UNL     1       6.142  -1.848   1.650  1.00  0.00    -0.312 NA
ATOM     31  C   UNL     1       6.147  -1.364   3.039  1.00  0.00     0.102 C 
ATOM     32  H   UNL     1       5.658  -2.778   1.654  1.00  0.00     0.123 HD
ENDBRANCH  23  30
BRANCH  25  33
ATOM     33  O   UNL     1       7.131   0.462  -0.539  1.00  0.00    -0.345 OA
BRANCH  33  34
ATOM     34  C   UNL     1       8.479   0.584  -0.116  1.00  0.00     0.253 C 
ATOM     35  C   UNL     1       9.301  -0.582  -0.717  1.00  0.00     0.097 C 
ATOM     36  O   UNL     1       8.976   1.832  -0.552  1.00  0.00    -0.347 OA
ATOM     37  C   UNL     1      10.824  -0.304  -0.682  1.00  0.00     0.154 C 
ATOM     38  C   UNL     1      10.304   2.104  -0.092  1.00  0.00     0.149 C 
ATOM     39  C   UNL     1      11.118   0.824   0.323  1.00  0.00     0.172 C 
ATOM     40  C   UNL     1      10.992   2.897  -1.212  1.00  0.00     0.041 C 
BRANCH  37  41
ATOM     41  O   UNL     1      11.515  -1.487  -0.313  1.00  0.00    -0.378 OA
ATOM     42  C   UNL     1      12.384  -1.907  -1.340  1.00  0.00     0.195 C 
ENDBRANCH  37  41
BRANCH  39  43
ATOM     43  O   UNL     1      12.492   1.093   0.469  1.00  0.00    -0.388 OA
ATOM     44  H   UNL     1      12.904   1.097  -0.433  1.00  0.00     0.211 HD
ENDBRANCH  39  43
ENDBRANCH  33  34
ENDBRANCH  25  33
ENDBRANCH   1  22
BRANCH  12  45
ATOM     45  O   UNL     1       1.306  -1.748  -0.431  1.00  0.00    -0.507 OA
ATOM     46  H   UNL     1       0.768  -2.534  -0.550  1.00  0.00     0.293 HD
ENDBRANCH  12  45
BRANCH  15  47
ATOM     47  C   UNL     1      -7.040   0.764   1.610  1.00  0.00     0.214 C 
BRANCH  47  48
ATOM     48  O   UNL     1      -7.796  -0.174   2.341  1.00  0.00    -0.372 OA
ATOM     49  H   UNL     1      -7.205  -0.576   3.033  1.00  0.00     0.212 HD
ENDBRANCH  47  48
BRANCH  47  50
ATOM     50  C   UNL     1      -6.900   1.986   2.551  1.00  0.00     0.345 C 
ATOM     51  O   UNL     1      -7.275   1.902   3.714  1.00  0.00    -0.248 OA
BRANCH  50  52
ATOM     52  O   UNL     1      -6.476   3.185   2.073  1.00  0.00    -0.467 OA
ATOM     53  C   UNL     1      -6.398   4.336   2.824  1.00  0.00     0.282 C 
ENDBRANCH  50  52
ENDBRANCH  47  50
BRANCH  47  54
ATOM     54  C   UNL     1      -7.885   1.269   0.379  1.00  0.00     0.169 C 
ATOM     55  C   UNL     1      -7.015   1.986  -0.693  1.00  0.00     0.071 C 
ATOM     56  O   UNL     1      -8.628   0.226  -0.237  1.00  0.00    -0.368 OA
ATOM     57  C   UNL     1      -7.920   2.625  -1.753  1.00  0.00     0.151 C 
ATOM     58  C   UNL     1      -9.568   0.724  -1.195  1.00  0.00     0.147 C 
ATOM     59  C   UNL     1      -8.842   1.522  -2.314  1.00  0.00     0.172 C 
ATOM     60  C   UNL     1     -10.767   1.444  -0.534  1.00  0.00     0.041 C 
BRANCH  57  61
ATOM     61  O   UNL     1      -8.681   3.669  -1.165  1.00  0.00    -0.379 OA
ATOM     62  C   UNL     1      -8.032   4.913  -1.336  1.00  0.00     0.195 C 
ENDBRANCH  57  61
BRANCH  59  63
ATOM     63  O   UNL     1      -9.733   2.013  -3.286  1.00  0.00    -0.388 OA
ATOM     64  H   UNL     1     -10.217   2.788  -2.898  1.00  0.00     0.211 HD
ENDBRANCH  59  63
ENDBRANCH  47  54
ENDBRANCH  15  47
BRANCH  20  65
ATOM     65  C   UNL     1      -4.456  -5.119  -0.815  1.00  0.00     0.149 C 
ATOM     66  O   UNL     1      -3.526  -5.753   0.044  1.00  0.00    -0.358 OA
ATOM     67  C   UNL     1      -4.844  -6.257   0.066  1.00  0.00     0.156 C 
ATOM     68  C   UNL     1      -4.026  -5.254  -2.280  1.00  0.00     0.054 C 
ATOM     69  C   UNL     1      -4.948  -7.679  -0.482  1.00  0.00     0.042 C 
ENDBRANCH  20  65
TORSDOF 15
