REMARK SMILES Cc1c2c(cc3c1C(=O)C=C1[C@@]3(C)CC[C@@]3(C)[C@H]4C[C@@H](C)C(=O)[C@@H](O)[C@]4(C)CC[C@]13C)O[C@]1(O)C(=O)C=C3C(=CC=C4[C@@]3(C)CC[C@@]3(C)[C@@H]5C[C@@H](C)C(=O)[C@@H](O)[C@]5(C)CC[C@]43C)[C@]1(C)O2
REMARK SMILES IDX 1 1 2 2 3 3 65 4 63 5 64 6 39 7 40 8 41 9 42 10 43 11 44 12
REMARK SMILES IDX 45 13 46 14 47 15 48 16 49 17 50 18 51 19 52 20 53 21 54 22
REMARK SMILES IDX 55 23 57 24 58 25 59 26 60 27 61 28 62 29 38 30 37 31 35 32
REMARK SMILES IDX 36 33 33 34 32 35 4 36 5 37 6 38 7 39 8 40 9 41 10 42 11 43
REMARK SMILES IDX 12 44 13 45 14 46 15 47 16 48 17 49 18 50 19 51 20 52 21 53
REMARK SMILES IDX 22 54 23 55 24 56 26 57 27 58 28 59 29 60 30 61 31 62 34 63
REMARK SMILES IDX 25 65 56 67
REMARK H PARENT 34 64 25 66 56 68
ROOT
ATOM      1  C   UNL     1      -0.886  -2.756  -2.018  1.00  0.00     0.049 C 
ATOM      2  C   UNL     1      -1.400  -1.667  -1.100  1.00  0.00     0.006 A 
ATOM      3  C   UNL     1      -0.600  -1.272  -0.016  1.00  0.00     0.166 A 
ATOM      4  O   UNL     1       0.579  -1.887   0.242  1.00  0.00    -0.471 OA
ATOM      5  C   UNL     1       1.333  -1.756   1.408  1.00  0.00     0.204 C 
ATOM      6  C   UNL     1       1.507  -3.188   1.981  1.00  0.00     0.070 C 
ATOM      7  C   UNL     1       2.749  -1.302   1.052  1.00  0.00     0.007 C 
ATOM      8  C   UNL     1       3.356  -1.859  -0.007  1.00  0.00     0.008 C 
ATOM      9  C   UNL     1       4.753  -1.598  -0.354  1.00  0.00     0.001 C 
ATOM     10  C   UNL     1       5.578  -0.827   0.394  1.00  0.00    -0.053 C 
ATOM     11  C   UNL     1       5.036  -0.148   1.691  1.00  0.00     0.015 C 
ATOM     12  C   UNL     1       5.741  -0.690   2.974  1.00  0.00     0.021 C 
ATOM     13  C   UNL     1       5.291   1.365   1.510  1.00  0.00     0.016 C 
ATOM     14  C   UNL     1       6.770   1.676   1.181  1.00  0.00     0.009 C 
ATOM     15  C   UNL     1       7.309   0.989  -0.131  1.00  0.00    -0.020 C 
ATOM     16  C   UNL     1       6.500   1.609  -1.324  1.00  0.00     0.012 C 
ATOM     17  C   UNL     1       8.868   1.293  -0.281  1.00  0.00     0.005 C 
ATOM     18  C   UNL     1       9.156   2.835  -0.417  1.00  0.00     0.016 C 
ATOM     19  C   UNL     1      10.640   3.185  -0.603  1.00  0.00     0.056 C 
ATOM     20  C   UNL     1      11.432   2.979   0.701  1.00  0.00     0.016 C 
ATOM     21  C   UNL     1      11.201   2.380  -1.753  1.00  0.00     0.164 C 
ATOM     22  O   UNL     1      12.365   2.540  -2.099  1.00  0.00    -0.296 OA
ATOM     23  C   UNL     1      10.315   1.347  -2.440  1.00  0.00     0.187 C 
ATOM     24  C   UNL     1       9.659   0.399  -1.365  1.00  0.00     0.004 C 
ATOM     25  C   UNL     1      10.857  -0.371  -0.694  1.00  0.00     0.015 C 
ATOM     26  C   UNL     1       8.727  -0.625  -2.120  1.00  0.00     0.011 C 
ATOM     27  C   UNL     1       7.435  -1.193  -1.446  1.00  0.00     0.012 C 
ATOM     28  C   UNL     1       7.064  -0.583  -0.052  1.00  0.00    -0.005 C 
ATOM     29  C   UNL     1       7.960  -1.357   0.956  1.00  0.00     0.017 C 
ATOM     30  C   UNL     1       3.527  -0.400   1.939  1.00  0.00    -0.027 C 
ATOM     31  C   UNL     1       2.924   0.149   3.019  1.00  0.00     0.059 C 
ATOM     32  C   UNL     1       1.513  -0.057   3.362  1.00  0.00     0.232 C 
ATOM     33  O   UNL     1       1.055   0.546   4.322  1.00  0.00    -0.287 OA
ATOM     34  C   UNL     1       0.587  -0.831   2.470  1.00  0.00     0.317 C 
ATOM     35  O   UNL     1      -0.202   0.109   1.830  1.00  0.00    -0.447 OA
ATOM     36  C   UNL     1      -1.010  -0.249   0.820  1.00  0.00     0.166 A 
ATOM     37  C   UNL     1      -2.234   0.372   0.643  1.00  0.00     0.056 A 
ATOM     38  C   UNL     1      -3.122  -0.048  -0.372  1.00  0.00    -0.023 A 
ATOM     39  C   UNL     1      -2.684  -1.059  -1.271  1.00  0.00     0.033 A 
ATOM     40  C   UNL     1      -3.607  -1.478  -2.346  1.00  0.00     0.186 C 
ATOM     41  O   UNL     1      -3.271  -2.270  -3.214  1.00  0.00    -0.289 OA
ATOM     42  C   UNL     1      -4.991  -1.037  -2.335  1.00  0.00     0.053 C 
ATOM     43  C   UNL     1      -5.487  -0.130  -1.461  1.00  0.00    -0.050 C 
ATOM     44  C   UNL     1      -4.541   0.580  -0.434  1.00  0.00     0.015 C 
ATOM     45  C   UNL     1      -4.345   2.079  -0.773  1.00  0.00     0.021 C 
ATOM     46  C   UNL     1      -5.179   0.436   0.983  1.00  0.00     0.016 C 
ATOM     47  C   UNL     1      -6.703   0.696   1.051  1.00  0.00     0.009 C 
ATOM     48  C   UNL     1      -7.521  -0.203   0.060  1.00  0.00    -0.020 C 
ATOM     49  C   UNL     1      -7.133  -1.704   0.398  1.00  0.00     0.012 C 
ATOM     50  C   UNL     1      -9.121  -0.157   0.309  1.00  0.00     0.005 C 
ATOM     51  C   UNL     1      -9.658   0.765   1.435  1.00  0.00     0.016 C 
ATOM     52  C   UNL     1     -11.136   0.432   1.803  1.00  0.00     0.056 C 
ATOM     53  C   UNL     1     -11.812   1.662   2.421  1.00  0.00     0.016 C 
ATOM     54  C   UNL     1     -11.989  -0.172   0.687  1.00  0.00     0.164 C 
ATOM     55  O   UNL     1     -13.129  -0.518   0.958  1.00  0.00    -0.296 OA
ATOM     56  C   UNL     1     -11.409  -0.612  -0.652  1.00  0.00     0.187 C 
ATOM     57  C   UNL     1     -10.018   0.027  -0.967  1.00  0.00     0.004 C 
ATOM     58  C   UNL     1     -10.326   1.535  -1.286  1.00  0.00     0.015 C 
ATOM     59  C   UNL     1      -9.412  -0.716  -2.213  1.00  0.00     0.011 C 
ATOM     60  C   UNL     1      -7.866  -0.772  -2.393  1.00  0.00     0.012 C 
ATOM     61  C   UNL     1      -7.036   0.140  -1.437  1.00  0.00    -0.005 C 
ATOM     62  C   UNL     1      -7.232   1.582  -1.982  1.00  0.00     0.017 C 
ENDROOT
BRANCH  34  63
ATOM     63  O   UNL     1      -0.257  -1.640   3.264  1.00  0.00    -0.347 OA
ATOM     64  H   UNL     1      -0.903  -1.052   3.739  1.00  0.00     0.215 HD
ENDBRANCH  34  63
BRANCH  56  65
ATOM     65  O   UNL     1     -12.321  -0.441  -1.713  1.00  0.00    -0.385 OA
ATOM     66  H   UNL     1     -12.775   0.432  -1.599  1.00  0.00     0.211 HD
ENDBRANCH  56  65
BRANCH  23  67
ATOM     67  O   UNL     1      10.993   0.639  -3.454  1.00  0.00    -0.385 OA
ATOM     68  H   UNL     1      11.861   0.320  -3.095  1.00  0.00     0.211 HD
ENDBRANCH  23  67
TORSDOF 3
