REMARK SMILES O[C@H]1[C@@H](O)[C@@H](O)[C@@H](O)[C@@H](O)[C@@H]1O
REMARK SMILES IDX 9 1 7 2 5 3 3 4 2 5 11 6 10 7 8 9 12 11 6 13 1 15 4 17
REMARK H PARENT 10 8 8 10 12 12 6 14 1 16 4 18
ROOT
ATOM      1  C   UNL     1      -0.081   1.512   0.057  1.00  0.00     0.177 C 
ATOM      2  C   UNL     1      -1.109   0.666   0.867  1.00  0.00     0.177 C 
ATOM      3  C   UNL     1      -1.223  -0.807   0.375  1.00  0.00     0.177 C 
ATOM      4  C   UNL     1       0.184  -1.469   0.310  1.00  0.00     0.177 C 
ATOM      5  C   UNL     1       1.206  -0.644  -0.524  1.00  0.00     0.177 C 
ATOM      6  C   UNL     1       1.305   0.814   0.008  1.00  0.00     0.177 C 
ENDROOT
BRANCH   1   7
ATOM      7  O   UNL     1      -0.530   1.731  -1.257  1.00  0.00    -0.387 OA
ATOM      8  H   UNL     1      -1.069   2.565  -1.252  1.00  0.00     0.211 HD
ENDBRANCH   1   7
BRANCH   2   9
ATOM      9  O   UNL     1      -2.367   1.292   0.924  1.00  0.00    -0.387 OA
ATOM     10  H   UNL     1      -2.740   1.311   0.005  1.00  0.00     0.211 HD
ENDBRANCH   2   9
BRANCH   6  11
ATOM     11  O   UNL     1       1.962   0.864   1.255  1.00  0.00    -0.387 OA
ATOM     12  H   UNL     1       1.415   0.413   1.942  1.00  0.00     0.211 HD
ENDBRANCH   6  11
BRANCH   3  13
ATOM     13  O   UNL     1      -1.933  -0.932  -0.835  1.00  0.00    -0.387 OA
ATOM     14  H   UNL     1      -1.502  -0.387  -1.533  1.00  0.00     0.211 HD
ENDBRANCH   3  13
BRANCH   5  15
ATOM     15  O   UNL     1       0.834  -0.642  -1.878  1.00  0.00    -0.387 OA
ATOM     16  H   UNL     1       1.625  -0.337  -2.395  1.00  0.00     0.211 HD
ENDBRANCH   5  15
BRANCH   4  17
ATOM     17  O   UNL     1       0.105  -2.800  -0.135  1.00  0.00    -0.387 OA
ATOM     18  H   UNL     1      -0.222  -2.791  -1.071  1.00  0.00     0.211 HD
ENDBRANCH   4  17
TORSDOF 6
