REMARK SMILES CCC[C@H]1CC[C@H]2[C@@H]3[C@H](O)CCC[C@](O)([C@](C)(O)[C@H]4CC[C@@]5(O)C6=C(NC[C@H](O)C7CCCCC7)C(=O)[C@@H]7C[C@@H](O)[C@@H](O)C[C@@]78C[C@@H](c7ccc(N)nc7CCCO)C=C[C@]68[C@H](O)C[C@]45CCO)[C@@H]3O[C@@H]2CC1
REMARK SMILES IDX 14 1 69 2 71 3 70 4 7 5 8 6 72 7 73 8 4 9 3 11 2 12 1 13
REMARK SMILES IDX 6 14 5 15 9 17 10 18 11 20 12 21 13 23 15 25 16 27 17 28
REMARK SMILES IDX 18 29 19 31 20 32 65 33 21 34 64 35 22 36 62 37 24 38 61 39
REMARK SMILES IDX 25 40 60 41 45 42 36 43 59 44 44 45 46 46 38 47 37 48 47 49
REMARK SMILES IDX 42 50 39 51 40 52 66 53 67 54 68 55 23 57 63 59 26 61 27 63
REMARK SMILES IDX 28 64 29 65 30 67 31 68 35 69 32 70 34 71 33 72 48 73 49 74
REMARK SMILES IDX 54 75 50 76 53 77 51 78 55 79 56 80 57 81 58 82 52 84 43 87
REMARK SMILES IDX 41 89
REMARK H PARENT 10 19 15 26 18 30 68 56 23 58 63 60 26 62 29 66 58 83 52 85
REMARK H PARENT 52 86 43 88 41 90
REMARK Flexibility Score:  263.800
ROOT
ATOM      1  C   UNL     1       3.850  -0.250   1.294  1.00  0.00     0.120 C 
ENDROOT
BRANCH   1   2
ATOM      2  C   UNL     1       5.315  -0.319   0.708  1.00  0.00     0.159 C 
ATOM      3  C   UNL     1       7.015  -1.305  -0.324  1.00  0.00     0.122 C 
ATOM      4  O   UNL     1       5.619  -1.423  -0.130  1.00  0.00    -0.371 OA
ATOM      5  C   UNL     1       7.611  -0.892   1.019  1.00  0.00     0.026 C 
ATOM      6  C   UNL     1       6.465  -0.202   1.746  1.00  0.00     0.055 C 
BRANCH   3   7
ATOM      7  C   UNL     1       7.675  -2.614  -0.870  1.00  0.00     0.032 C 
BRANCH   7   8
ATOM      8  C   UNL     1       9.135  -2.916  -0.376  1.00  0.00     0.006 C 
BRANCH   8   9
ATOM      9  C   UNL     1      10.248  -1.836  -0.516  1.00  0.00    -0.011 CG0
ATOM     10  G   UNL     1       9.767  -0.376  -0.386  1.00  0.00     0.000 G0
BRANCH   9  11
ATOM     11  C   UNL     1      11.117  -2.039  -1.783  1.00  0.00     0.003 C 
BRANCH  11  12
ATOM     12  C   UNL     1      10.367  -1.994  -3.122  1.00  0.00    -0.003 C 
ATOM     13  C   UNL     1      11.336  -2.239  -4.278  1.00  0.00     0.004 C 
ENDBRANCH  11  12
ENDBRANCH   9  11
ENDBRANCH   8   9
ENDBRANCH   7   8
ENDBRANCH   3   7
BRANCH   5  14
ATOM     14  C   UNL     1       8.892  -0.026   0.848  1.00  0.00     0.007 C 
BRANCH  14  15
ATOM     15  C   UNL     1       9.767  -0.376  -0.386  1.00  0.00     0.004 CG0
ATOM     16  G   UNL     1      10.248  -1.836  -0.516  1.00  0.00     0.000 G0
ENDBRANCH  14  15
ENDBRANCH   5  14
BRANCH   6  17
ATOM     17  C   UNL     1       6.206  -0.749   3.189  1.00  0.00     0.120 C 
BRANCH  17  18
ATOM     18  O   UNL     1       7.325  -0.535   4.014  1.00  0.00    -0.393 OA
ATOM     19  H   UNL     1       8.012  -1.213   3.783  1.00  0.00     0.210 HD
ENDBRANCH  17  18
BRANCH  17  20
ATOM     20  C   UNL     1       5.690  -2.195   3.348  1.00  0.00     0.032 C 
BRANCH  20  21
ATOM     21  C   UNL     1       4.572  -2.614   2.390  1.00  0.00     0.006 CG1
ATOM     22  G   UNL     1       3.454  -1.591   2.077  1.00  0.00     0.000 G1
ENDBRANCH  20  21
ENDBRANCH  17  20
ENDBRANCH   6  17
ENDBRANCH   1   2
BRANCH   1  23
ATOM     23  C   UNL     1       3.454  -1.591   2.077  1.00  0.00     0.041 CG1
ATOM     24  G   UNL     1       4.572  -2.614   2.390  1.00  0.00     0.000 G1
ENDBRANCH   1  23
BRANCH   1  25
ATOM     25  O   UNL     1       3.902   0.861   2.169  1.00  0.00    -0.384 OA
ATOM     26  H   UNL     1       3.506   0.644   3.049  1.00  0.00     0.211 HD
ENDBRANCH   1  25
BRANCH   1  27
ATOM     27  C   UNL     1       2.756   0.125   0.167  1.00  0.00     0.097 C 
ATOM     28  C   UNL     1       2.674  -0.982  -0.932  1.00  0.00     0.045 C 
BRANCH  27  29
ATOM     29  O   UNL     1       3.161   1.343  -0.427  1.00  0.00    -0.387 OA
ATOM     30  H   UNL     1       3.714   1.169  -1.233  1.00  0.00     0.211 HD
ENDBRANCH  27  29
BRANCH  27  31
ATOM     31  C   UNL     1       1.307   0.364   0.798  1.00  0.00     0.033 C 
ATOM     32  C   UNL     1       1.256   1.567   1.821  1.00  0.00     0.011 C 
ATOM     33  C   UNL     1      -0.010   0.640  -0.039  1.00  0.00     0.013 C 
ATOM     34  C   UNL     1      -0.165   2.179   1.760  1.00  0.00     0.041 C 
ATOM     35  C   UNL     1      -0.681  -0.474  -0.934  1.00  0.00     0.044 C 
ATOM     36  C   UNL     1      -0.986   1.016   1.203  1.00  0.00     0.095 C 
ATOM     37  C   UNL     1      -1.780  -1.335  -0.314  1.00  0.00     0.130 C 
ATOM     38  C   UNL     1      -2.444   0.970   0.672  1.00  0.00     0.002 C 
ATOM     39  C   UNL     1      -2.996  -0.513   0.407  1.00  0.00     0.047 C 
ATOM     40  C   UNL     1      -3.117   2.101   0.255  1.00  0.00     0.081 C 
ATOM     41  C   UNL     1      -3.246  -1.362   1.673  1.00  0.00    -0.016 C 
ATOM     42  C   UNL     1      -4.480  -0.495  -0.264  1.00  0.00    -0.001 C 
ATOM     43  C   UNL     1      -4.216   1.936  -0.742  1.00  0.00     0.182 C 
ATOM     44  C   UNL     1      -3.966  -2.511   1.646  1.00  0.00    -0.022 C 
ATOM     45  C   UNL     1      -5.660  -0.068   0.743  1.00  0.00     0.043 C 
ATOM     46  C   UNL     1      -4.746  -1.971  -0.757  1.00  0.00     0.021 C 
ATOM     47  C   UNL     1      -4.508   0.571  -1.382  1.00  0.00     0.073 C 
ATOM     48  O   UNL     1      -4.858   2.910  -1.099  1.00  0.00    -0.292 OA
ATOM     49  C   UNL     1      -4.795  -2.954   0.447  1.00  0.00     0.044 C 
ATOM     50  C   UNL     1      -7.069  -0.018   0.081  1.00  0.00     0.143 C 
ATOM     51  C   UNL     1      -5.883   0.591  -2.121  1.00  0.00     0.047 C 
ATOM     52  C   UNL     1      -7.053   0.913  -1.146  1.00  0.00     0.143 C 
BRANCH  33  53
ATOM     53  C   UNL     1       0.411   1.776  -1.099  1.00  0.00     0.039 C 
BRANCH  53  54
ATOM     54  C   UNL     1      -0.646   2.505  -1.950  1.00  0.00     0.156 C 
BRANCH  54  55
ATOM     55  O   UNL     1      -0.019   3.417  -2.813  1.00  0.00    -0.396 OA
ATOM     56  H   UNL     1       0.333   4.157  -2.253  1.00  0.00     0.210 HD
ENDBRANCH  54  55
ENDBRANCH  53  54
ENDBRANCH  33  53
BRANCH  36  57
ATOM     57  O   UNL     1      -0.941   0.057   2.235  1.00  0.00    -0.385 OA
ATOM     58  H   UNL     1      -1.359   0.458   3.045  1.00  0.00     0.211 HD
ENDBRANCH  36  57
BRANCH  37  59
ATOM     59  O   UNL     1      -1.193  -2.340   0.490  1.00  0.00    -0.392 OA
ATOM     60  H   UNL     1      -0.535  -1.945   1.104  1.00  0.00     0.211 HD
ENDBRANCH  37  59
BRANCH  40  61
ATOM     61  N   UNL     1      -2.746   3.415   0.748  1.00  0.00    -0.379 N 
ATOM     62  H   UNL     1      -2.184   3.463   1.595  1.00  0.00     0.160 HD
BRANCH  61  63
ATOM     63  C   UNL     1      -3.378   4.697   0.437  1.00  0.00     0.145 C 
BRANCH  63  64
ATOM     64  C   UNL     1      -2.896   5.297  -0.911  1.00  0.00     0.136 C 
BRANCH  64  65
ATOM     65  O   UNL     1      -1.491   5.387  -0.951  1.00  0.00    -0.391 OA
ATOM     66  H   UNL     1      -1.167   5.721  -0.074  1.00  0.00     0.211 HD
ENDBRANCH  64  65
BRANCH  64  67
ATOM     67  C   UNL     1      -3.501   6.686  -1.269  1.00  0.00     0.019 C 
ATOM     68  C   UNL     1      -5.047   6.669  -1.307  1.00  0.00     0.006 C 
ATOM     69  C   UNL     1      -3.014   7.820  -0.332  1.00  0.00     0.006 C 
ATOM     70  C   UNL     1      -5.593   8.034  -1.754  1.00  0.00     0.000 C 
ATOM     71  C   UNL     1      -3.567   9.175  -0.793  1.00  0.00     0.000 C 
ATOM     72  C   UNL     1      -5.099   9.145  -0.818  1.00  0.00     0.000 C 
ENDBRANCH  64  67
ENDBRANCH  63  64
ENDBRANCH  61  63
ENDBRANCH  40  61
BRANCH  49  73
ATOM     73  C   UNL     1      -4.572  -4.407   0.036  1.00  0.00    -0.019 A 
ATOM     74  C   UNL     1      -3.323  -4.792  -0.482  1.00  0.00     0.010 A 
ATOM     75  C   UNL     1      -5.590  -5.402   0.118  1.00  0.00     0.047 A 
ATOM     76  C   UNL     1      -3.093  -6.097  -0.907  1.00  0.00     0.047 A 
ATOM     77  N   UNL     1      -5.328  -6.664  -0.324  1.00  0.00    -0.236 NA
ATOM     78  C   UNL     1      -4.122  -7.034  -0.825  1.00  0.00     0.123 A 
BRANCH  75  79
ATOM     79  C   UNL     1      -6.978  -5.134   0.650  1.00  0.00     0.059 C 
BRANCH  79  80
ATOM     80  C   UNL     1      -6.989  -4.935   2.176  1.00  0.00     0.034 C 
BRANCH  80  81
ATOM     81  C   UNL     1      -8.401  -4.605   2.666  1.00  0.00     0.156 C 
BRANCH  81  82
ATOM     82  O   UNL     1      -8.403  -4.418   4.055  1.00  0.00    -0.396 OA
ATOM     83  H   UNL     1      -8.385  -5.323   4.463  1.00  0.00     0.210 HD
ENDBRANCH  81  82
ENDBRANCH  80  81
ENDBRANCH  79  80
ENDBRANCH  75  79
BRANCH  78  84
ATOM     84  N   UNL     1      -3.919  -8.364  -1.262  1.00  0.00    -0.384 N 
ATOM     85  H   UNL     1      -3.011  -8.661  -1.648  1.00  0.00     0.158 HD
ATOM     86  H   UNL     1      -4.684  -9.052  -1.202  1.00  0.00     0.158 HD
ENDBRANCH  78  84
ENDBRANCH  49  73
BRANCH  50  87
ATOM     87  O   UNL     1      -7.506  -1.305  -0.268  1.00  0.00    -0.390 OA
ATOM     88  H   UNL     1      -8.496  -1.278  -0.333  1.00  0.00     0.211 HD
ENDBRANCH  50  87
BRANCH  52  89
ATOM     89  O   UNL     1      -8.294   0.917  -1.808  1.00  0.00    -0.390 OA
ATOM     90  H   UNL     1      -8.363   0.077  -2.332  1.00  0.00     0.211 HD
ENDBRANCH  52  89
ENDBRANCH  27  31
ENDBRANCH   1  27
TORSDOF 25
