REMARK SMILES CC(C)=CCC[C@]12CO[C@](C)(CC[C@@H]1O)O2
REMARK SMILES IDX 6 1 5 2 4 3 2 4 1 5 3 6 7 7 8 8 14 9 16 10 9 11 13 12 10 13
REMARK SMILES IDX 12 14 11 15 15 16
REMARK H PARENT 15 17
ROOT
ATOM      1  C   UNL     1       0.426   0.685   0.628  1.00  0.00     0.045 C 
ENDROOT
BRANCH   1   2
ATOM      2  C   UNL     1       1.341   0.422  -0.579  1.00  0.00     0.030 C 
BRANCH   2   3
ATOM      3  C   UNL     1       2.696   1.043  -0.321  1.00  0.00    -0.028 C 
ATOM      4  C   UNL     1       3.866   0.367  -0.263  1.00  0.00    -0.080 C 
ATOM      5  C   UNL     1       3.943  -1.128  -0.462  1.00  0.00     0.039 C 
ATOM      6  C   UNL     1       5.128   1.141   0.022  1.00  0.00     0.039 C 
ENDBRANCH   2   3
ENDBRANCH   1   2
BRANCH   1   7
ATOM      7  C   UNL     1      -1.021   0.152   0.467  1.00  0.00     0.121 C 
ATOM      8  C   UNL     1      -1.879   0.703   1.587  1.00  0.00     0.202 C 
ATOM      9  C   UNL     1      -1.100  -1.436   0.381  1.00  0.00     0.149 C 
ATOM     10  O   UNL     1      -1.688   0.704  -0.639  1.00  0.00    -0.339 OA
ATOM     11  O   UNL     1      -3.181   0.551   1.129  1.00  0.00    -0.347 OA
ATOM     12  C   UNL     1      -2.130  -1.861  -0.697  1.00  0.00     0.040 C 
ATOM     13  C   UNL     1      -3.047   0.445  -0.280  1.00  0.00     0.166 C 
ATOM     14  C   UNL     1      -3.412  -1.012  -0.672  1.00  0.00     0.068 C 
ATOM     15  C   UNL     1      -3.981   1.464  -0.931  1.00  0.00     0.075 C 
BRANCH   9  16
ATOM     16  O   UNL     1      -1.339  -2.032   1.633  1.00  0.00    -0.390 OA
ATOM     17  H   UNL     1      -2.319  -2.032   1.794  1.00  0.00     0.211 HD
ENDBRANCH   9  16
ENDBRANCH   1   7
TORSDOF 4
