REMARK SMILES CC(=O)O[C@@H]1C[C@]2(C)OC(C)(C)[C@H]1C[C@@H]1[C@H]2CC[C@@H]1C
REMARK SMILES IDX 5 1 6 2 7 3 8 4 9 5 10 6 11 7 12 8 13 9 4 10 2 11 3 12 1 13
REMARK SMILES IDX 14 14 16 16 15 17 17 18 19 19 18 20 20 21
REMARK H PARENT
REMARK Flexibility Score:    4.900
ROOT
ATOM      1  C   UNL     1       1.522   0.779   0.279  1.00  0.00     0.185 C 
ATOM      2  C   UNL     1       1.066   0.047   1.568  1.00  0.00     0.081 C 
ATOM      3  C   UNL     1      -0.216  -0.829   1.367  1.00  0.00     0.073 C 
ATOM      4  C   UNL     1      -0.435  -1.620   2.674  1.00  0.00     0.043 C 
ATOM      5  O   UNL     1      -0.051  -1.809   0.342  1.00  0.00    -0.369 OA
ATOM      6  C   UNL     1       0.749  -1.445  -0.779  1.00  0.00     0.070 C 
ATOM      7  C   UNL     1       2.151  -2.094  -0.647  1.00  0.00     0.042 C 
ATOM      8  C   UNL     1       0.105  -2.118  -2.016  1.00  0.00     0.042 C 
ATOM      9  C   UNL     1       0.861   0.121  -0.960  1.00  0.00     0.062 C 
ENDROOT
BRANCH   1  10
ATOM     10  O   UNL     1       2.907   0.740   0.185  1.00  0.00    -0.462 OA
BRANCH  10  11
ATOM     11  C   UNL     1       3.726   1.829   0.182  1.00  0.00     0.302 C 
ATOM     12  O   UNL     1       3.278   2.961   0.312  1.00  0.00    -0.253 OA
ATOM     13  C   UNL     1       5.198   1.639   0.013  1.00  0.00     0.139 C 
ENDBRANCH  10  11
ENDBRANCH   1  10
BRANCH   9  14
ATOM     14  C   UNL     1      -0.519   0.796  -1.238  1.00  0.00     0.014 CG0
ATOM     15  G   UNL     1      -1.401   1.124   0.005  1.00  0.00     0.000 G0
ENDBRANCH   9  14
BRANCH   3  16
ATOM     16  C   UNL     1      -1.481   0.045   1.100  1.00  0.00     0.024 C 
ATOM     17  C   UNL     1      -1.401   1.124   0.005  1.00  0.00    -0.002 CG0
ATOM     18  C   UNL     1      -2.798  -0.661   0.787  1.00  0.00     0.007 C 
ATOM     19  C   UNL     1      -2.900   1.475  -0.323  1.00  0.00    -0.011 C 
ATOM     20  C   UNL     1      -3.713   0.546   0.593  1.00  0.00     0.004 C 
ATOM     21  C   UNL     1      -3.337   1.257  -1.785  1.00  0.00     0.008 C 
ATOM     22  G   UNL     1      -0.519   0.796  -1.238  1.00  0.00     0.000 G0
ENDBRANCH   3  16
TORSDOF 2
