REMARK SMILES CCOCC=CC1=CCCCC1
REMARK SMILES IDX 3 1 2 2 1 3 4 4 5 5 6 6 7 7 8 8 12 9 9 10 11 11 10 12
REMARK H PARENT
ROOT
ATOM      1  O   UNL     1       2.905  -0.464   0.031  1.00  0.00    -0.378 OA
ENDROOT
BRANCH   1   2
ATOM      2  C   UNL     1       4.296  -0.456   0.299  1.00  0.00     0.157 C 
ATOM      3  C   UNL     1       5.102   0.120  -0.868  1.00  0.00     0.035 C 
ENDBRANCH   1   2
BRANCH   1   4
ATOM      4  C   UNL     1       2.347   0.821   0.225  1.00  0.00     0.187 C 
BRANCH   4   5
ATOM      5  C   UNL     1       0.845   0.799   0.102  1.00  0.00     0.001 C 
ATOM      6  C   UNL     1       0.116  -0.316  -0.096  1.00  0.00     0.001 C 
BRANCH   6   7
ATOM      7  C   UNL     1      -1.370  -0.301  -0.236  1.00  0.00    -0.052 C 
ATOM      8  C   UNL     1      -2.023  -1.483  -0.344  1.00  0.00    -0.023 C 
ATOM      9  C   UNL     1      -2.133   1.018  -0.259  1.00  0.00     0.035 C 
ATOM     10  C   UNL     1      -3.529  -1.594  -0.424  1.00  0.00     0.027 C 
ATOM     11  C   UNL     1      -3.579   0.872  -0.758  1.00  0.00     0.005 C 
ATOM     12  C   UNL     1      -4.243  -0.289  -0.041  1.00  0.00     0.004 C 
ENDBRANCH   6   7
ENDBRANCH   4   5
ENDBRANCH   1   4
TORSDOF 4
