REMARK SMILES CC(=O)OC[C@H]1O[C@@H](Oc2ccc3c(c2O)O/C(=C\c2ccc(O)c(O)c2)C3=O)[C@H](OC(C)=O)[C@@H](O)[C@@H]1OC(C)=O
REMARK SMILES IDX 6 1 7 2 8 3 30 4 35 5 37 6 5 7 4 8 2 9 3 10 1 11 38 12 39 13
REMARK SMILES IDX 41 14 40 15 9 16 10 17 11 18 15 19 12 20 14 21 13 22 17 23
REMARK SMILES IDX 28 24 18 25 29 26 19 27 16 28 20 30 21 31 27 32 22 33 25 34
REMARK SMILES IDX 23 35 26 36 24 38 36 40 31 42 32 43 34 44 33 45
REMARK H PARENT 16 29 26 37 24 39 36 41
ROOT
ATOM      1  C   UNL     1      -3.675  -1.075   0.485  1.00  0.00     0.204 C 
ATOM      2  O   UNL     1      -2.336  -1.258   0.051  1.00  0.00    -0.329 OA
ATOM      3  C   UNL     1      -1.698   0.003  -0.074  1.00  0.00     0.352 C 
ATOM      4  C   UNL     1      -2.326   0.802  -1.227  1.00  0.00     0.277 C 
ATOM      5  C   UNL     1      -3.837   0.958  -0.963  1.00  0.00     0.205 C 
ATOM      6  C   UNL     1      -4.485  -0.408  -0.655  1.00  0.00     0.241 C 
ENDROOT
BRANCH   1   7
ATOM      7  C   UNL     1      -4.253  -2.439   0.907  1.00  0.00     0.269 C 
BRANCH   7   8
ATOM      8  O   UNL     1      -5.486  -2.301   1.525  1.00  0.00    -0.463 OA
BRANCH   8   9
ATOM      9  C   UNL     1      -5.674  -1.712   2.740  1.00  0.00     0.302 C 
ATOM     10  O   UNL     1      -4.722  -1.361   3.424  1.00  0.00    -0.253 OA
ATOM     11  C   UNL     1      -7.061  -1.499   3.253  1.00  0.00     0.139 C 
ENDBRANCH   8   9
ENDBRANCH   7   8
ENDBRANCH   1   7
BRANCH   6  12
ATOM     12  O   UNL     1      -5.801  -0.210  -0.268  1.00  0.00    -0.457 OA
BRANCH  12  13
ATOM     13  C   UNL     1      -6.893  -0.752  -0.870  1.00  0.00     0.303 C 
ATOM     14  O   UNL     1      -6.782  -1.510  -1.823  1.00  0.00    -0.253 OA
ATOM     15  C   UNL     1      -8.255  -0.429  -0.346  1.00  0.00     0.139 C 
ENDBRANCH  12  13
ENDBRANCH   6  12
BRANCH   3  16
ATOM     16  O   UNL     1      -0.355  -0.201  -0.345  1.00  0.00    -0.457 OA
BRANCH  16  17
ATOM     17  C   UNL     1       0.721   0.083   0.442  1.00  0.00     0.168 A 
ATOM     18  C   UNL     1       0.605   0.486   1.807  1.00  0.00     0.051 A 
ATOM     19  C   UNL     1       2.007  -0.056  -0.127  1.00  0.00     0.202 A 
ATOM     20  C   UNL     1       1.745   0.735   2.584  1.00  0.00     0.020 A 
ATOM     21  C   UNL     1       3.126   0.202   0.672  1.00  0.00     0.184 A 
ATOM     22  C   UNL     1       2.986   0.578   1.987  1.00  0.00     0.073 A 
ATOM     23  O   UNL     1       4.424   0.103   0.300  1.00  0.00    -0.448 OA
ATOM     24  C   UNL     1       4.321   0.711   2.510  1.00  0.00     0.232 C 
ATOM     25  C   UNL     1       5.194   0.364   1.389  1.00  0.00     0.176 C 
ATOM     26  O   UNL     1       4.646   1.004   3.650  1.00  0.00    -0.285 OA
ATOM     27  C   UNL     1       6.532   0.251   1.444  1.00  0.00     0.059 C 
BRANCH  19  28
ATOM     28  O   UNL     1       2.143  -0.447  -1.412  1.00  0.00    -0.502 OA
ATOM     29  H   UNL     1       3.010  -0.566  -1.825  1.00  0.00     0.293 HD
ENDBRANCH  19  28
BRANCH  27  30
ATOM     30  C   UNL     1       7.409  -0.114   0.298  1.00  0.00    -0.018 A 
ATOM     31  C   UNL     1       8.674  -0.653   0.576  1.00  0.00     0.012 A 
ATOM     32  C   UNL     1       7.030   0.071  -1.047  1.00  0.00     0.058 A 
ATOM     33  C   UNL     1       9.533  -1.025  -0.460  1.00  0.00     0.051 A 
ATOM     34  C   UNL     1       7.897  -0.279  -2.089  1.00  0.00     0.157 A 
ATOM     35  C   UNL     1       9.151  -0.841  -1.796  1.00  0.00     0.157 A 
BRANCH  34  36
ATOM     36  O   UNL     1       7.506  -0.062  -3.362  1.00  0.00    -0.504 OA
ATOM     37  H   UNL     1       8.068  -0.261  -4.124  1.00  0.00     0.293 HD
ENDBRANCH  34  36
BRANCH  35  38
ATOM     38  O   UNL     1       9.983  -1.197  -2.797  1.00  0.00    -0.504 OA
ATOM     39  H   UNL     1      10.848  -1.598  -2.631  1.00  0.00     0.293 HD
ENDBRANCH  35  38
ENDBRANCH  27  30
ENDBRANCH  16  17
ENDBRANCH   3  16
BRANCH   5  40
ATOM     40  O   UNL     1      -4.478   1.601  -2.035  1.00  0.00    -0.385 OA
ATOM     41  H   UNL     1      -4.379   1.019  -2.833  1.00  0.00     0.211 HD
ENDBRANCH   5  40
BRANCH   4  42
ATOM     42  O   UNL     1      -1.737   2.054  -1.264  1.00  0.00    -0.453 OA
BRANCH  42  43
ATOM     43  C   UNL     1      -1.013   2.580  -2.285  1.00  0.00     0.303 C 
ATOM     44  O   UNL     1      -0.852   1.967  -3.329  1.00  0.00    -0.253 OA
ATOM     45  C   UNL     1      -0.390   3.925  -2.106  1.00  0.00     0.139 C 
ENDBRANCH  42  43
ENDBRANCH   4  42
TORSDOF 14
