REMARK SMILES CC(=O)Oc1c(C(C)C)cc2c(c1OC(C)=O)C[C@@]1(O)CCCC(C)(C)[C@@H]1CC2
REMARK SMILES IDX 29 1 11 2 5 3 6 4 13 5 10 6 12 7 4 8 2 9 3 10 1 11 7 12 8 13
REMARK SMILES IDX 9 14 14 15 15 16 17 17 16 18 18 19 28 21 27 22 24 23 19 24
REMARK SMILES IDX 23 25 21 26 22 27 25 28 26 29 20 31
REMARK H PARENT 20 32
REMARK Flexibility Score:   23.900
ROOT
ATOM      1  C   UNL     1      -0.798  -2.060   1.063  1.00  0.00     0.036 C 
ENDROOT
BRANCH   1   2
ATOM      2  C   UNL     1       0.385  -1.280   0.568  1.00  0.00    -0.040 A 
ATOM      3  C   UNL     1       2.780   0.019  -0.187  1.00  0.00     0.177 A 
ATOM      4  C   UNL     1       2.731  -1.385  -0.148  1.00  0.00     0.002 A 
ATOM      5  C   UNL     1       1.613   0.774   0.098  1.00  0.00     0.177 A 
ATOM      6  C   UNL     1       1.534  -2.013   0.222  1.00  0.00     0.012 A 
ATOM      7  C   UNL     1       0.413   0.136   0.507  1.00  0.00     0.005 A 
BRANCH   3   8
ATOM      8  O   UNL     1       3.968   0.616  -0.476  1.00  0.00    -0.422 OA
BRANCH   8   9
ATOM      9  C   UNL     1       4.529   1.639   0.227  1.00  0.00     0.308 C 
ATOM     10  O   UNL     1       4.022   2.047   1.262  1.00  0.00    -0.252 OA
ATOM     11  C   UNL     1       5.822   2.226  -0.239  1.00  0.00     0.139 C 
ENDBRANCH   8   9
ENDBRANCH   3   8
BRANCH   4  12
ATOM     12  C   UNL     1       3.969  -2.223  -0.465  1.00  0.00     0.017 C 
ATOM     13  C   UNL     1       3.729  -3.119  -1.686  1.00  0.00     0.012 C 
ATOM     14  C   UNL     1       4.394  -3.057   0.751  1.00  0.00     0.012 C 
ENDBRANCH   4  12
BRANCH   5  15
ATOM     15  O   UNL     1       1.603   2.129  -0.029  1.00  0.00    -0.422 OA
BRANCH  15  16
ATOM     16  C   UNL     1       2.007   2.807  -1.140  1.00  0.00     0.308 C 
ATOM     17  O   UNL     1       2.337   2.213  -2.155  1.00  0.00    -0.252 OA
ATOM     18  C   UNL     1       1.984   4.300  -1.143  1.00  0.00     0.139 C 
ENDBRANCH  15  16
ENDBRANCH   5  15
BRANCH   7  19
ATOM     19  C   UNL     1      -0.757   1.078   0.813  1.00  0.00     0.075 CG0
ATOM     20  G   UNL     1      -2.208   0.589   1.161  1.00  0.00     0.000 G0
ENDBRANCH   7  19
ENDBRANCH   1   2
BRANCH   1  21
ATOM     21  C   UNL     1      -2.114  -1.899   0.291  1.00  0.00     0.012 C 
BRANCH  21  22
ATOM     22  C   UNL     1      -2.653  -0.454   0.055  1.00  0.00     0.027 C 
ATOM     23  C   UNL     1      -4.201  -0.411  -0.242  1.00  0.00    -0.030 C 
ATOM     24  C   UNL     1      -2.208   0.589   1.161  1.00  0.00     0.072 CG0
ATOM     25  C   UNL     1      -4.607   1.042  -0.694  1.00  0.00     0.007 C 
ATOM     26  C   UNL     1      -3.143   1.855   1.185  1.00  0.00     0.036 C 
ATOM     27  C   UNL     1      -3.677   2.171  -0.203  1.00  0.00     0.004 C 
ATOM     28  C   UNL     1      -5.033  -0.838   1.007  1.00  0.00     0.011 C 
ATOM     29  C   UNL     1      -4.593  -1.377  -1.385  1.00  0.00     0.011 C 
ATOM     30  G   UNL     1      -0.757   1.078   0.813  1.00  0.00     0.000 G0
BRANCH  24  31
ATOM     31  O   UNL     1      -2.262   0.018   2.446  1.00  0.00    -0.389 OA
ATOM     32  H   UNL     1      -1.878   0.670   3.089  1.00  0.00     0.211 HD
ENDBRANCH  24  31
ENDBRANCH  21  22
ENDBRANCH   1  21
TORSDOF 6
