REMARK SMILES C=C1/C=C/[C@H](C(C)C)CCC(=C)[C@@H](O)CC1
REMARK SMILES IDX 9 1 5 2 4 3 3 4 2 5 1 6 16 7 6 9 7 10 8 11 10 12 11 13 12 14
REMARK SMILES IDX 13 15 14 16 15 18
REMARK H PARENT 14 17
REMARK Flexibility Score:   28.900
ROOT
ATOM      1  C   UNL     1      -1.170  -1.558  -0.334  1.00  0.00     0.012 C 
ENDROOT
BRANCH   1   2
ATOM      2  C   UNL     1      -1.749  -0.119  -0.282  1.00  0.00     0.014 C 
BRANCH   2   3
ATOM      3  C   UNL     1      -0.594   0.793  -0.035  1.00  0.00    -0.023 C 
ATOM      4  C   UNL     1      -0.087   1.507  -1.048  1.00  0.00    -0.001 C 
BRANCH   4   5
ATOM      5  C   UNL     1       1.234   2.140  -0.961  1.00  0.00    -0.055 C 
ATOM      6  C   UNL     1       1.597   3.016  -1.913  1.00  0.00     0.012 C 
BRANCH   5   7
ATOM      7  C   UNL     1       2.199   1.772   0.147  1.00  0.00     0.038 CG0
ATOM      8  G   UNL     1       2.819   0.338   0.083  1.00  0.00     0.000 G0
ENDBRANCH   5   7
ENDBRANCH   4   5
ENDBRANCH   2   3
BRANCH   2   9
ATOM      9  C   UNL     1      -2.928   0.064   0.718  1.00  0.00    -0.010 C 
ATOM     10  C   UNL     1      -3.496   1.489   0.627  1.00  0.00     0.008 C 
ATOM     11  C   UNL     1      -2.556  -0.249   2.179  1.00  0.00     0.008 C 
ENDBRANCH   2   9
ENDBRANCH   1   2
BRANCH   1  12
ATOM     12  C   UNL     1       0.067  -1.674  -1.283  1.00  0.00     0.034 C 
BRANCH  12  13
ATOM     13  C   UNL     1       1.415  -1.900  -0.565  1.00  0.00    -0.049 C 
ATOM     14  C   UNL     1       2.040  -3.061  -0.887  1.00  0.00     0.010 C 
BRANCH  13  15
ATOM     15  C   UNL     1       2.060  -0.979   0.526  1.00  0.00     0.140 C 
BRANCH  15  16
ATOM     16  O   UNL     1       2.967  -1.755   1.285  1.00  0.00    -0.389 OA
ATOM     17  H   UNL     1       3.838  -1.794   0.808  1.00  0.00     0.211 HD
ENDBRANCH  15  16
BRANCH  15  18
ATOM     18  C   UNL     1       2.819   0.338   0.083  1.00  0.00     0.041 CG0
ATOM     19  G   UNL     1       2.199   1.772   0.147  1.00  0.00     0.000 G0
ENDBRANCH  15  18
ENDBRANCH  13  15
ENDBRANCH  12  13
ENDBRANCH   1  12
TORSDOF 2
