REMARK SMILES COCCNC(=S)N[C@H]1C[C@H]2C(=O)NC[C@@H](CCC(=O)N3CCCC3)N2C1
REMARK SMILES IDX 5 1 6 2 7 3 8 4 4 7 3 8 2 9 1 10 9 11 10 12 27 13 11 14
REMARK SMILES IDX 26 15 12 16 16 17 13 18 14 19 15 20 17 22 18 23 19 24 20 25
REMARK SMILES IDX 21 26 22 27 25 28 23 29 24 30
REMARK H PARENT 5 5 8 6 14 21
ROOT
ATOM      1  N   UNL     1       3.555   0.204   2.359  1.00  0.00    -0.360 N 
ATOM      2  C   UNL     1       3.261   0.924   1.154  1.00  0.00     0.166 C 
ATOM      3  S   UNL     1       4.335   1.448   0.334  1.00  0.00    -0.041 S 
ATOM      4  N   UNL     1       1.889   1.091   0.760  1.00  0.00    -0.359 N 
ATOM      5  H   UNL     1       2.765  -0.171   2.908  1.00  0.00     0.162 HD
ATOM      6  H   UNL     1       1.153   0.798   1.419  1.00  0.00     0.163 HD
ENDROOT
BRANCH   1   7
ATOM      7  C   UNL     1       4.915  -0.064   2.803  1.00  0.00     0.143 C 
BRANCH   7   8
ATOM      8  C   UNL     1       4.945  -0.931   4.068  1.00  0.00     0.181 C 
BRANCH   8   9
ATOM      9  O   UNL     1       6.268  -1.113   4.542  1.00  0.00    -0.383 OA
ATOM     10  C   UNL     1       6.965  -2.060   3.757  1.00  0.00     0.194 C 
ENDBRANCH   8   9
ENDBRANCH   7   8
ENDBRANCH   1   7
BRANCH   4  11
ATOM     11  C   UNL     1       1.491   1.605  -0.545  1.00  0.00     0.097 C 
ATOM     12  C   UNL     1       1.929   0.687  -1.700  1.00  0.00     0.055 C 
ATOM     13  C   UNL     1      -0.011   1.759  -0.750  1.00  0.00     0.110 C 
ATOM     14  C   UNL     1       0.696   0.633  -2.611  1.00  0.00     0.149 C 
ATOM     15  N   UNL     1      -0.116   1.803  -2.218  1.00  0.00    -0.285 NA
ATOM     16  C   UNL     1      -0.174  -0.615  -2.404  1.00  0.00     0.237 C 
ATOM     17  C   UNL     1      -1.466   1.865  -2.880  1.00  0.00     0.077 C 
ATOM     18  O   UNL     1       0.191  -1.558  -1.717  1.00  0.00    -0.273 OA
ATOM     19  N   UNL     1      -1.425  -0.590  -2.922  1.00  0.00    -0.353 N 
ATOM     20  C   UNL     1      -1.807   0.576  -3.681  1.00  0.00     0.135 C 
ATOM     21  H   UNL     1      -2.088  -1.362  -2.760  1.00  0.00     0.163 HD
BRANCH  17  22
ATOM     22  C   UNL     1      -2.636   2.458  -2.034  1.00  0.00     0.031 C 
BRANCH  22  23
ATOM     23  C   UNL     1      -3.259   1.693  -0.844  1.00  0.00     0.102 C 
BRANCH  23  24
ATOM     24  C   UNL     1      -3.971   0.402  -1.191  1.00  0.00     0.222 C 
ATOM     25  O   UNL     1      -4.583   0.328  -2.248  1.00  0.00    -0.275 OA
ATOM     26  N   UNL     1      -4.032  -0.640  -0.309  1.00  0.00    -0.343 N 
ATOM     27  C   UNL     1      -3.474  -0.628   1.028  1.00  0.00     0.119 C 
ATOM     28  C   UNL     1      -4.736  -1.877  -0.579  1.00  0.00     0.119 C 
ATOM     29  C   UNL     1      -4.168  -1.806   1.707  1.00  0.00     0.023 C 
ATOM     30  C   UNL     1      -4.295  -2.788   0.564  1.00  0.00     0.023 C 
ENDBRANCH  23  24
ENDBRANCH  22  23
ENDBRANCH  17  22
ENDBRANCH   4  11
TORSDOF 7
