REMARK SMILES CC(C)=CCC[C@](C)(O)[C@@H]1CC=C(C)CC1
REMARK SMILES IDX 6 1 5 2 4 3 2 4 1 5 3 6 7 7 8 8 9 9 10 11 11 12 16 13 12 14
REMARK SMILES IDX 15 15 13 16 14 17
REMARK H PARENT 9 10
ROOT
ATOM      1  C   UNL     1       0.363  -0.348   0.845  1.00  0.00     0.039 C 
ENDROOT
BRANCH   1   2
ATOM      2  C   UNL     1       1.767  -0.946   1.086  1.00  0.00     0.030 C 
BRANCH   2   3
ATOM      3  C   UNL     1       2.864  -0.342   0.233  1.00  0.00    -0.028 C 
ATOM      4  C   UNL     1       3.471  -0.963  -0.806  1.00  0.00    -0.080 C 
ATOM      5  C   UNL     1       4.555  -0.222  -1.546  1.00  0.00     0.039 C 
ATOM      6  C   UNL     1       3.087  -2.352  -1.257  1.00  0.00     0.039 C 
ENDBRANCH   2   3
ENDBRANCH   1   2
BRANCH   1   7
ATOM      7  C   UNL     1       0.013   1.098   1.353  1.00  0.00     0.065 C 
ATOM      8  C   UNL     1       0.855   2.216   0.692  1.00  0.00     0.042 C 
BRANCH   7   9
ATOM      9  O   UNL     1       0.202   1.155   2.749  1.00  0.00    -0.390 OA
ATOM     10  H   UNL     1       1.174   1.091   2.938  1.00  0.00     0.211 HD
ENDBRANCH   7   9
BRANCH   7  11
ATOM     11  C   UNL     1      -1.508   1.425   1.085  1.00  0.00     0.025 C 
ATOM     12  C   UNL     1      -2.505   0.475   1.827  1.00  0.00     0.034 C 
ATOM     13  C   UNL     1      -1.871   1.569  -0.444  1.00  0.00     0.011 C 
ATOM     14  C   UNL     1      -2.901  -0.686   0.958  1.00  0.00    -0.028 C 
ATOM     15  C   UNL     1      -3.279   1.033  -0.757  1.00  0.00     0.031 C 
ATOM     16  C   UNL     1      -3.299  -0.417  -0.302  1.00  0.00    -0.077 C 
ATOM     17  C   UNL     1      -3.675  -1.515  -1.256  1.00  0.00     0.039 C 
ENDBRANCH   7  11
ENDBRANCH   1   7
TORSDOF 5
