REMARK SMILES COc1c(CCCCCCCCCCC[C@@H](C)O)[nH]c2ccccc2c1=O
REMARK SMILES IDX 10 1 9 2 8 3 7 4 6 5 5 6 4 7 3 8 26 9 19 10 25 11 27 12
REMARK SMILES IDX 20 13 24 14 21 15 23 16 22 17 2 19 1 20 11 21 12 22 13 23
REMARK SMILES IDX 14 24 15 25 16 26 17 27 18 28
REMARK H PARENT 19 18 18 29
ROOT
ATOM      1  C   UNL     1       2.536   0.598   0.890  1.00  0.00     0.000 C 
ENDROOT
BRANCH   1   2
ATOM      2  C   UNL     1       1.713   1.073   2.103  1.00  0.00     0.000 C 
BRANCH   2   3
ATOM      3  C   UNL     1       0.229   1.354   1.816  1.00  0.00     0.000 C 
BRANCH   3   4
ATOM      4  C   UNL     1      -0.524   0.114   1.313  1.00  0.00     0.000 C 
BRANCH   4   5
ATOM      5  C   UNL     1      -1.981   0.463   1.018  1.00  0.00     0.006 C 
BRANCH   5   6
ATOM      6  C   UNL     1      -2.777  -0.786   0.622  1.00  0.00     0.058 C 
BRANCH   6   7
ATOM      7  C   UNL     1      -4.204  -0.409   0.314  1.00  0.00     0.062 A 
ATOM      8  C   UNL     1      -4.521   0.300  -0.859  1.00  0.00     0.186 A 
ATOM      9  C   UNL     1      -5.855   0.662  -1.108  1.00  0.00     0.231 A 
ATOM     10  N   UNL     1      -5.192  -0.759   1.187  1.00  0.00    -0.355 N 
ATOM     11  C   UNL     1      -6.857   0.312  -0.183  1.00  0.00     0.049 A 
ATOM     12  O   UNL     1      -6.134   1.287  -2.118  1.00  0.00    -0.285 OA
ATOM     13  C   UNL     1      -6.494  -0.414   0.975  1.00  0.00     0.050 A 
ATOM     14  C   UNL     1      -8.206   0.672  -0.376  1.00  0.00     0.014 A 
ATOM     15  C   UNL     1      -7.477  -0.767   1.913  1.00  0.00     0.027 A 
ATOM     16  C   UNL     1      -9.172   0.314   0.569  1.00  0.00     0.001 A 
ATOM     17  C   UNL     1      -8.808  -0.403   1.710  1.00  0.00     0.002 A 
ATOM     18  H   UNL     1      -4.942  -1.289   2.053  1.00  0.00     0.166 HD
BRANCH   8  19
ATOM     19  O   UNL     1      -3.539   0.626  -1.733  1.00  0.00    -0.491 OA
ATOM     20  C   UNL     1      -3.370  -0.035  -2.932  1.00  0.00     0.278 C 
ENDBRANCH   8  19
ENDBRANCH   6   7
ENDBRANCH   5   6
ENDBRANCH   4   5
ENDBRANCH   3   4
ENDBRANCH   2   3
ENDBRANCH   1   2
BRANCH   1  21
ATOM     21  C   UNL     1       2.576   1.624  -0.260  1.00  0.00     0.000 C 
BRANCH  21  22
ATOM     22  C   UNL     1       3.226   1.147  -1.579  1.00  0.00     0.000 C 
BRANCH  22  23
ATOM     23  C   UNL     1       4.757   0.963  -1.630  1.00  0.00     0.000 C 
BRANCH  23  24
ATOM     24  C   UNL     1       5.287  -0.256  -0.867  1.00  0.00     0.003 C 
BRANCH  24  25
ATOM     25  C   UNL     1       6.785  -0.471  -1.109  1.00  0.00     0.031 C 
BRANCH  25  26
ATOM     26  C   UNL     1       7.298  -1.689  -0.311  1.00  0.00     0.111 C 
ATOM     27  C   UNL     1       8.781  -1.951  -0.576  1.00  0.00     0.038 C 
BRANCH  26  28
ATOM     28  O   UNL     1       7.079  -1.523   1.069  1.00  0.00    -0.393 OA
ATOM     29  H   UNL     1       7.540  -0.688   1.349  1.00  0.00     0.210 HD
ENDBRANCH  26  28
ENDBRANCH  25  26
ENDBRANCH  24  25
ENDBRANCH  23  24
ENDBRANCH  22  23
ENDBRANCH  21  22
ENDBRANCH   1  21
TORSDOF 14
