REMARK SMILES CC(=O)O[C@H]1[C@H](O[C@@H]2O[C@H](CO)[C@H](O)[C@H](O)[C@H]2O)[C@H](O[C@@H]2O[C@H](C)[C@H](O[C@@H]3OC[C@@H](O)[C@@H](O)[C@H]3O[C@H]3OC[C@@H](O)[C@@H](O)[C@H]3O[C@H]3OC[C@H](O)[C@@H](O)[C@H]3O)[C@@H](O)[C@H]2O)[C@@H](OC(=O)[C@]23CCC(C)(C)C[C@@H]2C2=CC[C@H]4[C@@]5(C)CC[C@H](O[C@@H]6O[C@H](C(=O)O)[C@H](O)[C@@H](O)[C@@H]6O[C@@H]6O[C@@H](CO)[C@H](O)[C@H](O)[C@@H]6O)[C@@](C)(C=O)C5=CC[C@@]4(C)[C@]2(C)C[C@H]3O)O[C@@H]1C
REMARK SMILES IDX 5 1 118 2 119 3 117 4 58 5 19 6 6 7 4 8 2 9 3 10 1 11 7 12
REMARK SMILES IDX 8 13 9 14 17 15 10 16 15 17 13 18 18 19 11 21 12 22 16 24
REMARK SMILES IDX 14 26 20 28 21 29 22 30 56 31 23 32 54 33 25 34 24 35 57 36
REMARK SMILES IDX 55 38 26 40 27 41 28 42 34 43 29 44 32 45 30 46 35 47 36 48
REMARK SMILES IDX 37 49 43 50 38 51 41 52 39 53 44 54 45 55 46 56 52 57 47 58
REMARK SMILES IDX 50 59 48 60 53 61 51 63 49 65 42 67 40 69 33 71 31 73 59 75
REMARK SMILES IDX 60 76 61 77 62 78 63 79 69 80 115 81 64 82 68 83 70 84
REMARK SMILES IDX 114 85 65 86 71 87 112 88 72 89 110 90 73 91 109 92 74 93
REMARK SMILES IDX 108 94 76 95 107 96 77 97 103 98 78 99 66 100 67 101 113 102
REMARK SMILES IDX 111 103 75 104 104 105 116 106 105 108 106 109 79 110 80 111
REMARK SMILES IDX 81 112 90 113 82 114 88 115 86 116 91 117 92 118 93 119
REMARK SMILES IDX 101 120 94 121 99 122 97 123 102 124 95 126 96 127 100 129
REMARK SMILES IDX 98 131 83 133 84 134 85 135 89 137 87 139
REMARK H PARENT 18 20 12 23 16 25 14 27 57 37 55 39 53 62 51 64 49 66 42 68
REMARK H PARENT 40 70 33 72 31 74 116 107 102 125 96 128 100 130 98 132 85 136
REMARK H PARENT 89 138 87 140
ROOT
ATOM      1  C   UNL     1      -1.283  -5.061  -0.517  1.00  0.00     0.237 C 
ATOM      2  C   UNL     1      -1.299  -5.132  -2.052  1.00  0.00     0.163 C 
ATOM      3  C   UNL     1      -1.605  -6.551  -2.538  1.00  0.00     0.043 C 
ATOM      4  O   UNL     1      -2.218  -4.223  -2.635  1.00  0.00    -0.333 OA
ATOM      5  C   UNL     1      -1.796  -2.888  -2.386  1.00  0.00     0.343 C 
ATOM      6  C   UNL     1      -1.998  -2.576  -0.892  1.00  0.00     0.223 C 
ATOM      7  C   UNL     1      -1.274  -3.604   0.010  1.00  0.00     0.200 C 
ENDROOT
BRANCH   1   8
ATOM      8  O   UNL     1      -0.081  -5.631  -0.116  1.00  0.00    -0.457 OA
BRANCH   8   9
ATOM      9  C   UNL     1       0.183  -6.727   0.622  1.00  0.00     0.303 C 
ATOM     10  O   UNL     1      -0.711  -7.411   1.089  1.00  0.00    -0.253 OA
ATOM     11  C   UNL     1       1.627  -7.088   0.826  1.00  0.00     0.139 C 
ENDBRANCH   8   9
ENDBRANCH   1   8
BRANCH   7  12
ATOM     12  O   UNL     1      -1.942  -3.617   1.259  1.00  0.00    -0.340 OA
BRANCH  12  13
ATOM     13  C   UNL     1      -1.190  -3.220   2.374  1.00  0.00     0.282 C 
ATOM     14  O   UNL     1      -0.620  -4.380   3.005  1.00  0.00    -0.341 OA
ATOM     15  C   UNL     1      -2.122  -2.409   3.304  1.00  0.00     0.202 C 
ATOM     16  C   UNL     1      -1.304  -4.849   4.178  1.00  0.00     0.178 C 
ATOM     17  C   UNL     1      -3.303  -3.318   3.800  1.00  0.00     0.179 C 
ATOM     18  C   UNL     1      -2.853  -4.786   4.027  1.00  0.00     0.177 C 
BRANCH  15  19
ATOM     19  O   UNL     1      -1.316  -1.921   4.357  1.00  0.00    -0.385 OA
ATOM     20  H   UNL     1      -1.788  -1.995   5.225  1.00  0.00     0.211 HD
ENDBRANCH  15  19
BRANCH  16  21
ATOM     21  C   UNL     1      -0.837  -6.280   4.490  1.00  0.00     0.191 C 
BRANCH  21  22
ATOM     22  O   UNL     1      -1.461  -6.779   5.644  1.00  0.00    -0.394 OA
ATOM     23  H   UNL     1      -1.114  -6.252   6.410  1.00  0.00     0.210 HD
ENDBRANCH  21  22
ENDBRANCH  16  21
BRANCH  17  24
ATOM     24  O   UNL     1      -4.440  -3.255   2.968  1.00  0.00    -0.387 OA
ATOM     25  H   UNL     1      -4.176  -3.484   2.043  1.00  0.00     0.211 HD
ENDBRANCH  17  24
BRANCH  18  26
ATOM     26  O   UNL     1      -3.319  -5.639   3.002  1.00  0.00    -0.387 OA
ATOM     27  H   UNL     1      -2.651  -5.692   2.275  1.00  0.00     0.211 HD
ENDBRANCH  18  26
ENDBRANCH  12  13
ENDBRANCH   7  12
BRANCH   6  28
ATOM     28  O   UNL     1      -3.401  -2.544  -0.622  1.00  0.00    -0.337 OA
BRANCH  28  29
ATOM     29  C   UNL     1      -3.887  -1.198  -0.602  1.00  0.00     0.282 C 
ATOM     30  O   UNL     1      -3.909  -0.734   0.752  1.00  0.00    -0.344 OA
ATOM     31  C   UNL     1      -5.298  -1.121  -1.268  1.00  0.00     0.202 C 
ATOM     32  C   UNL     1      -4.396   0.601   0.793  1.00  0.00     0.150 C 
ATOM     33  C   UNL     1      -6.344  -0.663  -0.230  1.00  0.00     0.180 C 
ATOM     34  C   UNL     1      -5.923   0.652   0.472  1.00  0.00     0.181 C 
ATOM     35  C   UNL     1      -4.031   1.257   2.126  1.00  0.00     0.041 C 
BRANCH  31  36
ATOM     36  O   UNL     1      -5.286  -0.275  -2.396  1.00  0.00    -0.385 OA
ATOM     37  H   UNL     1      -4.990   0.628  -2.110  1.00  0.00     0.211 HD
ENDBRANCH  31  36
BRANCH  33  38
ATOM     38  O   UNL     1      -7.637  -0.580  -0.773  1.00  0.00    -0.387 OA
ATOM     39  H   UNL     1      -7.632   0.150  -1.444  1.00  0.00     0.211 HD
ENDBRANCH  33  38
BRANCH  34  40
ATOM     40  O   UNL     1      -6.722   0.808   1.645  1.00  0.00    -0.341 OA
BRANCH  40  41
ATOM     41  C   UNL     1      -7.568   1.950   1.562  1.00  0.00     0.282 C 
ATOM     42  O   UNL     1      -6.832   3.074   2.063  1.00  0.00    -0.347 OA
ATOM     43  C   UNL     1      -8.896   1.663   2.353  1.00  0.00     0.209 C 
ATOM     44  C   UNL     1      -7.688   4.174   2.274  1.00  0.00     0.198 C 
ATOM     45  C   UNL     1      -8.822   2.399   3.702  1.00  0.00     0.179 C 
ATOM     46  C   UNL     1      -8.600   3.929   3.497  1.00  0.00     0.171 C 
BRANCH  43  47
ATOM     47  O   UNL     1     -10.019   2.114   1.592  1.00  0.00    -0.338 OA
BRANCH  47  48
ATOM     48  C   UNL     1     -11.147   1.268   1.704  1.00  0.00     0.282 C 
ATOM     49  O   UNL     1     -12.041   1.837   2.668  1.00  0.00    -0.347 OA
ATOM     50  C   UNL     1     -11.811   1.153   0.321  1.00  0.00     0.209 C 
ATOM     51  C   UNL     1     -13.412   1.447   2.550  1.00  0.00     0.198 C 
ATOM     52  C   UNL     1     -12.992   0.134   0.417  1.00  0.00     0.179 C 
ATOM     53  C   UNL     1     -13.583   0.086   1.848  1.00  0.00     0.171 C 
BRANCH  50  54
ATOM     54  O   UNL     1     -12.301   2.444   0.004  1.00  0.00    -0.338 OA
BRANCH  54  55
ATOM     55  C   UNL     1     -12.101   2.849  -1.349  1.00  0.00     0.282 C 
ATOM     56  O   UNL     1     -13.345   2.854  -2.048  1.00  0.00    -0.347 OA
ATOM     57  C   UNL     1     -11.390   4.253  -1.398  1.00  0.00     0.202 C 
ATOM     58  C   UNL     1     -14.207   3.857  -1.533  1.00  0.00     0.198 C 
ATOM     59  C   UNL     1     -12.198   5.223  -2.279  1.00  0.00     0.179 C 
ATOM     60  C   UNL     1     -13.672   5.283  -1.820  1.00  0.00     0.171 C 
BRANCH  57  61
ATOM     61  O   UNL     1     -11.163   4.775  -0.110  1.00  0.00    -0.385 OA
ATOM     62  H   UNL     1     -12.039   4.901   0.336  1.00  0.00     0.211 HD
ENDBRANCH  57  61
BRANCH  59  63
ATOM     63  O   UNL     1     -11.612   6.497  -2.344  1.00  0.00    -0.387 OA
ATOM     64  H   UNL     1     -11.682   6.905  -1.441  1.00  0.00     0.211 HD
ENDBRANCH  59  63
BRANCH  60  65
ATOM     65  O   UNL     1     -14.457   5.955  -2.774  1.00  0.00    -0.388 OA
ATOM     66  H   UNL     1     -14.469   5.402  -3.599  1.00  0.00     0.211 HD
ENDBRANCH  60  65
ENDBRANCH  54  55
ENDBRANCH  50  54
BRANCH  52  67
ATOM     67  O   UNL     1     -13.955   0.390  -0.577  1.00  0.00    -0.387 OA
ATOM     68  H   UNL     1     -14.481   1.181  -0.288  1.00  0.00     0.211 HD
ENDBRANCH  52  67
BRANCH  53  69
ATOM     69  O   UNL     1     -14.900  -0.400   1.873  1.00  0.00    -0.388 OA
ATOM     70  H   UNL     1     -15.505   0.348   1.629  1.00  0.00     0.211 HD
ENDBRANCH  53  69
ENDBRANCH  47  48
ENDBRANCH  43  47
BRANCH  45  71
ATOM     71  O   UNL     1      -9.879   2.081   4.575  1.00  0.00    -0.387 OA
ATOM     72  H   UNL     1     -10.616   2.730   4.444  1.00  0.00     0.211 HD
ENDBRANCH  45  71
BRANCH  46  73
ATOM     73  O   UNL     1      -9.791   4.668   3.355  1.00  0.00    -0.388 OA
ATOM     74  H   UNL     1     -10.229   4.395   2.508  1.00  0.00     0.211 HD
ENDBRANCH  46  73
ENDBRANCH  40  41
ENDBRANCH  34  40
ENDBRANCH  28  29
ENDBRANCH   6  28
BRANCH   5  75
ATOM     75  O   UNL     1      -0.478  -2.677  -2.822  1.00  0.00    -0.432 OA
BRANCH  75  76
ATOM     76  C   UNL     1      -0.083  -1.695  -3.683  1.00  0.00     0.317 C 
ATOM     77  O   UNL     1      -0.867  -0.791  -3.926  1.00  0.00    -0.251 OA
BRANCH  76  78
ATOM     78  C   UNL     1       1.306  -1.725  -4.403  1.00  0.00     0.100 C 
ATOM     79  C   UNL     1       1.376  -2.958  -5.386  1.00  0.00     0.023 C 
ATOM     80  C   UNL     1       2.509  -1.852  -3.412  1.00  0.00     0.036 C 
ATOM     81  C   UNL     1       1.473  -0.368  -5.234  1.00  0.00     0.133 C 
ATOM     82  C   UNL     1       1.473  -4.335  -4.691  1.00  0.00     0.008 C 
ATOM     83  C   UNL     1       2.518  -3.230  -2.661  1.00  0.00     0.015 C 
ATOM     84  C   UNL     1       2.844  -0.586  -2.600  1.00  0.00    -0.063 C 
ATOM     85  C   UNL     1       1.677   0.852  -4.288  1.00  0.00     0.044 C 
ATOM     86  C   UNL     1       2.627  -4.421  -3.646  1.00  0.00    -0.035 C 
ATOM     87  C   UNL     1       3.459  -0.734  -1.421  1.00  0.00    -0.027 C 
ATOM     88  C   UNL     1       2.905   0.792  -3.296  1.00  0.00    -0.003 C 
ATOM     89  C   UNL     1       4.227   0.370  -0.829  1.00  0.00     0.032 C 
ATOM     90  C   UNL     1       2.883   2.055  -2.211  1.00  0.00    -0.016 C 
ATOM     91  C   UNL     1       3.367   1.646  -0.721  1.00  0.00     0.010 C 
ATOM     92  C   UNL     1       3.733   3.281  -2.740  1.00  0.00     0.035 C 
ATOM     93  C   UNL     1       4.200   2.767   0.044  1.00  0.00    -0.007 C 
ATOM     94  C   UNL     1       5.155   3.283  -2.204  1.00  0.00    -0.025 C 
ATOM     95  C   UNL     1       4.559   2.275   1.505  1.00  0.00     0.014 C 
ATOM     96  C   UNL     1       5.414   3.047  -0.881  1.00  0.00    -0.052 C 
ATOM     97  C   UNL     1       5.923   2.739   1.994  1.00  0.00     0.034 C 
ATOM     98  C   UNL     1       6.875   2.991  -0.378  1.00  0.00     0.071 C 
ATOM     99  C   UNL     1       6.960   2.233   0.982  1.00  0.00     0.138 C 
ATOM    100  C   UNL     1       4.029  -4.426  -4.323  1.00  0.00     0.011 C 
ATOM    101  C   UNL     1       2.543  -5.749  -2.853  1.00  0.00     0.011 C 
ATOM    102  C   UNL     1       4.226   0.813  -4.141  1.00  0.00     0.017 C 
ATOM    103  C   UNL     1       1.435   2.601  -2.015  1.00  0.00     0.013 C 
ATOM    104  C   UNL     1       3.441   4.100   0.326  1.00  0.00     0.016 C 
ATOM    105  C   UNL     1       7.382   4.448  -0.252  1.00  0.00     0.027 C 
BRANCH  81 106
ATOM    106  O   UNL     1       2.467  -0.360  -6.234  1.00  0.00    -0.392 OA
ATOM    107  H   UNL     1       3.141  -1.054  -6.074  1.00  0.00     0.210 HD
ENDBRANCH  81 106
BRANCH  98 108
ATOM    108  C   UNL     1       7.737   2.209  -1.365  1.00  0.00     0.237 C 
ATOM    109  O   UNL     1       8.682   2.723  -1.945  1.00  0.00    -0.302 OA
ENDBRANCH  98 108
BRANCH  99 110
ATOM    110  O   UNL     1       8.267   2.280   1.554  1.00  0.00    -0.345 OA
BRANCH 110 111
ATOM    111  C   UNL     1       8.647   1.017   2.115  1.00  0.00     0.283 C 
ATOM    112  O   UNL     1       9.162   1.216   3.428  1.00  0.00    -0.332 OA
ATOM    113  C   UNL     1       9.745   0.395   1.235  1.00  0.00     0.209 C 
ATOM    114  C   UNL     1       9.398  -0.038   4.069  1.00  0.00     0.262 C 
ATOM    115  C   UNL     1      10.093  -0.995   1.797  1.00  0.00     0.180 C 
ATOM    116  C   UNL     1      10.479  -0.872   3.296  1.00  0.00     0.186 C 
BRANCH 113 117
ATOM    117  O   UNL     1      10.880   1.238   1.340  1.00  0.00    -0.338 OA
BRANCH 117 118
ATOM    118  C   UNL     1      11.454   1.641   0.118  1.00  0.00     0.282 C 
ATOM    119  O   UNL     1      12.708   0.971  -0.070  1.00  0.00    -0.341 OA
ATOM    120  C   UNL     1      11.507   3.207   0.078  1.00  0.00     0.202 C 
ATOM    121  C   UNL     1      13.798   1.709   0.442  1.00  0.00     0.178 C 
ATOM    122  C   UNL     1      12.666   3.627  -0.839  1.00  0.00     0.179 C 
ATOM    123  C   UNL     1      14.021   3.002  -0.398  1.00  0.00     0.177 C 
BRANCH 120 124
ATOM    124  O   UNL     1      11.553   3.803   1.357  1.00  0.00    -0.385 OA
ATOM    125  H   UNL     1      12.407   3.612   1.802  1.00  0.00     0.211 HD
ENDBRANCH 120 124
BRANCH 121 126
ATOM    126  C   UNL     1      15.062   0.841   0.459  1.00  0.00     0.191 C 
BRANCH 126 127
ATOM    127  O   UNL     1      14.852  -0.318   1.220  1.00  0.00    -0.394 OA
ATOM    128  H   UNL     1      14.905  -0.046   2.174  1.00  0.00     0.210 HD
ENDBRANCH 126 127
ENDBRANCH 121 126
BRANCH 122 129
ATOM    129  O   UNL     1      12.745   5.013  -1.050  1.00  0.00    -0.387 OA
ATOM    130  H   UNL     1      12.781   5.449  -0.160  1.00  0.00     0.211 HD
ENDBRANCH 122 129
BRANCH 123 131
ATOM    131  O   UNL     1      14.855   3.905   0.287  1.00  0.00    -0.387 OA
ATOM    132  H   UNL     1      14.411   4.162   1.133  1.00  0.00     0.211 HD
ENDBRANCH 123 131
ENDBRANCH 117 118
ENDBRANCH 113 117
BRANCH 114 133
ATOM    133  C   UNL     1       9.839   0.177   5.500  1.00  0.00     0.335 C 
ATOM    134  O   UNL     1      10.030  -0.791   6.220  1.00  0.00    -0.249 OA
BRANCH 133 135
ATOM    135  O   UNL     1      10.037   1.416   6.007  1.00  0.00    -0.479 OA
ATOM    136  H   UNL     1       9.921   2.221   5.487  1.00  0.00     0.296 HD
ENDBRANCH 133 135
ENDBRANCH 114 133
BRANCH 115 137
ATOM    137  O   UNL     1       9.024  -1.895   1.580  1.00  0.00    -0.387 OA
ATOM    138  H   UNL     1       8.392  -1.868   2.339  1.00  0.00     0.211 HD
ENDBRANCH 115 137
BRANCH 116 139
ATOM    139  O   UNL     1      11.769  -0.307   3.408  1.00  0.00    -0.387 OA
ATOM    140  H   UNL     1      11.700   0.669   3.562  1.00  0.00     0.211 HD
ENDBRANCH 116 139
ENDBRANCH 110 111
ENDBRANCH  99 110
ENDBRANCH  76  78
ENDBRANCH  75  76
ENDBRANCH   5  75
TORSDOF 44
