REMARK SMILES CO[C@H]1[C@@H](O)[C@H](O)[C@H](Oc2cc(O)c3c(=O)c(-c4ccc(O)cc4)coc3c2)O[C@@H]1CO
REMARK SMILES IDX 9 1 8 2 3 3 30 4 4 5 29 6 6 7 2 8 1 9 31 10 32 11 5 13 7 15
REMARK SMILES IDX 10 17 11 18 28 19 12 20 27 21 14 22 26 23 15 24 25 25 16 26
REMARK SMILES IDX 17 27 13 28 18 30 19 31 24 32 20 33 23 34 21 35 22 36
REMARK H PARENT 32 12 5 14 7 16 13 29 22 37
ROOT
ATOM      1  O   UNL     1      -1.513   0.493   1.153  1.00  0.00    -0.462 OA
ENDROOT
BRANCH   1   2
ATOM      2  C   UNL     1      -2.748   0.201   0.593  1.00  0.00     0.339 C 
ATOM      3  C   UNL     1      -5.616   0.475   0.448  1.00  0.00     0.180 C 
ATOM      4  C   UNL     1      -4.583   1.171  -0.489  1.00  0.00     0.179 C 
ATOM      5  C   UNL     1      -5.011  -0.822   1.043  1.00  0.00     0.181 C 
ATOM      6  O   UNL     1      -3.370   1.418   0.211  1.00  0.00    -0.332 OA
ATOM      7  C   UNL     1      -3.618  -0.533   1.641  1.00  0.00     0.214 C 
BRANCH   3   8
ATOM      8  O   UNL     1      -6.797   0.164  -0.275  1.00  0.00    -0.376 OA
ATOM      9  C   UNL     1      -7.943   0.413   0.507  1.00  0.00     0.195 C 
ENDBRANCH   3   8
BRANCH   4  10
ATOM     10  C   UNL     1      -5.109   2.524  -0.999  1.00  0.00     0.191 C 
BRANCH  10  11
ATOM     11  O   UNL     1      -6.276   2.371  -1.761  1.00  0.00    -0.394 OA
ATOM     12  H   UNL     1      -5.993   2.024  -2.647  1.00  0.00     0.210 HD
ENDBRANCH  10  11
ENDBRANCH   4  10
BRANCH   5  13
ATOM     13  O   UNL     1      -4.942  -1.863   0.092  1.00  0.00    -0.387 OA
ATOM     14  H   UNL     1      -4.527  -1.532  -0.741  1.00  0.00     0.211 HD
ENDBRANCH   5  13
BRANCH   7  15
ATOM     15  O   UNL     1      -3.728   0.214   2.833  1.00  0.00    -0.384 OA
ATOM     16  H   UNL     1      -3.957   1.152   2.610  1.00  0.00     0.211 HD
ENDBRANCH   7  15
ENDBRANCH   1   2
BRANCH   1  17
ATOM     17  C   UNL     1      -0.270   0.216   0.667  1.00  0.00     0.130 A 
ATOM     18  C   UNL     1      -0.031  -0.255  -0.640  1.00  0.00     0.093 A 
ATOM     19  C   UNL     1       0.821   0.432   1.514  1.00  0.00     0.094 A 
ATOM     20  C   UNL     1       1.275  -0.511  -1.086  1.00  0.00     0.134 A 
ATOM     21  C   UNL     1       2.128   0.181   1.085  1.00  0.00     0.145 A 
ATOM     22  C   UNL     1       2.374  -0.292  -0.220  1.00  0.00     0.107 A 
ATOM     23  O   UNL     1       3.133   0.394   1.921  1.00  0.00    -0.463 OA
ATOM     24  C   UNL     1       3.716  -0.525  -0.601  1.00  0.00     0.204 A 
ATOM     25  C   UNL     1       4.402   0.183   1.598  1.00  0.00     0.208 A 
ATOM     26  O   UNL     1       3.949  -0.959  -1.713  1.00  0.00    -0.288 OA
ATOM     27  C   UNL     1       4.775  -0.282   0.317  1.00  0.00     0.065 A 
BRANCH  20  28
ATOM     28  O   UNL     1       1.465  -0.961  -2.346  1.00  0.00    -0.507 OA
ATOM     29  H   UNL     1       0.733  -1.119  -2.959  1.00  0.00     0.293 HD
ENDBRANCH  20  28
BRANCH  27  30
ATOM     30  C   UNL     1       6.242  -0.498  -0.017  1.00  0.00    -0.011 A 
ATOM     31  C   UNL     1       6.718  -0.538  -1.353  1.00  0.00     0.013 A 
ATOM     32  C   UNL     1       7.202  -0.662   1.013  1.00  0.00     0.013 A 
ATOM     33  C   UNL     1       8.072  -0.735  -1.636  1.00  0.00     0.047 A 
ATOM     34  C   UNL     1       8.555  -0.863   0.721  1.00  0.00     0.047 A 
ATOM     35  C   UNL     1       8.995  -0.901  -0.600  1.00  0.00     0.115 A 
BRANCH  35  36
ATOM     36  O   UNL     1      10.303  -1.094  -0.863  1.00  0.00    -0.508 OA
ATOM     37  H   UNL     1      10.646  -1.126  -1.768  1.00  0.00     0.293 HD
ENDBRANCH  35  36
ENDBRANCH  27  30
ENDBRANCH   1  17
TORSDOF 10
