REMARK SMILES C/C(=C\c1coc(C)n1)[C@@H]1C[C@@H]2O[C@@H]2CCC[C@H](C)[C@H](O)[C@@H](C)C(=O)C(C)(C)[C@@H](O)CC(=O)O1
REMARK SMILES IDX 32 1 33 2 34 3 10 4 2 5 3 6 1 7 4 8 5 9 9 10 6 11 7 12 8 13
REMARK SMILES IDX 11 14 12 15 13 16 14 17 15 18 16 19 17 20 31 22 29 23 26 24
REMARK SMILES IDX 27 25 28 26 24 27 25 28 22 29 23 30 20 31 18 32 19 33 21 35
REMARK SMILES IDX 30 37
REMARK H PARENT 21 36 30 38
REMARK Flexibility Score:   80.900
ROOT
ATOM      1  C   UNL     1       0.425   1.049   0.102  1.00  0.00     0.309 C 
ATOM      2  O   UNL     1      -0.058   0.562   1.104  1.00  0.00    -0.252 OA
ENDROOT
BRANCH   1   3
ATOM      3  O   UNL     1       1.385   0.374  -0.585  1.00  0.00    -0.458 OA
BRANCH   3   4
ATOM      4  C   UNL     1       1.875  -0.893  -0.288  1.00  0.00     0.205 C 
BRANCH   4   5
ATOM      5  C   UNL     1       3.307  -0.737   0.208  1.00  0.00    -0.031 C 
ATOM      6  C   UNL     1       4.152   0.055  -0.508  1.00  0.00     0.034 C 
ATOM      7  C   UNL     1       3.649  -1.413   1.518  1.00  0.00     0.043 C 
BRANCH   6   8
ATOM      8  C   UNL     1       5.537   0.476  -0.177  1.00  0.00     0.102 A 
ATOM      9  C   UNL     1       6.259   1.397  -0.908  1.00  0.00     0.225 A 
ATOM     10  N   UNL     1       6.274   0.101   0.883  1.00  0.00    -0.215 NA
ATOM     11  O   UNL     1       7.410   1.579  -0.309  1.00  0.00    -0.449 OA
ATOM     12  C   UNL     1       7.414   0.807   0.753  1.00  0.00     0.191 A 
ATOM     13  C   UNL     1       8.546   0.732   1.722  1.00  0.00     0.111 C 
ENDBRANCH   6   8
ENDBRANCH   4   5
BRANCH   4  14
ATOM     14  C   UNL     1       1.744  -1.801  -1.527  1.00  0.00     0.084 C 
BRANCH  14  15
ATOM     15  C   UNL     1       1.964  -3.286  -1.150  1.00  0.00     0.151 C 
ATOM     16  O   UNL     1       1.673  -4.157  -2.229  1.00  0.00    -0.369 OA
ATOM     17  C   UNL     1       0.825  -4.267  -1.109  1.00  0.00     0.147 C 
BRANCH  17  18
ATOM     18  C   UNL     1      -0.622  -3.868  -1.462  1.00  0.00     0.035 C 
BRANCH  18  19
ATOM     19  C   UNL     1      -1.289  -3.144  -0.285  1.00  0.00     0.003 C 
BRANCH  19  20
ATOM     20  C   UNL     1      -2.602  -2.451  -0.701  1.00  0.00     0.006 CG0
ATOM     21  G   UNL     1      -3.062  -1.399   0.357  1.00  0.00     0.000 G0
ENDBRANCH  19  20
ENDBRANCH  18  19
ENDBRANCH  17  18
ENDBRANCH  14  15
ENDBRANCH   4  14
ENDBRANCH   3   4
ENDBRANCH   1   3
BRANCH   1  22
ATOM     22  C   UNL     1       0.120   2.475  -0.302  1.00  0.00     0.155 C 
BRANCH  22  23
ATOM     23  C   UNL     1      -1.275   2.826  -0.924  1.00  0.00     0.138 C 
BRANCH  23  24
ATOM     24  C   UNL     1      -2.571   3.029  -0.014  1.00  0.00     0.050 C 
ATOM     25  C   UNL     1      -3.712   3.539  -0.935  1.00  0.00     0.022 C 
ATOM     26  C   UNL     1      -2.322   4.124   1.050  1.00  0.00     0.022 C 
BRANCH  24  27
ATOM     27  C   UNL     1      -3.015   1.748   0.724  1.00  0.00     0.146 C 
ATOM     28  O   UNL     1      -2.307   1.345   1.629  1.00  0.00    -0.299 OA
BRANCH  27  29
ATOM     29  C   UNL     1      -4.334   0.985   0.499  1.00  0.00     0.082 C 
ATOM     30  C   UNL     1      -5.130   0.925   1.811  1.00  0.00     0.019 C 
BRANCH  29  31
ATOM     31  C   UNL     1      -4.113  -0.387  -0.239  1.00  0.00     0.127 C 
BRANCH  31  32
ATOM     32  C   UNL     1      -3.062  -1.399   0.357  1.00  0.00     0.015 CG0
ATOM     33  C   UNL     1      -3.567  -2.121   1.619  1.00  0.00     0.010 C 
ATOM     34  G   UNL     1      -2.602  -2.451  -0.701  1.00  0.00     0.000 G0
ENDBRANCH  31  32
BRANCH  31  35
ATOM     35  O   UNL     1      -3.777  -0.072  -1.570  1.00  0.00    -0.392 OA
ATOM     36  H   UNL     1      -2.864   0.309  -1.569  1.00  0.00     0.210 HD
ENDBRANCH  31  35
ENDBRANCH  29  31
ENDBRANCH  27  29
ENDBRANCH  24  27
ENDBRANCH  23  24
BRANCH  23  37
ATOM     37  O   UNL     1      -1.091   3.985  -1.710  1.00  0.00    -0.392 OA
ATOM     38  H   UNL     1      -0.673   4.687  -1.147  1.00  0.00     0.211 HD
ENDBRANCH  23  37
ENDBRANCH  22  23
ENDBRANCH   1  22
TORSDOF 4
