REMARK SMILES CCCCCC[C@H](C)C/C(C)=C\[C@@H](/C=C(\C)C=C[C@H](O)C(C)(C)c1cc(O)c([C@@H]2O[C@H](CO)C[C@H](O)[C@H]2O)c(=O)o1)CO
REMARK SMILES IDX 13 1 12 2 10 3 11 4 9 5 7 6 8 7 6 8 5 9 4 10 3 11 2 12 1 13
REMARK SMILES IDX 14 14 15 15 16 16 17 17 18 18 19 19 20 20 21 22 22 23 23 24
REMARK SMILES IDX 24 25 25 26 41 27 26 28 39 29 28 30 40 31 27 32 29 34 30 35
REMARK SMILES IDX 37 36 31 37 35 38 34 39 38 40 32 42 33 43 36 45 42 47 43 48
REMARK H PARENT 20 21 27 33 38 41 33 44 36 46 43 49
ROOT
ATOM      1  C   UNL     1       4.127  -0.189   1.170  1.00  0.00     0.060 C 
ENDROOT
BRANCH   1   2
ATOM      2  C   UNL     1       4.917  -1.408   1.594  1.00  0.00    -0.018 C 
ATOM      3  C   UNL     1       5.554  -2.264   0.754  1.00  0.00    -0.076 C 
ATOM      4  C   UNL     1       6.357  -3.382   1.365  1.00  0.00     0.039 C 
BRANCH   3   5
ATOM      5  C   UNL     1       5.503  -2.158  -0.767  1.00  0.00     0.033 C 
BRANCH   5   6
ATOM      6  C   UNL     1       6.874  -1.785  -1.395  1.00  0.00    -0.010 C 
ATOM      7  C   UNL     1       6.707  -1.802  -2.921  1.00  0.00     0.008 C 
BRANCH   6   8
ATOM      8  C   UNL     1       7.368  -0.416  -0.826  1.00  0.00     0.003 C 
BRANCH   8   9
ATOM      9  C   UNL     1       8.804   0.048  -1.170  1.00  0.00     0.000 C 
BRANCH   9  10
ATOM     10  C   UNL     1       9.049   0.659  -2.562  1.00  0.00     0.000 C 
BRANCH  10  11
ATOM     11  C   UNL     1       8.124   1.814  -3.012  1.00  0.00    -0.000 C 
BRANCH  11  12
ATOM     12  C   UNL     1       8.275   3.177  -2.302  1.00  0.00    -0.003 C 
ATOM     13  C   UNL     1       7.674   3.277  -0.899  1.00  0.00     0.004 C 
ENDBRANCH  11  12
ENDBRANCH  10  11
ENDBRANCH   9  10
ENDBRANCH   8   9
ENDBRANCH   6   8
ENDBRANCH   5   6
ENDBRANCH   3   5
ENDBRANCH   1   2
BRANCH   1  14
ATOM     14  C   UNL     1       2.624  -0.360   0.985  1.00  0.00    -0.014 C 
ATOM     15  C   UNL     1       1.727  -1.285   1.436  1.00  0.00    -0.055 C 
ATOM     16  C   UNL     1       2.033  -2.456   2.348  1.00  0.00     0.044 C 
BRANCH  15  17
ATOM     17  C   UNL     1       0.315  -1.083   0.986  1.00  0.00     0.001 C 
ATOM     18  C   UNL     1      -0.757  -1.740   1.474  1.00  0.00     0.005 C 
BRANCH  18  19
ATOM     19  C   UNL     1      -2.172  -1.456   0.985  1.00  0.00     0.150 C 
BRANCH  19  20
ATOM     20  O   UNL     1      -2.166  -0.774  -0.252  1.00  0.00    -0.388 OA
ATOM     21  H   UNL     1      -2.021   0.192  -0.095  1.00  0.00     0.211 HD
ENDBRANCH  19  20
BRANCH  19  22
ATOM     22  C   UNL     1      -3.061  -0.723   2.055  1.00  0.00     0.053 C 
ATOM     23  C   UNL     1      -2.345   0.552   2.590  1.00  0.00     0.023 C 
ATOM     24  C   UNL     1      -3.317  -1.644   3.269  1.00  0.00     0.023 C 
BRANCH  22  25
ATOM     25  C   UNL     1      -4.412  -0.412   1.403  1.00  0.00     0.120 A 
ATOM     26  C   UNL     1      -4.900   0.895   1.213  1.00  0.00     0.090 A 
ATOM     27  O   UNL     1      -5.145  -1.439   0.979  1.00  0.00    -0.427 OA
ATOM     28  C   UNL     1      -6.144   1.085   0.606  1.00  0.00     0.132 A 
ATOM     29  C   UNL     1      -6.332  -1.310   0.398  1.00  0.00     0.345 A 
ATOM     30  C   UNL     1      -6.895  -0.031   0.194  1.00  0.00     0.111 A 
ATOM     31  O   UNL     1      -6.933  -2.315   0.063  1.00  0.00    -0.246 OA
BRANCH  28  32
ATOM     32  O   UNL     1      -6.611   2.337   0.405  1.00  0.00    -0.507 OA
ATOM     33  H   UNL     1      -6.103   3.124   0.646  1.00  0.00     0.293 HD
ENDBRANCH  28  32
BRANCH  30  34
ATOM     34  C   UNL     1      -8.271   0.134  -0.434  1.00  0.00     0.191 C 
ATOM     35  O   UNL     1      -8.191   1.037  -1.531  1.00  0.00    -0.365 OA
ATOM     36  C   UNL     1      -9.284   0.646   0.624  1.00  0.00     0.177 C 
ATOM     37  C   UNL     1      -9.441   1.129  -2.209  1.00  0.00     0.147 C 
ATOM     38  C   UNL     1     -10.664   0.790  -0.041  1.00  0.00     0.148 C 
ATOM     39  C   UNL     1     -10.534   1.691  -1.271  1.00  0.00     0.069 C 
BRANCH  36  40
ATOM     40  O   UNL     1      -9.351  -0.217   1.731  1.00  0.00    -0.387 OA
ATOM     41  H   UNL     1      -9.590  -1.122   1.397  1.00  0.00     0.211 HD
ENDBRANCH  36  40
BRANCH  37  42
ATOM     42  C   UNL     1      -9.287   2.057  -3.417  1.00  0.00     0.188 C 
BRANCH  42  43
ATOM     43  O   UNL     1      -8.319   1.559  -4.301  1.00  0.00    -0.394 OA
ATOM     44  H   UNL     1      -7.450   1.953  -4.025  1.00  0.00     0.210 HD
ENDBRANCH  42  43
ENDBRANCH  37  42
BRANCH  38  45
ATOM     45  O   UNL     1     -11.620   1.291   0.860  1.00  0.00    -0.390 OA
ATOM     46  H   UNL     1     -11.307   2.181   1.167  1.00  0.00     0.211 HD
ENDBRANCH  38  45
ENDBRANCH  30  34
ENDBRANCH  22  25
ENDBRANCH  19  22
ENDBRANCH  18  19
ENDBRANCH  15  17
ENDBRANCH   1  14
BRANCH   1  47
ATOM     47  C   UNL     1       4.436   0.997   2.100  1.00  0.00     0.167 C 
BRANCH  47  48
ATOM     48  O   UNL     1       3.803   2.169   1.658  1.00  0.00    -0.395 OA
ATOM     49  H   UNL     1       4.292   2.469   0.848  1.00  0.00     0.210 HD
ENDBRANCH  47  48
ENDBRANCH   1  47
TORSDOF 22
