REMARK SMILES CC(=O)O[C@H]1O[C@@H]([C@@]2(C)OC2(C)C)C[C@@H]1[C@@H]1CC=C2[C@]3(C)[C@H](O)C[C@@H]4C(C)(C)[C@H](O)CC[C@]4(C)[C@H]3CC[C@]21C
REMARK SMILES IDX 5 1 6 2 7 3 14 4 15 5 4 6 2 7 3 8 1 9 16 10 17 11 38 12
REMARK SMILES IDX 18 13 37 14 19 15 36 16 20 17 35 18 22 19 33 20 24 21 32 22
REMARK SMILES IDX 25 23 31 24 26 25 29 26 39 27 21 28 34 29 27 30 28 31 23 32
REMARK SMILES IDX 30 34 8 36 10 37 11 38 9 39 12 40 13 41
REMARK H PARENT 23 33 30 35
ROOT
ATOM      1  C   UNL     1       4.407  -1.190  -0.430  1.00  0.00     0.314 C 
ATOM      2  O   UNL     1       5.425  -0.215  -0.451  1.00  0.00    -0.336 OA
ATOM      3  C   UNL     1       4.976   0.707   0.515  1.00  0.00     0.157 C 
ATOM      4  C   UNL     1       3.468   0.859   0.320  1.00  0.00     0.045 C 
ATOM      5  C   UNL     1       3.107  -0.389  -0.477  1.00  0.00     0.065 C 
ENDROOT
BRANCH   1   6
ATOM      6  O   UNL     1       4.510  -2.012  -1.542  1.00  0.00    -0.436 OA
BRANCH   6   7
ATOM      7  C   UNL     1       4.727  -3.352  -1.522  1.00  0.00     0.304 C 
ATOM      8  O   UNL     1       4.913  -3.947  -0.468  1.00  0.00    -0.253 OA
ATOM      9  C   UNL     1       4.734  -4.109  -2.809  1.00  0.00     0.139 C 
ENDBRANCH   6   7
ENDBRANCH   1   6
BRANCH   5  10
ATOM     10  C   UNL     1       1.841  -1.110   0.051  1.00  0.00     0.012 C 
ATOM     11  C   UNL     1       1.564  -2.491  -0.532  1.00  0.00     0.032 C 
ATOM     12  C   UNL     1       0.461  -0.388  -0.091  1.00  0.00    -0.007 C 
ATOM     13  C   UNL     1       0.179  -2.716  -0.038  1.00  0.00    -0.026 C 
ATOM     14  C   UNL     1       0.245   0.637   1.050  1.00  0.00     0.012 C 
ATOM     15  C   UNL     1      -0.473  -1.560   0.161  1.00  0.00    -0.059 C 
ATOM     16  C   UNL     1      -1.211   1.113   1.212  1.00  0.00     0.006 C 
ATOM     17  C   UNL     1      -1.881  -1.423   0.802  1.00  0.00     0.018 C 
ATOM     18  C   UNL     1      -2.283   0.105   0.690  1.00  0.00     0.008 C 
ATOM     19  C   UNL     1      -2.996  -2.296   0.088  1.00  0.00     0.125 C 
ATOM     20  C   UNL     1      -3.795   0.509   0.955  1.00  0.00    -0.025 C 
ATOM     21  C   UNL     1      -3.997  -1.496  -0.773  1.00  0.00     0.037 C 
ATOM     22  C   UNL     1      -4.003   1.981   0.497  1.00  0.00     0.010 C 
ATOM     23  C   UNL     1      -4.764  -0.462   0.109  1.00  0.00     0.006 C 
ATOM     24  C   UNL     1      -5.465   2.474   0.537  1.00  0.00     0.033 C 
ATOM     25  C   UNL     1      -5.974   0.231  -0.673  1.00  0.00    -0.006 C 
ATOM     26  C   UNL     1      -6.510   1.373   0.233  1.00  0.00     0.120 C 
ATOM     27  C   UNL     1       0.285   0.214  -1.513  1.00  0.00     0.016 C 
ATOM     28  C   UNL     1      -1.713  -1.938   2.258  1.00  0.00     0.019 C 
ATOM     29  C   UNL     1      -4.140   0.469   2.473  1.00  0.00     0.012 C 
ATOM     30  C   UNL     1      -5.603   0.752  -2.093  1.00  0.00     0.014 C 
ATOM     31  C   UNL     1      -7.112  -0.808  -0.877  1.00  0.00     0.014 C 
BRANCH  19  32
ATOM     32  O   UNL     1      -2.477  -3.381  -0.637  1.00  0.00    -0.392 OA
ATOM     33  H   UNL     1      -2.126  -3.024  -1.496  1.00  0.00     0.210 HD
ENDBRANCH  19  32
BRANCH  26  34
ATOM     34  O   UNL     1      -7.718   1.937  -0.218  1.00  0.00    -0.393 OA
ATOM     35  H   UNL     1      -7.518   2.482  -1.022  1.00  0.00     0.210 HD
ENDBRANCH  26  34
ENDBRANCH   5  10
BRANCH   3  36
ATOM     36  C   UNL     1       5.741   2.050   0.472  1.00  0.00     0.121 C 
ATOM     37  O   UNL     1       5.380   2.936   1.530  1.00  0.00    -0.361 OA
ATOM     38  C   UNL     1       6.687   2.405   1.580  1.00  0.00     0.095 C 
ATOM     39  C   UNL     1       5.792   2.784  -0.882  1.00  0.00     0.048 C 
ATOM     40  C   UNL     1       6.901   1.482   2.793  1.00  0.00     0.045 C 
ATOM     41  C   UNL     1       7.806   3.424   1.322  1.00  0.00     0.045 C 
ENDBRANCH   3  36
TORSDOF 6
