REMARK SMILES CC[C@@H](C)[C@@H](CO)NC(=O)CCc1cc2c(-c3ccccc3)cc(=O)oc2cc1OC
REMARK SMILES IDX 8 1 9 2 10 3 5 5 3 6 4 7 2 8 1 9 6 10 7 11 11 13 12 14 13 15
REMARK SMILES IDX 14 16 29 17 15 18 28 19 27 20 16 21 26 22 23 23 24 24 25 25
REMARK SMILES IDX 30 26 31 27 17 28 18 29 22 30 19 31 21 32 20 33
REMARK H PARENT 8 4 7 12
ROOT
ATOM      1  N   UNL     1       3.154   0.146  -0.599  1.00  0.00    -0.351 N 
ATOM      2  C   UNL     1       2.112   0.784   0.004  1.00  0.00     0.220 C 
ATOM      3  O   UNL     1       2.255   1.294   1.108  1.00  0.00    -0.275 OA
ATOM      4  H   UNL     1       3.003  -0.287  -1.524  1.00  0.00     0.163 HD
ENDROOT
BRANCH   1   5
ATOM      5  C   UNL     1       4.481   0.040   0.002  1.00  0.00     0.110 C 
BRANCH   5   6
ATOM      6  C   UNL     1       4.827  -1.462   0.263  1.00  0.00     0.010 C 
ATOM      7  C   UNL     1       3.727  -2.100   1.141  1.00  0.00     0.010 C 
BRANCH   6   8
ATOM      8  C   UNL     1       6.221  -1.618   0.935  1.00  0.00     0.002 C 
ATOM      9  C   UNL     1       6.639  -3.068   1.189  1.00  0.00     0.004 C 
ENDBRANCH   6   8
ENDBRANCH   5   6
BRANCH   5  10
ATOM     10  C   UNL     1       5.486   0.744  -0.932  1.00  0.00     0.181 C 
BRANCH  10  11
ATOM     11  O   UNL     1       5.115   2.084  -1.126  1.00  0.00    -0.394 OA
ATOM     12  H   UNL     1       4.480   2.102  -1.889  1.00  0.00     0.210 HD
ENDBRANCH  10  11
ENDBRANCH   5  10
ENDBRANCH   1   5
BRANCH   2  13
ATOM     13  C   UNL     1       0.770   0.850  -0.692  1.00  0.00     0.105 C 
BRANCH  13  14
ATOM     14  C   UNL     1      -0.300   1.528   0.180  1.00  0.00     0.049 C 
BRANCH  14  15
ATOM     15  C   UNL     1      -1.658   1.570  -0.487  1.00  0.00    -0.005 A 
ATOM     16  C   UNL     1      -2.701   0.797   0.048  1.00  0.00     0.020 A 
ATOM     17  C   UNL     1      -1.900   2.393  -1.605  1.00  0.00     0.125 A 
ATOM     18  C   UNL     1      -3.993   0.811  -0.514  1.00  0.00     0.026 A 
ATOM     19  C   UNL     1      -3.196   2.439  -2.154  1.00  0.00     0.094 A 
ATOM     20  C   UNL     1      -4.233   1.673  -1.613  1.00  0.00     0.142 A 
ATOM     21  C   UNL     1      -5.084   0.043  -0.007  1.00  0.00    -0.000 A 
ATOM     22  O   UNL     1      -5.447   1.780  -2.137  1.00  0.00    -0.423 OA
ATOM     23  C   UNL     1      -6.347   0.233  -0.597  1.00  0.00     0.103 A 
ATOM     24  C   UNL     1      -6.492   1.113  -1.669  1.00  0.00     0.336 A 
ATOM     25  O   UNL     1      -7.583   1.262  -2.189  1.00  0.00    -0.246 OA
BRANCH  17  26
ATOM     26  O   UNL     1      -0.882   3.147  -2.101  1.00  0.00    -0.496 OA
ATOM     27  C   UNL     1      -0.966   4.024  -3.163  1.00  0.00     0.278 C 
ENDBRANCH  17  26
BRANCH  21  28
ATOM     28  C   UNL     1      -4.966  -0.974   1.092  1.00  0.00    -0.017 A 
ATOM     29  C   UNL     1      -3.860  -1.848   1.169  1.00  0.00     0.009 A 
ATOM     30  C   UNL     1      -5.992  -1.115   2.050  1.00  0.00     0.009 A 
ATOM     31  C   UNL     1      -3.771  -2.805   2.183  1.00  0.00     0.001 A 
ATOM     32  C   UNL     1      -5.893  -2.071   3.067  1.00  0.00     0.001 A 
ATOM     33  C   UNL     1      -4.783  -2.913   3.135  1.00  0.00     0.000 A 
ENDBRANCH  21  28
ENDBRANCH  14  15
ENDBRANCH  13  14
ENDBRANCH   2  13
TORSDOF 10
