REMARK SMILES Cn1cnc(-c2ccc3ccccc3n2)c1
REMARK SMILES IDX 1 1 2 2 3 3 4 4 5 5 16 6 6 7 7 8 15 9 8 10 14 11 9 12 13 13
REMARK SMILES IDX 10 14 12 15 11 16
REMARK H PARENT
ROOT
ATOM      1  C   UNL     1      -4.910   0.588   0.808  1.00  0.00     0.150 C 
ATOM      2  N   UNL     1      -3.738   0.207   0.029  1.00  0.00    -0.340 N 
ATOM      3  C   UNL     1      -3.717  -0.303  -1.218  1.00  0.00     0.199 A 
ATOM      4  N   UNL     1      -2.460  -0.544  -1.643  1.00  0.00    -0.235 NA
ATOM      5  C   UNL     1      -1.671  -0.166  -0.614  1.00  0.00     0.107 A 
ATOM      6  C   UNL     1      -2.458   0.299   0.421  1.00  0.00     0.117 A 
ENDROOT
BRANCH   5   7
ATOM      7  C   UNL     1      -0.200  -0.244  -0.613  1.00  0.00     0.091 A 
ATOM      8  C   UNL     1       0.501  -0.736  -1.726  1.00  0.00     0.031 A 
ATOM      9  N   UNL     1       0.490   0.168   0.487  1.00  0.00    -0.246 NA
ATOM     10  C   UNL     1       1.896  -0.797  -1.692  1.00  0.00     0.012 A 
ATOM     11  C   UNL     1       1.847   0.120   0.548  1.00  0.00     0.071 A 
ATOM     12  C   UNL     1       2.586  -0.368  -0.552  1.00  0.00     0.000 A 
ATOM     13  C   UNL     1       2.514   0.554   1.700  1.00  0.00     0.029 A 
ATOM     14  C   UNL     1       3.986  -0.416  -0.483  1.00  0.00     0.010 A 
ATOM     15  C   UNL     1       3.910   0.504   1.760  1.00  0.00     0.002 A 
ATOM     16  C   UNL     1       4.644   0.021   0.672  1.00  0.00     0.001 A 
ENDBRANCH   5   7
TORSDOF 1
