REMARK SMILES CCCCCC=CCCCCCC=CC(=O)N[C@H]1[C@H](O[C@@H]2[C@@H](O)[C@H](NC(C)=O)[C@H](O[C@H]3[C@H](O)[C@@H](NC(C)=O)[C@@H](O[C@H]4[C@H](O)[C@@H](NC(C)=O)[C@H](O)O[C@H]4COS(=O)(=O)O)O[C@H]3CO)O[C@H]2CO)O[C@H](CO)[C@@H](O)[C@@H]1O
REMARK SMILES IDX 15 1 16 2 17 3 14 5 13 6 12 7 11 8 10 9 9 10 8 11 7 12 6 13
REMARK SMILES IDX 5 14 4 15 3 16 2 17 1 18 18 19 19 20 73 21 67 22 71 23 68 24
REMARK SMILES IDX 20 25 21 26 64 27 22 28 63 29 24 30 29 31 65 32 66 33 23 35
REMARK SMILES IDX 25 37 26 38 28 39 27 41 30 42 31 43 60 44 32 45 59 46 34 47
REMARK SMILES IDX 39 48 61 49 62 50 33 52 35 54 36 55 38 56 37 58 40 59 41 60
REMARK SMILES IDX 52 61 42 62 51 63 44 64 49 65 53 66 54 67 55 68 56 69 57 70
REMARK SMILES IDX 58 71 43 73 45 75 46 76 48 77 47 79 50 80 74 82 72 84 69 86
REMARK SMILES IDX 70 87
REMARK H PARENT 17 4 66 34 23 36 25 40 62 51 33 53 35 57 58 72 43 74 45 78
REMARK H PARENT 50 81 74 83 72 85 70 88
ROOT
ATOM      1  C   UNL     1       4.312  -1.807  -1.865  1.00  0.00     0.244 C 
ATOM      2  O   UNL     1       3.450  -2.648  -1.652  1.00  0.00    -0.270 OA
ATOM      3  N   UNL     1       4.013  -0.708  -2.631  1.00  0.00    -0.342 N 
ATOM      4  H   UNL     1       4.696   0.047  -2.727  1.00  0.00     0.164 HD
ENDROOT
BRANCH   1   5
ATOM      5  C   UNL     1       5.621  -2.063  -1.200  1.00  0.00     0.067 C 
ATOM      6  C   UNL     1       6.873  -1.667  -1.504  1.00  0.00    -0.021 C 
BRANCH   6   7
ATOM      7  C   UNL     1       7.355  -0.855  -2.681  1.00  0.00     0.027 C 
BRANCH   7   8
ATOM      8  C   UNL     1       8.151   0.395  -2.260  1.00  0.00     0.004 C 
BRANCH   8   9
ATOM      9  C   UNL     1       9.413   0.018  -1.464  1.00  0.00     0.001 C 
BRANCH   9  10
ATOM     10  C   UNL     1      10.314   1.226  -1.163  1.00  0.00     0.004 C 
BRANCH  10  11
ATOM     11  C   UNL     1      11.612   0.803  -0.449  1.00  0.00     0.027 C 
BRANCH  11  12
ATOM     12  C   UNL     1      11.352   0.227   0.930  1.00  0.00    -0.031 C 
ATOM     13  C   UNL     1      11.894   0.636   2.093  1.00  0.00    -0.031 C 
BRANCH  13  14
ATOM     14  C   UNL     1      12.910   1.738   2.284  1.00  0.00     0.027 C 
BRANCH  14  15
ATOM     15  C   UNL     1      14.208   1.159   2.868  1.00  0.00     0.004 C 
BRANCH  15  16
ATOM     16  C   UNL     1      14.863   0.147   1.905  1.00  0.00     0.000 C 
BRANCH  16  17
ATOM     17  C   UNL     1      16.188  -0.427   2.428  1.00  0.00    -0.003 C 
ATOM     18  C   UNL     1      16.023  -1.260   3.700  1.00  0.00     0.004 C 
ENDBRANCH  16  17
ENDBRANCH  15  16
ENDBRANCH  14  15
ENDBRANCH  13  14
ENDBRANCH  11  12
ENDBRANCH  10  11
ENDBRANCH   9  10
ENDBRANCH   8   9
ENDBRANCH   7   8
ENDBRANCH   6   7
ENDBRANCH   1   5
BRANCH   3  19
ATOM     19  C   UNL     1       2.698  -0.544  -3.264  1.00  0.00     0.170 C 
ATOM     20  C   UNL     1       1.935   0.721  -2.724  1.00  0.00     0.276 C 
ATOM     21  C   UNL     1       2.806  -0.489  -4.801  1.00  0.00     0.173 C 
ATOM     22  O   UNL     1       1.876   1.806  -3.652  1.00  0.00    -0.342 OA
ATOM     23  C   UNL     1       3.396   0.861  -5.301  1.00  0.00     0.176 C 
ATOM     24  C   UNL     1       3.110   2.016  -4.298  1.00  0.00     0.178 C 
BRANCH  20  25
ATOM     25  O   UNL     1       0.586   0.347  -2.466  1.00  0.00    -0.341 OA
BRANCH  25  26
ATOM     26  C   UNL     1       0.193   0.569  -1.118  1.00  0.00     0.184 C 
ATOM     27  C   UNL     1      -1.268   1.065  -1.051  1.00  0.00     0.178 C 
ATOM     28  C   UNL     1       0.233  -0.773  -0.369  1.00  0.00     0.173 C 
ATOM     29  O   UNL     1      -1.585   1.351   0.305  1.00  0.00    -0.342 OA
ATOM     30  C   UNL     1      -0.351  -0.661   1.047  1.00  0.00     0.169 C 
ATOM     31  C   UNL     1      -1.667   0.162   1.074  1.00  0.00     0.276 C 
BRANCH  27  32
ATOM     32  C   UNL     1      -1.504   2.333  -1.879  1.00  0.00     0.191 C 
BRANCH  32  33
ATOM     33  O   UNL     1      -1.343   2.061  -3.248  1.00  0.00    -0.394 OA
ATOM     34  H   UNL     1      -0.650   2.678  -3.596  1.00  0.00     0.210 HD
ENDBRANCH  32  33
ENDBRANCH  27  32
BRANCH  28  35
ATOM     35  O   UNL     1       1.537  -1.291  -0.310  1.00  0.00    -0.388 OA
ATOM     36  H   UNL     1       2.107  -0.620   0.152  1.00  0.00     0.211 HD
ENDBRANCH  28  35
BRANCH  30  37
ATOM     37  N   UNL     1      -0.592  -2.013   1.540  1.00  0.00    -0.346 N 
ATOM     38  C   UNL     1      -0.037  -2.558   2.648  1.00  0.00     0.217 C 
ATOM     39  O   UNL     1       0.715  -1.907   3.360  1.00  0.00    -0.275 OA
ATOM     40  H   UNL     1      -1.222  -2.598   0.972  1.00  0.00     0.164 HD
ATOM     41  C   UNL     1      -0.348  -3.985   3.010  1.00  0.00     0.114 C 
ENDBRANCH  30  37
BRANCH  31  42
ATOM     42  O   UNL     1      -2.816  -0.603   0.696  1.00  0.00    -0.341 OA
BRANCH  42  43
ATOM     43  C   UNL     1      -3.861  -0.472   1.661  1.00  0.00     0.184 C 
ATOM     44  C   UNL     1      -4.768  -1.739   1.761  1.00  0.00     0.178 C 
ATOM     45  C   UNL     1      -4.726   0.779   1.335  1.00  0.00     0.173 C 
ATOM     46  O   UNL     1      -5.955  -1.566   1.019  1.00  0.00    -0.342 OA
ATOM     47  C   UNL     1      -6.042   0.685   2.109  1.00  0.00     0.169 C 
ATOM     48  C   UNL     1      -6.809  -0.610   1.655  1.00  0.00     0.276 C 
BRANCH  44  49
ATOM     49  C   UNL     1      -4.064  -3.033   1.340  1.00  0.00     0.191 C 
BRANCH  49  50
ATOM     50  O   UNL     1      -4.938  -4.124   1.441  1.00  0.00    -0.394 OA
ATOM     51  H   UNL     1      -4.998  -4.352   2.405  1.00  0.00     0.210 HD
ENDBRANCH  49  50
ENDBRANCH  44  49
BRANCH  45  52
ATOM     52  O   UNL     1      -4.034   1.969   1.621  1.00  0.00    -0.388 OA
ATOM     53  H   UNL     1      -3.856   1.986   2.598  1.00  0.00     0.211 HD
ENDBRANCH  45  52
BRANCH  47  54
ATOM     54  N   UNL     1      -6.841   1.892   1.929  1.00  0.00    -0.346 N 
ATOM     55  C   UNL     1      -7.170   2.733   2.952  1.00  0.00     0.217 C 
ATOM     56  O   UNL     1      -6.808   2.499   4.096  1.00  0.00    -0.275 OA
ATOM     57  H   UNL     1      -7.154   2.127   0.974  1.00  0.00     0.164 HD
ATOM     58  C   UNL     1      -7.986   3.966   2.694  1.00  0.00     0.114 C 
ENDBRANCH  47  54
BRANCH  48  59
ATOM     59  O   UNL     1      -7.840  -0.294   0.728  1.00  0.00    -0.341 OA
BRANCH  59  60
ATOM     60  C   UNL     1      -9.087  -0.903   1.069  1.00  0.00     0.184 C 
ATOM     61  C   UNL     1      -9.806  -1.502  -0.195  1.00  0.00     0.180 C 
ATOM     62  C   UNL     1     -10.029   0.113   1.716  1.00  0.00     0.173 C 
ATOM     63  O   UNL     1     -11.240  -1.499  -0.107  1.00  0.00    -0.342 OA
ATOM     64  C   UNL     1     -11.330  -0.590   2.175  1.00  0.00     0.169 C 
ATOM     65  C   UNL     1     -11.722  -1.747   1.196  1.00  0.00     0.272 C 
BRANCH  61  66
ATOM     66  C   UNL     1      -9.462  -0.747  -1.485  1.00  0.00     0.220 C 
BRANCH  66  67
ATOM     67  O   UNL     1     -10.130  -1.387  -2.546  1.00  0.00    -0.245 OA
BRANCH  67  68
ATOM     68  S   UNL     1      -9.904  -0.479  -3.999  1.00  0.00     0.397 S 
ATOM     69  O   UNL     1      -8.437  -0.528  -4.450  1.00  0.00    -0.169 OA
ATOM     70  O   UNL     1     -10.213   1.006  -3.747  1.00  0.00    -0.169 OA
BRANCH  68  71
ATOM     71  O   UNL     1     -10.909  -1.010  -5.286  1.00  0.00    -0.264 OA
ATOM     72  H   UNL     1     -10.925  -1.997  -5.200  1.00  0.00     0.236 HD
ENDBRANCH  68  71
ENDBRANCH  67  68
ENDBRANCH  66  67
ENDBRANCH  61  66
BRANCH  62  73
ATOM     73  O   UNL     1      -9.444   0.801   2.791  1.00  0.00    -0.388 OA
ATOM     74  H   UNL     1      -9.174   0.127   3.468  1.00  0.00     0.211 HD
ENDBRANCH  62  73
BRANCH  64  75
ATOM     75  N   UNL     1     -12.381   0.417   2.257  1.00  0.00    -0.346 N 
ATOM     76  C   UNL     1     -13.011   0.746   3.421  1.00  0.00     0.217 C 
ATOM     77  O   UNL     1     -12.728   0.183   4.469  1.00  0.00    -0.275 OA
ATOM     78  H   UNL     1     -12.641   0.914   1.391  1.00  0.00     0.164 HD
ATOM     79  C   UNL     1     -14.057   1.820   3.446  1.00  0.00     0.114 C 
ENDBRANCH  64  75
BRANCH  65  80
ATOM     80  O   UNL     1     -11.322  -3.041   1.605  1.00  0.00    -0.366 OA
ATOM     81  H   UNL     1     -10.643  -2.988   2.321  1.00  0.00     0.213 HD
ENDBRANCH  65  80
ENDBRANCH  59  60
ENDBRANCH  48  59
ENDBRANCH  42  43
ENDBRANCH  31  42
ENDBRANCH  25  26
ENDBRANCH  20  25
BRANCH  21  82
ATOM     82  O   UNL     1       1.522  -0.693  -5.353  1.00  0.00    -0.388 OA
ATOM     83  H   UNL     1       0.963   0.108  -5.189  1.00  0.00     0.211 HD
ENDBRANCH  21  82
BRANCH  23  84
ATOM     84  O   UNL     1       4.767   0.777  -5.602  1.00  0.00    -0.388 OA
ATOM     85  H   UNL     1       5.272   0.735  -4.753  1.00  0.00     0.211 HD
ENDBRANCH  23  84
BRANCH  24  86
ATOM     86  C   UNL     1       3.072   3.364  -5.032  1.00  0.00     0.191 C 
BRANCH  86  87
ATOM     87  O   UNL     1       2.798   4.407  -4.135  1.00  0.00    -0.394 OA
ATOM     88  H   UNL     1       1.810   4.451  -4.042  1.00  0.00     0.210 HD
ENDBRANCH  86  87
ENDBRANCH  24  86
ENDBRANCH   3  19
TORSDOF 37
