REMARK SMILES CC(C)CCC[C@H](C)[C@H]1CC[C@@H]2[C@H]3CC(=O)[C@]45C[C@H]4CC[C@]5(C)[C@H]3CC[C@@]21C
REMARK SMILES IDX 5 1 4 2 2 3 1 4 3 5 6 6 7 7 8 8 9 9 10 10 27 11 11 12 26 13
REMARK SMILES IDX 12 14 25 15 13 16 24 17 14 18 22 19 15 20 21 21 17 22 16 23
REMARK SMILES IDX 20 24 18 25 19 26 28 27 23 28
REMARK H PARENT
ROOT
ATOM      1  C   UNL     1       4.806  -1.408   0.047  1.00  0.00     0.001 C 
ENDROOT
BRANCH   1   2
ATOM      2  C   UNL     1       4.869   0.117   0.195  1.00  0.00     0.003 C 
BRANCH   2   3
ATOM      3  C   UNL     1       6.270   0.705  -0.103  1.00  0.00    -0.017 C 
ATOM      4  C   UNL     1       6.203   2.238  -0.065  1.00  0.00     0.007 C 
ATOM      5  C   UNL     1       7.344   0.217   0.882  1.00  0.00     0.007 C 
ENDBRANCH   2   3
ENDBRANCH   1   2
BRANCH   1   6
ATOM      6  C   UNL     1       3.429  -2.088   0.289  1.00  0.00     0.003 C 
BRANCH   6   7
ATOM      7  C   UNL     1       2.220  -1.817  -0.677  1.00  0.00    -0.011 C 
ATOM      8  C   UNL     1       2.731  -1.604  -2.118  1.00  0.00     0.008 C 
BRANCH   7   9
ATOM      9  C   UNL     1       1.170  -0.791  -0.098  1.00  0.00    -0.002 C 
ATOM     10  C   UNL     1       1.546   0.689  -0.008  1.00  0.00     0.005 C 
ATOM     11  C   UNL     1      -0.295  -0.731  -0.674  1.00  0.00    -0.026 C 
ATOM     12  C   UNL     1       0.310   1.270   0.658  1.00  0.00     0.005 C 
ATOM     13  C   UNL     1      -1.117  -2.010  -0.269  1.00  0.00     0.007 C 
ATOM     14  C   UNL     1      -0.885   0.593  -0.040  1.00  0.00    -0.001 C 
ATOM     15  C   UNL     1      -2.623  -1.794  -0.504  1.00  0.00     0.005 C 
ATOM     16  C   UNL     1      -2.037   0.289   0.953  1.00  0.00     0.004 C 
ATOM     17  C   UNL     1      -3.182  -0.574   0.302  1.00  0.00    -0.000 C 
ATOM     18  C   UNL     1      -2.598   1.495   1.746  1.00  0.00     0.080 C 
ATOM     19  C   UNL     1      -4.336   0.229  -0.477  1.00  0.00    -0.017 C 
ATOM     20  C   UNL     1      -3.544   2.260   0.894  1.00  0.00     0.140 C 
ATOM     21  C   UNL     1      -5.644  -0.587  -0.479  1.00  0.00     0.008 C 
ATOM     22  C   UNL     1      -4.702   1.505   0.318  1.00  0.00     0.038 C 
ATOM     23  O   UNL     1      -3.335   3.428   0.602  1.00  0.00    -0.299 OA
ATOM     24  C   UNL     1      -6.204  -0.373   0.927  1.00  0.00     0.005 C 
ATOM     25  C   UNL     1      -6.101   2.146   0.369  1.00  0.00     0.020 C 
ATOM     26  C   UNL     1      -5.727   1.029   1.340  1.00  0.00     0.004 C 
ATOM     27  C   UNL     1      -0.334  -0.568  -2.220  1.00  0.00     0.012 C 
ATOM     28  C   UNL     1      -3.974   0.665  -1.917  1.00  0.00     0.013 C 
ENDBRANCH   7   9
ENDBRANCH   6   7
ENDBRANCH   1   6
TORSDOF 5
