REMARK SMILES OC[C@H]1O[C@@H](O[C@H]2[C@H]3c4c(O)cc(O)cc4O[C@]2(c2ccc(O)c(O)c2)Oc2cc(O)c4c(c23)O[C@H](c2ccc(O)c(O)c2)[C@H](O)C4)[C@@H](O)[C@@H](O)[C@H]1O
REMARK SMILES IDX 6 1 5 2 3 3 4 4 52 5 50 6 48 7 2 8 1 9 53 11 51 13 49 15
REMARK SMILES IDX 7 17 8 18 18 19 9 20 34 21 17 22 27 23 10 24 16 25 33 26
REMARK SMILES IDX 28 27 12 28 15 29 35 30 32 31 29 32 13 33 36 34 30 35 47 36
REMARK SMILES IDX 45 37 19 38 20 39 26 40 21 41 24 42 22 43 25 44 23 46 11 48
REMARK SMILES IDX 14 50 37 52 38 53 44 54 39 55 42 56 40 57 43 58 41 60 31 62
REMARK SMILES IDX 46 64
REMARK H PARENT 1 10 53 12 51 14 49 16 25 45 23 47 11 49 14 51 43 59 41 61
REMARK H PARENT 31 63 46 65
ROOT
ATOM      1  O   UNL     1      -2.039  -0.373   0.954  1.00  0.00    -0.337 OA
ENDROOT
BRANCH   1   2
ATOM      2  C   UNL     1      -2.685   0.807   0.511  1.00  0.00     0.282 C 
ATOM      3  C   UNL     1      -2.371   3.105   0.139  1.00  0.00     0.178 C 
ATOM      4  O   UNL     1      -1.890   1.937   0.818  1.00  0.00    -0.341 OA
ATOM      5  C   UNL     1      -3.946   3.177   0.082  1.00  0.00     0.177 C 
ATOM      6  C   UNL     1      -4.575   2.402   1.259  1.00  0.00     0.179 C 
ATOM      7  C   UNL     1      -4.089   0.919   1.188  1.00  0.00     0.202 C 
BRANCH   3   8
ATOM      8  C   UNL     1      -1.693   4.344   0.763  1.00  0.00     0.191 C 
BRANCH   8   9
ATOM      9  O   UNL     1      -2.022   4.499   2.113  1.00  0.00    -0.394 OA
ATOM     10  H   UNL     1      -1.538   5.306   2.426  1.00  0.00     0.210 HD
ENDBRANCH   8   9
ENDBRANCH   3   8
BRANCH   5  11
ATOM     11  O   UNL     1      -4.436   4.486  -0.063  1.00  0.00    -0.387 OA
ATOM     12  H   UNL     1      -4.397   4.926   0.825  1.00  0.00     0.211 HD
ENDBRANCH   5  11
BRANCH   6  13
ATOM     13  O   UNL     1      -4.262   3.022   2.485  1.00  0.00    -0.387 OA
ATOM     14  H   UNL     1      -3.397   2.674   2.817  1.00  0.00     0.211 HD
ENDBRANCH   6  13
BRANCH   7  15
ATOM     15  O   UNL     1      -4.173   0.302   2.452  1.00  0.00    -0.385 OA
ATOM     16  H   UNL     1      -3.324   0.465   2.939  1.00  0.00     0.211 HD
ENDBRANCH   7  15
ENDBRANCH   1   2
BRANCH   1  17
ATOM     17  C   UNL     1      -1.191  -0.957  -0.026  1.00  0.00     0.224 C 
ATOM     18  C   UNL     1       0.277  -0.952   0.457  1.00  0.00     0.102 C 
ATOM     19  C   UNL     1      -1.584  -2.456  -0.187  1.00  0.00     0.305 C 
ATOM     20  C   UNL     1       0.424  -1.838   1.703  1.00  0.00     0.047 A 
ATOM     21  C   UNL     1       1.083  -1.529  -0.697  1.00  0.00     0.048 A 
ATOM     22  O   UNL     1      -1.575  -3.029   1.074  1.00  0.00    -0.445 OA
ATOM     23  O   UNL     1      -0.664  -3.148  -0.975  1.00  0.00    -0.445 OA
ATOM     24  C   UNL     1       1.487  -1.690   2.634  1.00  0.00     0.126 A 
ATOM     25  C   UNL     1      -0.546  -2.849   1.939  1.00  0.00     0.136 A 
ATOM     26  C   UNL     1       2.297  -0.978  -1.154  1.00  0.00     0.135 A 
ATOM     27  C   UNL     1       0.546  -2.658  -1.351  1.00  0.00     0.136 A 
ATOM     28  C   UNL     1       1.558  -2.533   3.750  1.00  0.00     0.092 A 
ATOM     29  C   UNL     1      -0.461  -3.668   3.066  1.00  0.00     0.093 A 
ATOM     30  O   UNL     1       2.845   0.098  -0.530  1.00  0.00    -0.482 OA
ATOM     31  C   UNL     1       2.965  -1.565  -2.260  1.00  0.00     0.039 A 
ATOM     32  C   UNL     1       1.232  -3.259  -2.406  1.00  0.00     0.093 A 
ATOM     33  C   UNL     1       0.589  -3.517   3.970  1.00  0.00     0.122 A 
ATOM     34  C   UNL     1       4.177   0.443  -0.702  1.00  0.00     0.232 C 
ATOM     35  C   UNL     1       2.441  -2.721  -2.864  1.00  0.00     0.126 A 
ATOM     36  C   UNL     1       4.256  -0.956  -2.775  1.00  0.00     0.079 C 
ATOM     37  C   UNL     1       4.496   0.463  -2.207  1.00  0.00     0.164 C 
BRANCH  19  38
ATOM     38  C   UNL     1      -2.958  -2.573  -0.825  1.00  0.00     0.043 A 
ATOM     39  C   UNL     1      -4.075  -3.041  -0.106  1.00  0.00     0.016 A 
ATOM     40  C   UNL     1      -3.126  -2.213  -2.175  1.00  0.00     0.062 A 
ATOM     41  C   UNL     1      -5.324  -3.139  -0.722  1.00  0.00     0.051 A 
ATOM     42  C   UNL     1      -4.373  -2.325  -2.800  1.00  0.00     0.157 A 
ATOM     43  C   UNL     1      -5.481  -2.787  -2.069  1.00  0.00     0.157 A 
BRANCH  42  44
ATOM     44  O   UNL     1      -4.483  -1.988  -4.103  1.00  0.00    -0.504 OA
ATOM     45  H   UNL     1      -5.313  -2.062  -4.594  1.00  0.00     0.293 HD
ENDBRANCH  42  44
BRANCH  43  46
ATOM     46  O   UNL     1      -6.688  -2.890  -2.664  1.00  0.00    -0.504 OA
ATOM     47  H   UNL     1      -7.472  -3.201  -2.189  1.00  0.00     0.293 HD
ENDBRANCH  43  46
ENDBRANCH  19  38
BRANCH  24  48
ATOM     48  O   UNL     1       2.445  -0.748   2.507  1.00  0.00    -0.507 OA
ATOM     49  H   UNL     1       2.457  -0.078   1.818  1.00  0.00     0.293 HD
ENDBRANCH  24  48
BRANCH  33  50
ATOM     50  O   UNL     1       0.656  -4.323   5.050  1.00  0.00    -0.508 OA
ATOM     51  H   UNL     1       1.367  -4.251   5.702  1.00  0.00     0.293 HD
ENDBRANCH  33  50
BRANCH  34  52
ATOM     52  C   UNL     1       4.492   1.744   0.004  1.00  0.00    -0.001 A 
ATOM     53  C   UNL     1       3.788   2.927  -0.283  1.00  0.00     0.012 A 
ATOM     54  C   UNL     1       5.509   1.777   0.974  1.00  0.00     0.057 A 
ATOM     55  C   UNL     1       4.104   4.116   0.381  1.00  0.00     0.050 A 
ATOM     56  C   UNL     1       5.830   2.965   1.639  1.00  0.00     0.157 A 
ATOM     57  C   UNL     1       5.125   4.144   1.341  1.00  0.00     0.157 A 
BRANCH  56  58
ATOM     58  O   UNL     1       6.821   2.953   2.557  1.00  0.00    -0.504 OA
ATOM     59  H   UNL     1       7.093   3.742   3.045  1.00  0.00     0.293 HD
ENDBRANCH  56  58
BRANCH  57  60
ATOM     60  O   UNL     1       5.430   5.294   1.979  1.00  0.00    -0.504 OA
ATOM     61  H   UNL     1       4.966   6.123   1.797  1.00  0.00     0.293 HD
ENDBRANCH  57  60
ENDBRANCH  34  52
BRANCH  35  62
ATOM     62  O   UNL     1       3.089  -3.295  -3.900  1.00  0.00    -0.507 OA
ATOM     63  H   UNL     1       2.753  -4.086  -4.345  1.00  0.00     0.293 HD
ENDBRANCH  35  62
BRANCH  37  64
ATOM     64  O   UNL     1       3.712   1.418  -2.886  1.00  0.00    -0.389 OA
ATOM     65  H   UNL     1       2.767   1.118  -2.881  1.00  0.00     0.211 HD
ENDBRANCH  37  64
ENDBRANCH   1  17
TORSDOF 17
