REMARK SMILES C=C1C[C@@H]2O[C@H]3[C@H]4[C@@H](CC[C@@](C)(O)[C@H]42)[C@@H](C)C(=O)O[C@@]3(C)[C@H](OC(=O)CCCCCCC)C[C@@H]1O
REMARK SMILES IDX 23 1 22 2 20 3 21 4 6 5 4 6 5 7 14 8 11 9 7 10 10 11 8 12
REMARK SMILES IDX 9 13 12 14 3 15 2 16 1 17 34 18 35 20 13 22 15 24 16 25
REMARK SMILES IDX 19 27 17 28 18 29 33 31 24 33 25 34 26 35 27 36 28 37 29 38
REMARK SMILES IDX 30 39 31 40 32 41
REMARK H PARENT 35 21 13 23
REMARK Flexibility Score:  132.800
ROOT
ATOM      1  O   UNL     1       1.218  -0.268  -0.099  1.00  0.00    -0.458 OA
ENDROOT
BRANCH   1   2
ATOM      2  C   UNL     1      -0.084   0.189  -0.272  1.00  0.00     0.225 C 
BRANCH   2   3
ATOM      3  C   UNL     1      -1.067  -1.067  -0.401  1.00  0.00     0.172 C 
ATOM      4  C   UNL     1      -0.458  -2.308   0.305  1.00  0.00     0.064 C 
BRANCH   3   5
ATOM      5  C   UNL     1      -2.448  -0.829   0.233  1.00  0.00     0.170 C 
ATOM      6  C   UNL     1      -3.413   0.587   1.715  1.00  0.00     0.129 C 
ATOM      7  O   UNL     1      -2.341  -0.297   1.509  1.00  0.00    -0.370 OA
ATOM      8  C   UNL     1      -3.880   1.082   0.331  1.00  0.00     0.056 C 
ATOM      9  C   UNL     1      -5.315   1.666   0.071  1.00  0.00     0.068 C 
ATOM     10  C   UNL     1      -3.371   0.028  -0.621  1.00  0.00     0.035 C 
ATOM     11  C   UNL     1      -6.233   0.632  -0.654  1.00  0.00     0.035 C 
ATOM     12  C   UNL     1      -4.393  -0.922  -1.259  1.00  0.00     0.009 C 
ATOM     13  C   UNL     1      -5.534  -0.075  -1.848  1.00  0.00     0.008 C 
ATOM     14  C   UNL     1      -5.221   2.937  -0.804  1.00  0.00     0.042 C 
BRANCH   6  15
ATOM     15  C   UNL     1      -2.864   1.760   2.583  1.00  0.00     0.065 C 
BRANCH  15  16
ATOM     16  C   UNL     1      -1.474   1.480   3.170  1.00  0.00    -0.046 C 
ATOM     17  C   UNL     1      -1.340   1.486   4.506  1.00  0.00     0.010 C 
BRANCH  16  18
ATOM     18  C   UNL     1      -0.193   1.260   2.304  1.00  0.00     0.144 CG1
ATOM     19  G   UNL     1      -0.287   1.392   0.738  1.00  0.00     0.000 G1
BRANCH  18  20
ATOM     20  O   UNL     1       0.525   0.109   2.668  1.00  0.00    -0.389 OA
ATOM     21  H   UNL     1      -0.131  -0.581   2.939  1.00  0.00     0.211 HD
ENDBRANCH  18  20
ENDBRANCH  16  18
ENDBRANCH  15  16
ENDBRANCH   6  15
BRANCH   9  22
ATOM     22  O   UNL     1      -5.879   2.041   1.307  1.00  0.00    -0.390 OA
ATOM     23  H   UNL     1      -6.843   2.236   1.168  1.00  0.00     0.211 HD
ENDBRANCH   9  22
BRANCH  12  24
ATOM     24  C   UNL     1      -3.643  -1.986  -2.154  1.00  0.00     0.099 CG0
ATOM     25  C   UNL     1      -4.533  -2.523  -3.287  1.00  0.00     0.020 C 
ATOM     26  G   UNL     1      -2.228  -1.601  -2.627  1.00  0.00     0.000 G0
ENDBRANCH  12  24
ENDBRANCH   3   5
BRANCH   3  27
ATOM     27  O   UNL     1      -1.163  -1.388  -1.772  1.00  0.00    -0.452 OA
BRANCH  27  28
ATOM     28  C   UNL     1      -2.228  -1.601  -2.627  1.00  0.00     0.309 CG0
ATOM     29  O   UNL     1      -1.995  -1.592  -3.827  1.00  0.00    -0.252 OA
ATOM     30  G   UNL     1      -3.643  -1.986  -2.154  1.00  0.00     0.000 G0
ENDBRANCH  27  28
ENDBRANCH   3  27
ENDBRANCH   2   3
BRANCH   2  31
ATOM     31  C   UNL     1      -0.287   1.392   0.738  1.00  0.00     0.086 CG1
ATOM     32  G   UNL     1      -0.193   1.260   2.304  1.00  0.00     0.000 G1
ENDBRANCH   2  31
ENDBRANCH   1   2
BRANCH   1  33
ATOM     33  C   UNL     1       2.276  -0.126  -0.938  1.00  0.00     0.306 C 
ATOM     34  O   UNL     1       2.157   0.463  -2.003  1.00  0.00    -0.252 OA
BRANCH  33  35
ATOM     35  C   UNL     1       3.599  -0.703  -0.501  1.00  0.00     0.123 C 
BRANCH  35  36
ATOM     36  C   UNL     1       4.738  -0.455  -1.506  1.00  0.00     0.012 C 
BRANCH  36  37
ATOM     37  C   UNL     1       6.082  -1.079  -1.085  1.00  0.00     0.001 C 
BRANCH  37  38
ATOM     38  C   UNL     1       6.652  -0.486   0.218  1.00  0.00     0.000 C 
BRANCH  38  39
ATOM     39  C   UNL     1       8.023  -1.076   0.607  1.00  0.00    -0.000 C 
BRANCH  39  40
ATOM     40  C   UNL     1       9.162  -0.823  -0.399  1.00  0.00    -0.003 C 
ATOM     41  C   UNL     1       9.452   0.662  -0.618  1.00  0.00     0.004 C 
ENDBRANCH  39  40
ENDBRANCH  38  39
ENDBRANCH  37  38
ENDBRANCH  36  37
ENDBRANCH  35  36
ENDBRANCH  33  35
ENDBRANCH   1  33
TORSDOF 10
