REMARK SMILES C=C(NC(=O)c1csc(-c2nc3c(cc2O)-c2nc(cs2)C(=O)N[C@H]([C@H](C)O)C(=O)N/C(=C(\C)OC)c2nc(cs2)C(=O)N[C@@H]2c4nc(cs4)C(=O)N[C@H](COC(=O)c4c5c6c(cccc6n4O)COC(=O)[C@H](O[C@H]4C[C@@](C)(O)[C@H](N(C)C)[C@@H](C)O4)[C@@H]2OC5)c2nc-3cs2)n1)C(N)=O
REMARK SMILES IDX 51 1 52 2 53 3 54 5 90 7 92 8 91 9 93 10 94 11 12 12 10 13
REMARK SMILES IDX 11 14 15 15 14 16 13 17 9 18 6 19 7 20 95 21 8 22 4 23 3 24
REMARK SMILES IDX 5 25 2 27 1 28 96 29 97 30 98 31 16 34 17 36 18 37 21 38
REMARK SMILES IDX 19 39 20 40 22 41 23 42 24 43 25 45 26 47 27 48 28 49 48 51
REMARK SMILES IDX 47 52 49 53 46 54 50 55 45 56 44 57 42 58 43 59 39 61 38 62
REMARK SMILES IDX 40 63 37 64 41 65 32 66 33 67 34 68 31 69 29 70 30 71 35 74
REMARK SMILES IDX 36 75 87 76 88 77 89 78 60 79 59 80 61 81 67 82 62 83 66 84
REMARK SMILES IDX 63 85 65 86 64 87 57 88 58 89 56 90 55 91 68 93 69 95 70 96
REMARK SMILES IDX 71 97 72 98 73 100 74 102 75 103 76 104 86 105 77 106 84 107
REMARK SMILES IDX 80 108 78 109 85 110 79 111 81 113 82 114 83 115
REMARK H PARENT 53 4 3 26 97 32 97 33 16 35 24 44 28 50 44 60 31 72 68 94
REMARK H PARENT 79 112
REMARK Flexibility Score:  453.700
ROOT
ATOM      1  C   UNL     1       0.609  -0.607   3.582  1.00  0.00     0.271 C 
ATOM      2  O   UNL     1       1.199  -0.090   4.520  1.00  0.00    -0.267 OA
ATOM      3  N   UNL     1       1.186  -0.747   2.356  1.00  0.00    -0.338 N 
ATOM      4  H   UNL     1       0.689  -1.302   1.643  1.00  0.00     0.164 HD
ENDROOT
BRANCH   3   5
ATOM      5  C   UNL     1       2.261   0.095   1.874  1.00  0.00     0.180 CG1
ATOM      6  G   UNL     1       1.697   0.877   0.646  1.00  0.00     0.000 G1
BRANCH   5   7
ATOM      7  C   UNL     1       3.511  -0.645   1.514  1.00  0.00     0.119 A 
ATOM      8  C   UNL     1       5.696  -0.763   0.961  1.00  0.00     0.101 A 
ATOM      9  N   UNL     1       4.638   0.035   1.231  1.00  0.00    -0.237 NA
ATOM     10  C   UNL     1       5.398  -2.128   1.020  1.00  0.00     0.097 A 
ATOM     11  S   UNL     1       3.773  -2.306   1.453  1.00  0.00    -0.124 S 
BRANCH   8  12
ATOM     12  C   UNL     1       7.062  -0.219   0.738  1.00  0.00     0.101 A 
ATOM     13  C   UNL     1       9.390  -0.772   0.455  1.00  0.00     0.141 A 
ATOM     14  N   UNL     1       8.075  -1.118   0.543  1.00  0.00    -0.239 NA
ATOM     15  C   UNL     1       9.745   0.581   0.584  1.00  0.00     0.145 A 
ATOM     16  C   UNL     1       8.744   1.525   0.796  1.00  0.00     0.062 A 
ATOM     17  C   UNL     1       7.392   1.164   0.869  1.00  0.00     0.042 A 
BRANCH  13  18
ATOM     18  C   UNL     1      10.406  -1.847   0.290  1.00  0.00     0.146 A 
ATOM     19  C   UNL     1      11.189  -3.964   0.150  1.00  0.00     0.140 A 
ATOM     20  C   UNL     1      12.407  -3.286   0.165  1.00  0.00     0.101 A 
ATOM     21  N   UNL     1      10.087  -3.161   0.216  1.00  0.00    -0.229 NA
ATOM     22  S   UNL     1      12.081  -1.648   0.260  1.00  0.00    -0.120 S 
BRANCH  19  23
ATOM     23  C   UNL     1      11.102  -5.442   0.100  1.00  0.00     0.275 C 
ATOM     24  N   UNL     1       9.888  -6.062   0.006  1.00  0.00    -0.316 N 
ATOM     25  O   UNL     1      12.133  -6.087   0.212  1.00  0.00    -0.267 OA
ATOM     26  H   UNL     1       9.054  -5.455   0.021  1.00  0.00     0.170 HD
BRANCH  24  27
ATOM     27  C   UNL     1       9.652  -7.484   0.003  1.00  0.00     0.099 C 
ATOM     28  C   UNL     1       8.429  -7.907   0.376  1.00  0.00     0.043 C 
BRANCH  27  29
ATOM     29  C   UNL     1      10.665  -8.527  -0.393  1.00  0.00     0.264 C 
ATOM     30  N   UNL     1      11.687  -8.266  -1.245  1.00  0.00    -0.364 N 
ATOM     31  O   UNL     1      10.527  -9.674   0.011  1.00  0.00    -0.268 OA
ATOM     32  H   UNL     1      11.798  -7.351  -1.701  1.00  0.00     0.160 HD
ATOM     33  H   UNL     1      12.347  -9.014  -1.504  1.00  0.00     0.160 HD
ENDBRANCH  27  29
ENDBRANCH  24  27
ENDBRANCH  19  23
ENDBRANCH  13  18
BRANCH  15  34
ATOM     34  O   UNL     1      11.033   0.984   0.518  1.00  0.00    -0.506 OA
ATOM     35  H   UNL     1      11.293   1.911   0.607  1.00  0.00     0.293 HD
ENDBRANCH  15  34
BRANCH  17  36
ATOM     36  C   UNL     1       6.438   2.282   1.127  1.00  0.00     0.126 A 
ATOM     37  N   UNL     1       5.298   2.543   0.431  1.00  0.00    -0.231 NA
ATOM     38  S   UNL     1       6.765   3.515   2.226  1.00  0.00    -0.122 S 
ATOM     39  C   UNL     1       4.722   3.725   0.823  1.00  0.00     0.139 A 
ATOM     40  C   UNL     1       5.396   4.389   1.847  1.00  0.00     0.101 A 
BRANCH  39  41
ATOM     41  C   UNL     1       3.553   4.356   0.154  1.00  0.00     0.271 C 
ATOM     42  O   UNL     1       3.145   5.421   0.591  1.00  0.00    -0.267 OA
ATOM     43  N   UNL     1       3.007   3.831  -0.987  1.00  0.00    -0.337 N 
ATOM     44  H   UNL     1       3.370   2.933  -1.342  1.00  0.00     0.164 HD
BRANCH  43  45
ATOM     45  C   UNL     1       2.047   4.546  -1.837  1.00  0.00     0.200 CG0
ATOM     46  G   UNL     1       0.704   4.818  -1.137  1.00  0.00     0.000 G0
BRANCH  45  47
ATOM     47  C   UNL     1       2.776   5.825  -2.395  1.00  0.00     0.143 C 
ATOM     48  C   UNL     1       2.000   6.709  -3.377  1.00  0.00     0.041 C 
BRANCH  47  49
ATOM     49  O   UNL     1       3.988   5.441  -2.997  1.00  0.00    -0.391 OA
ATOM     50  H   UNL     1       3.766   4.865  -3.775  1.00  0.00     0.211 HD
ENDBRANCH  47  49
ENDBRANCH  45  47
ENDBRANCH  43  45
ENDBRANCH  39  41
ENDBRANCH  17  36
ENDBRANCH   8  12
ENDBRANCH   5   7
ENDBRANCH   3   5
BRANCH   1  51
ATOM     51  C   UNL     1      -0.842  -0.813   3.636  1.00  0.00     0.139 A 
ATOM     52  N   UNL     1      -1.489  -0.646   2.468  1.00  0.00    -0.234 NA
ATOM     53  C   UNL     1      -1.680  -0.932   4.743  1.00  0.00     0.101 A 
ATOM     54  C   UNL     1      -2.814  -0.610   2.571  1.00  0.00     0.119 A 
ATOM     55  S   UNL     1      -3.285  -0.838   4.175  1.00  0.00    -0.124 S 
BRANCH  54  56
ATOM     56  C   UNL     1      -3.609  -0.146   1.383  1.00  0.00     0.174 C 
BRANCH  56  57
ATOM     57  N   UNL     1      -3.120   1.184   1.019  1.00  0.00    -0.339 N 
ATOM     58  C   UNL     1      -3.288   2.263   1.838  1.00  0.00     0.271 C 
ATOM     59  O   UNL     1      -3.838   2.131   2.923  1.00  0.00    -0.267 OA
ATOM     60  H   UNL     1      -2.691   1.332   0.093  1.00  0.00     0.164 HD
BRANCH  58  61
ATOM     61  C   UNL     1      -2.904   3.620   1.393  1.00  0.00     0.139 A 
ATOM     62  N   UNL     1      -2.248   3.857   0.221  1.00  0.00    -0.229 NA
ATOM     63  C   UNL     1      -3.283   4.762   2.097  1.00  0.00     0.101 A 
ATOM     64  C   UNL     1      -2.126   5.181  -0.031  1.00  0.00     0.144 A 
ATOM     65  S   UNL     1      -2.838   6.099   1.193  1.00  0.00    -0.120 S 
BRANCH  64  66
ATOM     66  C   UNL     1      -1.631   5.721  -1.326  1.00  0.00     0.115 C 
ATOM     67  C   UNL     1      -2.475   6.553  -2.021  1.00  0.00     0.119 C 
ATOM     68  C   UNL     1      -2.123   7.222  -3.341  1.00  0.00     0.089 C 
BRANCH  66  69
ATOM     69  N   UNL     1      -0.345   5.332  -1.854  1.00  0.00    -0.319 N 
ATOM     70  C   UNL     1       0.704   4.818  -1.137  1.00  0.00     0.249 CG0
ATOM     71  O   UNL     1       0.581   4.577   0.055  1.00  0.00    -0.272 OA
ATOM     72  H   UNL     1      -0.178   5.465  -2.853  1.00  0.00     0.170 HD
ATOM     73  G   UNL     1       2.047   4.546  -1.837  1.00  0.00     0.000 G0
ENDBRANCH  66  69
BRANCH  67  74
ATOM     74  O   UNL     1      -3.719   6.775  -1.504  1.00  0.00    -0.499 OA
ATOM     75  C   UNL     1      -4.786   7.338  -2.172  1.00  0.00     0.278 C 
ENDBRANCH  67  74
ENDBRANCH  64  66
ENDBRANCH  58  61
ENDBRANCH  56  57
BRANCH  56  76
ATOM     76  C   UNL     1      -3.470  -1.120   0.168  1.00  0.00     0.188 C 
BRANCH  76  77
ATOM     77  O   UNL     1      -2.218  -1.835   0.195  1.00  0.00    -0.367 OA
BRANCH  77  78
ATOM     78  C   UNL     1      -1.506  -1.634  -1.014  1.00  0.00     0.199 C 
BRANCH  78  79
ATOM     79  C   UNL     1      -0.362  -2.607  -1.262  1.00  0.00     0.022 A 
ATOM     80  C   UNL     1       1.006  -2.223  -1.340  1.00  0.00     0.171 A 
ATOM     81  C   UNL     1      -0.403  -3.995  -1.617  1.00  0.00     0.016 A 
ATOM     82  N   UNL     1       1.737  -3.276  -1.758  1.00  0.00    -0.179 N 
ATOM     83  C   UNL     1      -1.408  -5.024  -1.749  1.00  0.00    -0.001 A 
ATOM     84  C   UNL     1       0.915  -4.321  -1.934  1.00  0.00     0.088 A 
ATOM     85  C   UNL     1      -0.993  -6.291  -2.229  1.00  0.00     0.008 A 
ATOM     86  C   UNL     1       1.303  -5.586  -2.388  1.00  0.00     0.030 A 
ATOM     87  C   UNL     1       0.336  -6.566  -2.542  1.00  0.00     0.003 A 
BRANCH  80  88
ATOM     88  C   UNL     1       1.667  -0.910  -1.017  1.00  0.00     0.358 C 
ATOM     89  O   UNL     1       2.840  -0.749  -1.323  1.00  0.00    -0.244 OA
BRANCH  88  90
ATOM     90  O   UNL     1       1.050   0.030  -0.259  1.00  0.00    -0.458 OA
BRANCH  90  91
ATOM     91  C   UNL     1       1.697   0.877   0.646  1.00  0.00     0.265 CG1
ATOM     92  G   UNL     1       2.261   0.095   1.874  1.00  0.00     0.000 G1
ENDBRANCH  90  91
ENDBRANCH  88  90
ENDBRANCH  80  88
BRANCH  82  93
ATOM     93  O   UNL     1       3.058  -3.265  -1.957  1.00  0.00    -0.428 OA
ATOM     94  H   UNL     1       3.549  -4.039  -2.261  1.00  0.00     0.327 HD
ENDBRANCH  82  93
BRANCH  83  95
ATOM     95  C   UNL     1      -2.884  -5.008  -1.412  1.00  0.00     0.269 C 
BRANCH  95  96
ATOM     96  O   UNL     1      -3.279  -3.938  -0.665  1.00  0.00    -0.459 OA
BRANCH  96  97
ATOM     97  C   UNL     1      -4.361  -3.164  -0.908  1.00  0.00     0.338 CG2
ATOM     98  O   UNL     1      -5.062  -3.339  -1.896  1.00  0.00    -0.249 OA
ATOM     99  G   UNL     1      -4.674  -2.084   0.083  1.00  0.00     0.000 G2
ENDBRANCH  96  97
ENDBRANCH  95  96
ENDBRANCH  83  95
ENDBRANCH  78  79
ENDBRANCH  77  78
ENDBRANCH  76  77
BRANCH  76 100
ATOM    100  C   UNL     1      -4.674  -2.084   0.083  1.00  0.00     0.262 CG2
ATOM    101  G   UNL     1      -4.361  -3.164  -0.908  1.00  0.00     0.000 G2
BRANCH 100 102
ATOM    102  O   UNL     1      -5.788  -1.355  -0.414  1.00  0.00    -0.335 OA
BRANCH 102 103
ATOM    103  C   UNL     1      -6.855  -1.149   0.488  1.00  0.00     0.254 C 
ATOM    104  C   UNL     1      -7.213   0.360   0.395  1.00  0.00     0.099 C 
ATOM    105  O   UNL     1      -7.924  -1.971   0.050  1.00  0.00    -0.348 OA
ATOM    106  C   UNL     1      -8.676   0.560  -0.049  1.00  0.00     0.085 C 
ATOM    107  C   UNL     1      -9.110  -1.788   0.813  1.00  0.00     0.138 C 
ATOM    108  C   UNL     1      -9.564  -0.273   0.952  1.00  0.00     0.116 C 
ATOM    109  C   UNL     1      -9.024   2.061  -0.211  1.00  0.00     0.044 C 
ATOM    110  C   UNL     1     -10.214  -2.603   0.131  1.00  0.00     0.040 C 
BRANCH 106 111
ATOM    111  O   UNL     1      -8.872  -0.002  -1.333  1.00  0.00    -0.388 OA
ATOM    112  H   UNL     1      -8.152   0.321  -1.938  1.00  0.00     0.211 HD
ENDBRANCH 106 111
BRANCH 108 113
ATOM    113  N   UNL     1      -9.532   0.083   2.414  1.00  0.00    -0.301 NA
ATOM    114  C   UNL     1     -10.655  -0.579   3.122  1.00  0.00     0.105 C 
ATOM    115  C   UNL     1      -9.605   1.517   2.735  1.00  0.00     0.105 C 
ENDBRANCH 108 113
ENDBRANCH 102 103
ENDBRANCH 100 102
ENDBRANCH  76 100
ENDBRANCH  56  76
ENDBRANCH  54  56
ENDBRANCH   1  51
TORSDOF 13
