REMARK SMILES COc1c(C)ccc2c1C(=O)c1c(O)c3c(c(O)c1C2=O)C[C@](C)(O)C[C@@H]3O[C@@H]1O[C@H](C)[C@H](O)[C@@H](OC)[C@H]1O
REMARK SMILES IDX 28 1 27 2 3 3 4 4 9 5 6 6 8 7 10 8 7 9 20 10 11 11 12 12
REMARK SMILES IDX 19 13 21 14 13 15 17 16 15 17 16 18 22 19 26 20 23 21 5 22
REMARK SMILES IDX 24 23 2 24 1 25 14 26 18 28 25 30 29 32 30 33 38 34 31 35
REMARK SMILES IDX 35 36 33 37 32 38 39 39 36 41 37 42 34 43
REMARK H PARENT 14 27 18 29 25 31 39 40 34 44
ROOT
ATOM      1  O   UNL     1      -1.901   1.004  -0.762  1.00  0.00    -0.342 OA
ENDROOT
BRANCH   1   2
ATOM      2  C   UNL     1      -0.956   0.999  -1.819  1.00  0.00     0.158 C 
ATOM      3  C   UNL     1       5.006  -2.376   1.605  1.00  0.00     0.133 A 
ATOM      4  C   UNL     1       6.295  -2.265   2.177  1.00  0.00    -0.008 A 
ATOM      5  C   UNL     1       4.343  -1.216   1.107  1.00  0.00     0.076 A 
ATOM      6  C   UNL     1       6.902  -1.010   2.269  1.00  0.00     0.008 A 
ATOM      7  C   UNL     1       4.987   0.030   1.194  1.00  0.00     0.038 A 
ATOM      8  C   UNL     1       2.984  -1.287   0.492  1.00  0.00     0.202 C 
ATOM      9  C   UNL     1       6.259   0.122   1.784  1.00  0.00     0.013 A 
ATOM     10  C   UNL     1       4.337   1.245   0.655  1.00  0.00     0.198 C 
ATOM     11  O   UNL     1       2.444  -2.376   0.417  1.00  0.00    -0.288 OA
ATOM     12  C   UNL     1       2.297  -0.058  -0.053  1.00  0.00     0.080 A 
ATOM     13  C   UNL     1       2.986   1.181   0.012  1.00  0.00     0.080 A 
ATOM     14  O   UNL     1       4.929   2.312   0.744  1.00  0.00    -0.288 OA
ATOM     15  C   UNL     1       0.994  -0.087  -0.647  1.00  0.00     0.133 A 
ATOM     16  C   UNL     1       2.402   2.353  -0.531  1.00  0.00     0.131 A 
ATOM     17  C   UNL     1       0.423   1.087  -1.182  1.00  0.00     0.031 A 
ATOM     18  C   UNL     1       1.119   2.314  -1.121  1.00  0.00     0.007 A 
ATOM     19  C   UNL     1       0.523   3.592  -1.704  1.00  0.00     0.075 C 
ATOM     20  C   UNL     1      -1.227   2.169  -2.784  1.00  0.00     0.072 C 
ATOM     21  C   UNL     1      -0.973   3.512  -2.096  1.00  0.00     0.069 C 
ATOM     22  C   UNL     1       7.067  -3.457   2.681  1.00  0.00     0.048 C 
ATOM     23  C   UNL     1      -1.331   4.664  -3.057  1.00  0.00     0.042 C 
BRANCH   3  24
ATOM     24  O   UNL     1       4.412  -3.591   1.515  1.00  0.00    -0.496 OA
ATOM     25  C   UNL     1       3.756  -4.182   2.576  1.00  0.00     0.278 C 
ENDBRANCH   3  24
BRANCH  15  26
ATOM     26  O   UNL     1       0.243  -1.212  -0.747  1.00  0.00    -0.507 OA
ATOM     27  H   UNL     1       0.435  -2.097  -0.428  1.00  0.00     0.293 HD
ENDBRANCH  15  26
BRANCH  16  28
ATOM     28  O   UNL     1       3.096   3.516  -0.473  1.00  0.00    -0.507 OA
ATOM     29  H   UNL     1       2.804   4.364  -0.830  1.00  0.00     0.293 HD
ENDBRANCH  16  28
BRANCH  21  30
ATOM     30  O   UNL     1      -1.790   3.595  -0.949  1.00  0.00    -0.390 OA
ATOM     31  H   UNL     1      -1.651   4.485  -0.532  1.00  0.00     0.211 HD
ENDBRANCH  21  30
ENDBRANCH   1   2
BRANCH   1  32
ATOM     32  C   UNL     1      -2.850  -0.039  -0.849  1.00  0.00     0.282 C 
ATOM     33  O   UNL     1      -3.795   0.282  -1.877  1.00  0.00    -0.344 OA
ATOM     34  C   UNL     1      -3.526  -0.128   0.537  1.00  0.00     0.202 C 
ATOM     35  C   UNL     1      -5.082  -0.341  -1.772  1.00  0.00     0.150 C 
ATOM     36  C   UNL     1      -4.614  -1.229   0.596  1.00  0.00     0.183 C 
ATOM     37  C   UNL     1      -5.087  -1.572  -0.833  1.00  0.00     0.175 C 
ATOM     38  C   UNL     1      -6.139   0.714  -1.411  1.00  0.00     0.041 C 
BRANCH  34  39
ATOM     39  O   UNL     1      -2.601  -0.247   1.589  1.00  0.00    -0.385 OA
ATOM     40  H   UNL     1      -1.989  -0.996   1.363  1.00  0.00     0.211 HD
ENDBRANCH  34  39
BRANCH  36  41
ATOM     41  O   UNL     1      -4.112  -2.425   1.176  1.00  0.00    -0.376 OA
ATOM     42  C   UNL     1      -4.558  -2.561   2.508  1.00  0.00     0.195 C 
ENDBRANCH  36  41
BRANCH  37  43
ATOM     43  O   UNL     1      -6.310  -2.266  -0.836  1.00  0.00    -0.388 OA
ATOM     44  H   UNL     1      -6.963  -1.736  -0.311  1.00  0.00     0.211 HD
ENDBRANCH  37  43
ENDBRANCH   1  32
TORSDOF 9
