REMARK SMILES O=C(Nc1ccccc1)Nc1ccc([C@H]2OCC(=O)N(Cc3ccncc3)[C@@H]2CO)cc1
REMARK SMILES IDX 15 1 16 2 17 3 18 4 19 5 20 6 28 7 14 8 11 9 12 10 32 11
REMARK SMILES IDX 13 12 31 13 10 14 1 15 2 16 3 17 4 20 5 21 9 22 6 23 8 24
REMARK SMILES IDX 7 25 29 26 30 27 21 29 22 30 23 31 27 32 24 33 26 34 25 35
REMARK H PARENT 3 18 10 19 30 28
ROOT
ATOM      1  C   UNL     1      -1.688   1.119   0.947  1.00  0.00     0.174 C 
ATOM      2  O   UNL     1      -1.857   2.307   0.154  1.00  0.00    -0.361 OA
ATOM      3  C   UNL     1      -2.839   2.171  -0.853  1.00  0.00     0.261 C 
ATOM      4  C   UNL     1      -4.143   1.848  -0.190  1.00  0.00     0.249 C 
ATOM      5  O   UNL     1      -5.132   2.539  -0.393  1.00  0.00    -0.272 OA
ATOM      6  N   UNL     1      -4.159   0.815   0.702  1.00  0.00    -0.328 N 
ATOM      7  C   UNL     1      -2.887   0.089   0.843  1.00  0.00     0.144 C 
ENDROOT
BRANCH   1   8
ATOM      8  C   UNL     1      -0.311   0.548   0.604  1.00  0.00    -0.017 A 
ATOM      9  C   UNL     1       2.296  -0.326  -0.141  1.00  0.00     0.042 A 
ATOM     10  C   UNL     1       1.175  -1.150  -0.320  1.00  0.00     0.026 A 
ATOM     11  C   UNL     1       2.095   0.947   0.442  1.00  0.00     0.026 A 
ATOM     12  C   UNL     1      -0.102  -0.731   0.048  1.00  0.00     0.008 A 
ATOM     13  C   UNL     1       0.810   1.371   0.802  1.00  0.00     0.008 A 
BRANCH   9  14
ATOM     14  N   UNL     1       3.564  -0.816  -0.613  1.00  0.00    -0.308 N 
ATOM     15  O   UNL     1       4.932   0.758   0.224  1.00  0.00    -0.248 OA
ATOM     16  C   UNL     1       4.797  -0.247  -0.452  1.00  0.00     0.323 C 
ATOM     17  N   UNL     1       5.872  -0.808  -1.086  1.00  0.00    -0.308 N 
ATOM     18  H   UNL     1       5.680  -1.606  -1.711  1.00  0.00     0.171 HD
ATOM     19  H   UNL     1       3.529  -1.692  -1.159  1.00  0.00     0.171 HD
BRANCH  17  20
ATOM     20  C   UNL     1       7.236  -0.362  -1.036  1.00  0.00     0.042 A 
ATOM     21  C   UNL     1       8.122  -0.834  -2.025  1.00  0.00     0.026 A 
ATOM     22  C   UNL     1       7.746   0.510  -0.044  1.00  0.00     0.026 A 
ATOM     23  C   UNL     1       9.462  -0.439  -2.039  1.00  0.00     0.002 A 
ATOM     24  C   UNL     1       9.091   0.893  -0.060  1.00  0.00     0.002 A 
ATOM     25  C   UNL     1       9.946   0.425  -1.057  1.00  0.00     0.000 A 
ENDBRANCH  17  20
ENDBRANCH   9  14
ENDBRANCH   1   8
BRANCH   7  26
ATOM     26  C   UNL     1      -2.844  -0.965   1.978  1.00  0.00     0.184 C 
BRANCH  26  27
ATOM     27  O   UNL     1      -3.040  -0.366   3.234  1.00  0.00    -0.394 OA
ATOM     28  H   UNL     1      -2.144  -0.209   3.631  1.00  0.00     0.210 HD
ENDBRANCH  26  27
ENDBRANCH   7  26
BRANCH   6  29
ATOM     29  C   UNL     1      -5.404   0.465   1.390  1.00  0.00     0.155 C 
BRANCH  29  30
ATOM     30  C   UNL     1      -6.386  -0.096   0.390  1.00  0.00    -0.026 A 
ATOM     31  C   UNL     1      -6.067  -1.272  -0.308  1.00  0.00     0.025 A 
ATOM     32  C   UNL     1      -7.611   0.536   0.135  1.00  0.00     0.025 A 
ATOM     33  C   UNL     1      -6.969  -1.790  -1.239  1.00  0.00     0.111 A 
ATOM     34  C   UNL     1      -8.485  -0.015  -0.808  1.00  0.00     0.111 A 
ATOM     35  N   UNL     1      -8.149  -1.155  -1.468  1.00  0.00    -0.265 NA
ENDBRANCH  29  30
ENDBRANCH   6  29
TORSDOF 7
