REMARK SMILES CCC(=O)N[C@@H](NC(=S)N1C[C@@H]2C[C@H](C1)c1cccc(=O)n1C2)C(Cl)(Cl)Cl
REMARK SMILES IDX 3 1 4 2 5 3 2 5 1 6 6 7 7 8 8 9 9 10 10 12 11 13 15 14 12 15
REMARK SMILES IDX 14 16 13 17 23 18 16 19 22 20 17 21 20 22 18 23 19 24 21 25
REMARK SMILES IDX 24 26 25 27 26 28 27 29
REMARK H PARENT 5 4 7 11
ROOT
ATOM      1  C   UNL     1       4.738  -0.117   0.091  1.00  0.00     0.221 C 
ATOM      2  O   UNL     1       4.942  -1.099  -0.612  1.00  0.00    -0.275 OA
ATOM      3  N   UNL     1       3.650   0.678  -0.125  1.00  0.00    -0.332 N 
ATOM      4  H   UNL     1       3.527   1.497   0.485  1.00  0.00     0.165 HD
ENDROOT
BRANCH   1   5
ATOM      5  C   UNL     1       5.697   0.226   1.208  1.00  0.00     0.096 C 
ATOM      6  C   UNL     1       6.874  -0.747   1.310  1.00  0.00     0.014 C 
ENDBRANCH   1   5
BRANCH   3   7
ATOM      7  C   UNL     1       2.675   0.432  -1.185  1.00  0.00     0.230 C 
BRANCH   7   8
ATOM      8  N   UNL     1       1.351   0.092  -0.634  1.00  0.00    -0.339 N 
ATOM      9  C   UNL     1       0.492   0.841   0.264  1.00  0.00     0.170 C 
ATOM     10  S   UNL     1       0.944   2.115   0.779  1.00  0.00    -0.041 S 
ATOM     11  H   UNL     1       1.041  -0.835  -0.936  1.00  0.00     0.165 HD
BRANCH   9  12
ATOM     12  N   UNL     1      -0.805   0.303   0.698  1.00  0.00    -0.348 N 
ATOM     13  C   UNL     1      -1.502   0.981   1.807  1.00  0.00     0.124 C 
ATOM     14  C   UNL     1      -1.028  -1.147   0.608  1.00  0.00     0.128 C 
ATOM     15  C   UNL     1      -2.973   0.547   2.010  1.00  0.00     0.029 C 
ATOM     16  C   UNL     1      -2.509  -1.520   0.790  1.00  0.00     0.056 C 
ATOM     17  C   UNL     1      -3.050  -0.965   2.109  1.00  0.00     0.019 C 
ATOM     18  C   UNL     1      -3.936   1.046   0.905  1.00  0.00     0.131 C 
ATOM     19  C   UNL     1      -3.299  -0.989  -0.387  1.00  0.00     0.026 A 
ATOM     20  N   UNL     1      -3.962   0.215  -0.318  1.00  0.00    -0.312 N 
ATOM     21  C   UNL     1      -3.358  -1.759  -1.560  1.00  0.00     0.022 A 
ATOM     22  C   UNL     1      -4.714   0.652  -1.399  1.00  0.00     0.250 A 
ATOM     23  C   UNL     1      -4.102  -1.316  -2.646  1.00  0.00     0.007 A 
ATOM     24  C   UNL     1      -4.787  -0.109  -2.568  1.00  0.00     0.072 A 
ATOM     25  O   UNL     1      -5.324   1.708  -1.345  1.00  0.00    -0.269 OA
ENDBRANCH   9  12
ENDBRANCH   7   8
BRANCH   7  26
ATOM     26  C   UNL     1       2.679   1.562  -2.258  1.00  0.00     0.228 C 
ATOM     27  Cl  UNL     1       4.269   1.573  -3.071  1.00  0.00    -0.079 Cl
ATOM     28  Cl  UNL     1       2.427   3.225  -1.670  1.00  0.00    -0.079 Cl
ATOM     29  Cl  UNL     1       1.448   1.219  -3.503  1.00  0.00    -0.079 Cl
ENDBRANCH   7  26
ENDBRANCH   3   7
TORSDOF 5
