REMARK SMILES CC1(C)C[C@H](O)C[C@@]2(C)OC(=O)C=C12
REMARK SMILES IDX 1 1 2 2 3 3 4 4 5 5 7 6 8 7 9 8 10 9 11 10 12 11 13 12 14 13
REMARK SMILES IDX 6 14
REMARK H PARENT 6 15
ROOT
ATOM      1  C   UNL     1      -2.081   1.534  -0.486  1.00  0.00     0.016 C 
ATOM      2  C   UNL     1      -1.065   0.498   0.054  1.00  0.00    -0.008 C 
ATOM      3  C   UNL     1      -1.354   0.347   1.564  1.00  0.00     0.016 C 
ATOM      4  C   UNL     1      -1.268  -0.843  -0.719  1.00  0.00     0.043 C 
ATOM      5  C   UNL     1      -0.142  -1.899  -0.498  1.00  0.00     0.119 C 
ATOM      6  C   UNL     1       1.247  -1.299  -0.862  1.00  0.00     0.085 C 
ATOM      7  C   UNL     1       1.570  -0.013  -0.064  1.00  0.00     0.134 C 
ATOM      8  C   UNL     1       1.978  -0.299   1.395  1.00  0.00     0.062 C 
ATOM      9  O   UNL     1       2.620   0.683  -0.641  1.00  0.00    -0.452 OA
ATOM     10  C   UNL     1       2.197   1.899  -1.025  1.00  0.00     0.331 C 
ATOM     11  O   UNL     1       2.919   2.729  -1.552  1.00  0.00    -0.247 OA
ATOM     12  C   UNL     1       0.782   2.055  -0.798  1.00  0.00     0.097 C 
ATOM     13  C   UNL     1       0.378   0.921  -0.229  1.00  0.00    -0.014 C 
ENDROOT
BRANCH   5  14
ATOM     14  O   UNL     1      -0.144  -2.394   0.812  1.00  0.00    -0.393 OA
ATOM     15  H   UNL     1      -0.990  -2.900   0.927  1.00  0.00     0.210 HD
ENDBRANCH   5  14
TORSDOF 1
