REMARK SMILES C=C1CC[C@H]2[C@@H]([C@@H]3[C@@H]1CC[C@]3(C)O)C2(C)C
REMARK SMILES IDX 7 1 8 2 9 3 10 4 11 5 12 6 2 7 1 8 3 9 6 11 5 12 14 13 15 14
REMARK SMILES IDX 16 15 4 16 13 18
REMARK H PARENT 13 19
REMARK Flexibility Score:    5.900
ROOT
ATOM      1  C   UNL     1      -0.534  -0.291  -0.038  1.00  0.00     0.032 C 
ATOM      2  C   UNL     1      -1.422   0.804   0.565  1.00  0.00     0.021 C 
ATOM      3  C   UNL     1      -2.704   0.566  -0.241  1.00  0.00     0.011 C 
ATOM      4  C   UNL     1      -2.894  -0.938  -0.086  1.00  0.00     0.036 C 
ATOM      5  C   UNL     1      -1.462  -1.541  -0.056  1.00  0.00     0.066 C 
ATOM      6  C   UNL     1      -1.163  -2.432  -1.276  1.00  0.00     0.042 C 
ENDROOT
BRANCH   2   7
ATOM      7  C   UNL     1      -0.936   2.262   0.536  1.00  0.00    -0.074 C 
ATOM      8  C   UNL     1      -1.775   3.193   1.025  1.00  0.00     0.008 C 
BRANCH   7   9
ATOM      9  C   UNL     1       0.424   2.783   0.063  1.00  0.00     0.031 CG0
ATOM     10  G   UNL     1       1.435   1.784  -0.498  1.00  0.00     0.000 G0
ENDBRANCH   7   9
ENDBRANCH   2   7
BRANCH   1  11
ATOM     11  C   UNL     1       0.795  -0.488   0.727  1.00  0.00     0.005 C 
ATOM     12  C   UNL     1       1.778   0.700   0.542  1.00  0.00    -0.001 C 
ATOM     13  C   UNL     1       2.164  -0.695   0.058  1.00  0.00    -0.029 C 
ATOM     14  C   UNL     1       3.225  -1.375   0.932  1.00  0.00     0.011 C 
ATOM     15  C   UNL     1       2.248  -1.023  -1.445  1.00  0.00     0.011 C 
BRANCH  12  16
ATOM     16  C   UNL     1       1.435   1.784  -0.498  1.00  0.00     0.009 CG0
ATOM     17  G   UNL     1       0.424   2.783   0.063  1.00  0.00     0.000 G0
ENDBRANCH  12  16
ENDBRANCH   1  11
BRANCH   5  18
ATOM     18  O   UNL     1      -1.297  -2.287   1.130  1.00  0.00    -0.390 OA
ATOM     19  H   UNL     1      -1.953  -3.033   1.112  1.00  0.00     0.211 HD
ENDBRANCH   5  18
TORSDOF 1
