REMARK SMILES C[C@]12CCC(=O)C[C@@H]1C(=O)C[C@@H]1[C@@H]2CC[C@@]2(C)[C@H]1CC[C@]2(C)O
REMARK SMILES IDX 22 1 21 2 20 3 19 4 18 5 12 6 11 7 9 8 10 9 8 10 7 11 5 12
REMARK SMILES IDX 6 13 4 14 3 15 2 16 1 17 13 18 14 19 15 20 16 21 17 22 23 23
REMARK H PARENT 23 24
ROOT
ATOM      1  C   UNL     1      -3.853   1.301  -1.859  1.00  0.00     0.042 C 
ATOM      2  C   UNL     1      -3.734   0.502  -0.538  1.00  0.00     0.068 C 
ATOM      3  C   UNL     1      -3.788   1.492   0.682  1.00  0.00     0.036 C 
ATOM      4  C   UNL     1      -2.541   1.224   1.532  1.00  0.00     0.007 C 
ATOM      5  C   UNL     1      -1.544   0.810   0.456  1.00  0.00     0.002 C 
ATOM      6  C   UNL     1      -0.145   0.300   0.880  1.00  0.00     0.004 C 
ATOM      7  C   UNL     1       0.588   1.369   1.713  1.00  0.00     0.080 C 
ATOM      8  C   UNL     1       1.984   0.906   1.991  1.00  0.00     0.137 C 
ATOM      9  O   UNL     1       2.388   0.780   3.138  1.00  0.00    -0.299 OA
ATOM     10  C   UNL     1       2.846   0.588   0.795  1.00  0.00     0.069 C 
ATOM     11  C   UNL     1       4.290   0.157   1.184  1.00  0.00     0.087 C 
ATOM     12  C   UNL     1       5.044  -0.293  -0.044  1.00  0.00     0.133 C 
ATOM     13  O   UNL     1       6.154  -0.792   0.055  1.00  0.00    -0.300 OA
ATOM     14  C   UNL     1       4.409  -0.095  -1.387  1.00  0.00     0.076 C 
ATOM     15  C   UNL     1       2.978  -0.676  -1.439  1.00  0.00     0.015 C 
ATOM     16  C   UNL     1       2.152  -0.507  -0.101  1.00  0.00    -0.019 C 
ATOM     17  C   UNL     1       2.150  -1.880   0.646  1.00  0.00     0.012 C 
ATOM     18  C   UNL     1       0.671  -0.045  -0.424  1.00  0.00    -0.001 C 
ATOM     19  C   UNL     1      -0.117  -1.053  -1.324  1.00  0.00     0.005 C 
ATOM     20  C   UNL     1      -1.538  -0.540  -1.653  1.00  0.00     0.010 C 
ATOM     21  C   UNL     1      -2.343  -0.229  -0.358  1.00  0.00    -0.001 C 
ATOM     22  C   UNL     1      -2.580  -1.576   0.423  1.00  0.00     0.015 C 
ENDROOT
BRANCH   2  23
ATOM     23  O   UNL     1      -4.795  -0.426  -0.494  1.00  0.00    -0.390 OA
ATOM     24  H   UNL     1      -5.644   0.084  -0.419  1.00  0.00     0.211 HD
ENDBRANCH   2  23
TORSDOF 1
