REMARK SMILES C[N+](C)(C)c1ccc(C=O)cc1
REMARK SMILES IDX 5 1 6 2 7 3 8 4 11 5 12 6 2 7 1 8 3 9 4 10 9 11 10 12
REMARK H PARENT
ROOT
ATOM      1  C   UNL     1      -0.077   0.027   0.014  1.00  0.00     0.132 A 
ATOM      2  C   UNL     1       0.507   1.304   0.242  1.00  0.00     0.068 A 
ATOM      3  C   UNL     1       1.889   1.497   0.165  1.00  0.00     0.017 A 
ATOM      4  C   UNL     1       2.744   0.434  -0.139  1.00  0.00     0.015 A 
ATOM      5  C   UNL     1       2.197  -0.834  -0.368  1.00  0.00     0.017 A 
ATOM      6  C   UNL     1       0.817  -1.035  -0.295  1.00  0.00     0.068 A 
ENDROOT
BRANCH   1   7
ATOM      7  N   UNL     1      -1.522  -0.207   0.084  1.00  0.00    -0.298 N 
ATOM      8  C   UNL     1      -1.802  -1.252   1.083  1.00  0.00     0.340 C 
ATOM      9  C   UNL     1      -1.993  -0.695  -1.222  1.00  0.00     0.340 C 
ATOM     10  C   UNL     1      -2.302   0.990   0.439  1.00  0.00     0.340 C 
ENDBRANCH   1   7
BRANCH   4  11
ATOM     11  C   UNL     1       4.202   0.666  -0.213  1.00  0.00     0.260 C 
ATOM     12  O   UNL     1       4.972  -0.245  -0.476  1.00  0.00    -0.298 OA
ENDBRANCH   4  11
TORSDOF 2
