REMARK SMILES CCCCCCCCC=CCCCCC=CCCCC(=O)OC
REMARK SMILES IDX 11 1 10 2 9 3 8 4 7 5 6 6 5 7 4 8 3 9 2 10 1 11 12 12 13 13
REMARK SMILES IDX 14 14 15 15 16 16 17 17 18 18 19 19 20 20 21 21 22 22 23 23
REMARK H PARENT
ROOT
ATOM      1  C   UNL     1      -0.139  -1.354   1.109  1.00  0.00     0.027 C 
ENDROOT
BRANCH   1   2
ATOM      2  C   UNL     1      -0.755   0.028   1.149  1.00  0.00    -0.031 C 
ATOM      3  C   UNL     1      -1.744   0.455   1.958  1.00  0.00    -0.031 C 
BRANCH   3   4
ATOM      4  C   UNL     1      -2.471  -0.350   3.015  1.00  0.00     0.027 C 
BRANCH   4   5
ATOM      5  C   UNL     1      -3.944  -0.556   2.632  1.00  0.00     0.004 C 
BRANCH   5   6
ATOM      6  C   UNL     1      -4.745   0.757   2.553  1.00  0.00     0.000 C 
BRANCH   6   7
ATOM      7  C   UNL     1      -6.215   0.539   2.142  1.00  0.00     0.000 C 
BRANCH   7   8
ATOM      8  C   UNL     1      -6.419  -0.092   0.748  1.00  0.00    -0.000 C 
BRANCH   8   9
ATOM      9  C   UNL     1      -5.806   0.746  -0.391  1.00  0.00    -0.000 C 
BRANCH   9  10
ATOM     10  C   UNL     1      -5.996   0.118  -1.781  1.00  0.00    -0.003 C 
ATOM     11  C   UNL     1      -7.457   0.030  -2.217  1.00  0.00     0.004 C 
ENDBRANCH   9  10
ENDBRANCH   8   9
ENDBRANCH   7   8
ENDBRANCH   6   7
ENDBRANCH   5   6
ENDBRANCH   4   5
ENDBRANCH   3   4
ENDBRANCH   1   2
BRANCH   1  12
ATOM     12  C   UNL     1       1.377  -1.314   1.372  1.00  0.00     0.004 C 
BRANCH  12  13
ATOM     13  C   UNL     1       2.185  -0.457   0.378  1.00  0.00     0.004 C 
BRANCH  13  14
ATOM     14  C   UNL     1       2.076  -0.949  -1.073  1.00  0.00     0.027 C 
BRANCH  14  15
ATOM     15  C   UNL     1       2.908  -0.070  -1.962  1.00  0.00    -0.031 C 
ATOM     16  C   UNL     1       3.962  -0.546  -2.639  1.00  0.00    -0.031 C 
BRANCH  16  17
ATOM     17  C   UNL     1       4.828   0.355  -3.479  1.00  0.00     0.027 C 
BRANCH  17  18
ATOM     18  C   UNL     1       6.249   0.418  -2.903  1.00  0.00     0.016 C 
BRANCH  18  19
ATOM     19  C   UNL     1       6.255   1.029  -1.486  1.00  0.00     0.123 C 
BRANCH  19  20
ATOM     20  C   UNL     1       7.621   1.102  -0.866  1.00  0.00     0.305 C 
ATOM     21  O   UNL     1       8.610   0.705  -1.468  1.00  0.00    -0.252 OA
BRANCH  20  22
ATOM     22  O   UNL     1       7.730   1.605   0.390  1.00  0.00    -0.469 OA
ATOM     23  C   UNL     1       8.914   1.684   1.090  1.00  0.00     0.282 C 
ENDBRANCH  20  22
ENDBRANCH  19  20
ENDBRANCH  18  19
ENDBRANCH  17  18
ENDBRANCH  16  17
ENDBRANCH  14  15
ENDBRANCH  13  14
ENDBRANCH  12  13
ENDBRANCH   1  12
TORSDOF 17
