REMARK SMILES CC(C)[C@@]1(O)[C@@H](OC(=O)c2ccc[nH]2)[C@H]2[C@@]3(CO)C[C@]4(O)O[C@@]5([C@H](O)[C@H](C)[C@H](O)C[C@@]35O)[C@@]2(O)C14C
REMARK SMILES IDX 4 1 6 2 15 3 16 4 19 5 20 6 22 7 23 8 24 9 26 10 27 11 28 12
REMARK SMILES IDX 30 13 31 14 33 15 35 16 36 17 2 18 1 19 3 20 5 21 7 23 8 24
REMARK SMILES IDX 9 25 10 26 11 27 14 28 12 29 13 30 34 32 21 34 17 36 18 37
REMARK SMILES IDX 32 39 25 41 29 43
REMARK H PARENT 5 22 14 31 34 33 21 35 18 38 32 40 25 42 29 44
ROOT
ATOM      1  C   UNL     1      -2.517   1.037   0.837  1.00  0.00     0.118 C 
ATOM      2  C   UNL     1      -2.683  -0.446   1.151  1.00  0.00     0.216 C 
ATOM      3  C   UNL     1      -2.431  -0.703  -0.404  1.00  0.00     0.081 C 
ATOM      4  C   UNL     1      -2.410  -0.243  -2.049  1.00  0.00     0.040 C 
ATOM      5  C   UNL     1      -1.732   1.078  -2.436  1.00  0.00     0.079 C 
ATOM      6  C   UNL     1      -0.494   1.175  -1.555  1.00  0.00     0.178 C 
ATOM      7  O   UNL     1       0.520   0.278  -1.672  1.00  0.00    -0.334 OA
ATOM      8  C   UNL     1      -0.100  -0.824  -1.218  1.00  0.00     0.157 C 
ATOM      9  C   UNL     1       0.960  -1.857  -0.364  1.00  0.00     0.158 C 
ATOM     10  C   UNL     1      -1.035  -2.873   0.000  1.00  0.00     0.047 C 
ATOM     11  C   UNL     1      -1.528  -4.900   0.000  1.00  0.00     0.013 C 
ATOM     12  C   UNL     1      -2.253  -3.389  -1.522  1.00  0.00     0.123 C 
ATOM     13  C   UNL     1      -1.978  -2.535  -2.772  1.00  0.00     0.071 C 
ATOM     14  C   UNL     1      -1.270  -1.170  -2.500  1.00  0.00     0.110 C 
ATOM     15  C   UNL     1      -1.032  -0.750   0.000  1.00  0.00     0.120 C 
ATOM     16  C   UNL     1      -1.032   0.750   0.000  1.00  0.00     0.086 C 
ATOM     17  C   UNL     1      -1.032   2.250   0.000  1.00  0.00     0.024 C 
ENDROOT
BRANCH   1  18
ATOM     18  C   UNL     1      -3.758   1.964   0.000  1.00  0.00     0.019 C 
ATOM     19  C   UNL     1      -4.508   0.664   0.000  1.00  0.00     0.010 C 
ATOM     20  C   UNL     1      -3.008   3.263   0.000  1.00  0.00     0.010 C 
ENDBRANCH   1  18
BRANCH   1  21
ATOM     21  O   UNL     1      -2.439   1.580   2.160  1.00  0.00    -0.385 OA
ATOM     22  H   UNL     1      -1.598   1.281   2.599  1.00  0.00     0.211 HD
ENDBRANCH   1  21
BRANCH   2  23
ATOM     23  O   UNL     1      -3.860  -0.873   1.773  1.00  0.00    -0.454 OA
BRANCH  23  24
ATOM     24  C   UNL     1      -4.153  -2.142   2.151  1.00  0.00     0.355 C 
ATOM     25  O   UNL     1      -3.317  -3.026   2.065  1.00  0.00    -0.244 OA
BRANCH  24  26
ATOM     26  C   UNL     1      -5.488  -2.446   2.691  1.00  0.00     0.124 A 
ATOM     27  C   UNL     1      -5.926  -3.685   3.120  1.00  0.00     0.035 A 
ATOM     28  N   UNL     1      -6.470  -1.536   2.832  1.00  0.00    -0.356 N 
ATOM     29  C   UNL     1      -7.228  -3.512   3.540  1.00  0.00     0.020 A 
ATOM     30  C   UNL     1      -7.532  -2.179   3.349  1.00  0.00     0.083 A 
ATOM     31  H   UNL     1      -6.424  -0.521   2.590  1.00  0.00     0.166 HD
ENDBRANCH  24  26
ENDBRANCH  23  24
ENDBRANCH   2  23
BRANCH  15  32
ATOM     32  O   UNL     1      -1.032  -2.250   0.000  1.00  0.00    -0.385 OA
ATOM     33  H   UNL     1      -0.252  -2.784  -1.596  1.00  0.00     0.211 HD
ENDBRANCH  15  32
BRANCH   6  34
ATOM     34  O   UNL     1       0.150   2.402  -2.011  1.00  0.00    -0.365 OA
ATOM     35  H   UNL     1       0.521   2.246  -2.921  1.00  0.00     0.214 HD
ENDBRANCH   6  34
BRANCH   4  36
ATOM     36  C   UNL     1      -3.747  -0.371  -2.887  1.00  0.00     0.166 C 
BRANCH  36  37
ATOM     37  O   UNL     1      -4.583   0.744  -2.813  1.00  0.00    -0.396 OA
ATOM     38  H   UNL     1      -5.397   0.522  -3.337  1.00  0.00     0.210 HD
ENDBRANCH  36  37
ENDBRANCH   4  36
BRANCH  14  39
ATOM     39  O   UNL     1      -0.641  -0.866  -3.744  1.00  0.00    -0.386 OA
ATOM     40  H   UNL     1      -1.322  -0.848  -4.466  1.00  0.00     0.211 HD
ENDBRANCH  14  39
BRANCH   9  41
ATOM     41  O   UNL     1       1.878  -2.532  -1.186  1.00  0.00    -0.389 OA
ATOM     42  H   UNL     1       1.950  -3.439  -0.793  1.00  0.00     0.211 HD
ENDBRANCH   9  41
BRANCH  12  43
ATOM     43  O   UNL     1      -2.197  -4.664  -2.202  1.00  0.00    -0.393 OA
ATOM     44  H   UNL     1      -3.115  -4.911  -2.496  1.00  0.00     0.210 HD
ENDBRANCH  12  43
TORSDOF 12
