REMARK SMILES C[C@@H]1CC[C@@]2(OC1)O[C@H]1C[C@H]3[C@@H]4CC=C5C[C@@H](O[C@@H]6O[C@H](CO)[C@@H](O[C@H]7O[C@@H](C)[C@H](O[C@H]8O[C@@H](C)[C@H](O)[C@@H](O)[C@H]8O)[C@@H](O)[C@H]7O)[C@H](O)[C@H]6O[C@H]6O[C@@H](C)[C@H](O)[C@@H](O)[C@H]6O)CC[C@]5(C)[C@H]4CC[C@]3(C)[C@H]1[C@@H]2C
REMARK SMILES IDX 25 1 24 2 19 3 20 4 48 5 21 6 46 7 18 8 17 9 2 10 3 11 7 12
REMARK SMILES IDX 4 13 6 14 5 15 8 16 70 17 9 18 69 19 10 20 67 21 11 22 66 23
REMARK SMILES IDX 12 24 65 25 13 26 64 27 14 28 62 29 15 30 61 31 16 32 60 33
REMARK SMILES IDX 1 34 71 35 68 36 63 37 49 38 50 39 51 40 58 41 52 42 56 43
REMARK SMILES IDX 54 44 53 45 59 46 57 48 55 50 22 52 23 53 47 55 26 57 27 58
REMARK SMILES IDX 44 59 28 60 42 61 30 62 29 63 45 64 43 66 31 68 32 69 33 70
REMARK SMILES IDX 40 71 34 72 38 73 36 74 35 75 41 76 39 78 37 80
REMARK H PARENT 59 47 57 49 55 51 23 54 47 56 45 65 43 67 41 77 39 79 37 81
ROOT
ATOM      1  O   UNL     1       5.539  -1.057   0.362  1.00  0.00    -0.341 OA
ENDROOT
BRANCH   1   2
ATOM      2  C   UNL     1       4.311  -0.369   0.183  1.00  0.00     0.184 C 
ATOM      3  C   UNL     1       1.482  -0.866  -0.308  1.00  0.00     0.282 C 
ATOM      4  O   UNL     1       2.119  -1.403   0.848  1.00  0.00    -0.341 OA
ATOM      5  C   UNL     1       2.373  -0.077  -1.283  1.00  0.00     0.209 C 
ATOM      6  C   UNL     1       3.290  -0.742   1.307  1.00  0.00     0.178 C 
ATOM      7  C   UNL     1       3.771  -0.686  -1.222  1.00  0.00     0.180 C 
BRANCH   3   8
ATOM      8  O   UNL     1       0.422  -0.012   0.063  1.00  0.00    -0.346 OA
BRANCH   8   9
ATOM      9  C   UNL     1      -0.862  -0.595  -0.072  1.00  0.00     0.125 C 
ATOM     10  C   UNL     1     -14.620  -0.214   0.021  1.00  0.00     0.012 C 
ATOM     11  C   UNL     1     -13.798   1.039   0.303  1.00  0.00     0.011 C 
ATOM     12  C   UNL     1     -13.720  -1.203  -0.748  1.00  0.00     0.167 C 
ATOM     13  C   UNL     1     -12.608   0.613   1.139  1.00  0.00     0.066 C 
ATOM     14  O   UNL     1     -12.590  -1.600   0.017  1.00  0.00    -0.349 OA
ATOM     15  C   UNL     1     -11.778  -0.496   0.426  1.00  0.00     0.171 C 
ATOM     16  O   UNL     1     -11.060   0.042  -0.682  1.00  0.00    -0.346 OA
ATOM     17  C   UNL     1     -10.717  -0.992   1.423  1.00  0.00     0.052 C 
ATOM     18  C   UNL     1      -9.908  -0.774  -0.826  1.00  0.00     0.126 C 
ATOM     19  C   UNL     1      -9.576  -1.424   0.523  1.00  0.00     0.033 C 
ATOM     20  C   UNL     1      -8.620  -0.043  -1.282  1.00  0.00     0.037 C 
ATOM     21  C   UNL     1      -8.134  -0.947   0.875  1.00  0.00    -0.024 C 
ATOM     22  C   UNL     1      -7.530  -0.834  -0.536  1.00  0.00     0.002 C 
ATOM     23  C   UNL     1      -7.318  -1.995   1.660  1.00  0.00     0.008 C 
ATOM     24  C   UNL     1      -6.079  -0.285  -0.490  1.00  0.00     0.000 C 
ATOM     25  C   UNL     1      -5.874  -1.507   1.832  1.00  0.00     0.005 C 
ATOM     26  C   UNL     1      -5.422  -0.290  -1.886  1.00  0.00     0.031 C 
ATOM     27  C   UNL     1      -5.195  -1.142   0.469  1.00  0.00     0.003 C 
ATOM     28  C   UNL     1      -3.947   0.038  -1.829  1.00  0.00    -0.027 C 
ATOM     29  C   UNL     1      -3.791  -0.442   0.661  1.00  0.00    -0.008 C 
ATOM     30  C   UNL     1      -3.219   0.017  -0.690  1.00  0.00    -0.065 C 
ATOM     31  C   UNL     1      -2.805  -1.489   1.265  1.00  0.00     0.014 C 
ATOM     32  C   UNL     1      -1.771   0.468  -0.705  1.00  0.00     0.063 C 
ATOM     33  C   UNL     1      -1.358  -0.986   1.327  1.00  0.00     0.033 C 
ATOM     34  C   UNL     1     -15.894   0.132  -0.751  1.00  0.00     0.010 C 
ATOM     35  C   UNL     1     -11.154  -2.068   2.424  1.00  0.00     0.014 C 
ATOM     36  C   UNL     1      -8.126   0.433   1.647  1.00  0.00     0.012 C 
ATOM     37  C   UNL     1      -3.877   0.814   1.586  1.00  0.00     0.016 C 
ENDBRANCH   8   9
ENDBRANCH   3   8
BRANCH   5  38
ATOM     38  O   UNL     1       1.785  -0.174  -2.574  1.00  0.00    -0.338 OA
BRANCH  38  39
ATOM     39  C   UNL     1       1.794   1.054  -3.283  1.00  0.00     0.282 C 
ATOM     40  O   UNL     1       3.043   1.213  -3.923  1.00  0.00    -0.344 OA
ATOM     41  C   UNL     1       0.632   1.074  -4.327  1.00  0.00     0.202 C 
ATOM     42  C   UNL     1       3.192   2.530  -4.447  1.00  0.00     0.150 C 
ATOM     43  C   UNL     1       1.063   1.771  -5.649  1.00  0.00     0.179 C 
ATOM     44  C   UNL     1       1.971   2.976  -5.333  1.00  0.00     0.174 C 
ATOM     45  C   UNL     1       4.495   2.555  -5.248  1.00  0.00     0.041 C 
BRANCH  41  46
ATOM     46  O   UNL     1       0.079  -0.194  -4.586  1.00  0.00    -0.385 OA
ATOM     47  H   UNL     1       0.819  -0.815  -4.806  1.00  0.00     0.211 HD
ENDBRANCH  41  46
BRANCH  43  48
ATOM     48  O   UNL     1       1.726   0.887  -6.527  1.00  0.00    -0.387 OA
ATOM     49  H   UNL     1       2.395   0.353  -6.029  1.00  0.00     0.211 HD
ENDBRANCH  43  48
BRANCH  44  50
ATOM     50  O   UNL     1       1.234   4.003  -4.712  1.00  0.00    -0.388 OA
ATOM     51  H   UNL     1       1.009   3.729  -3.788  1.00  0.00     0.211 HD
ENDBRANCH  44  50
ENDBRANCH  38  39
ENDBRANCH   5  38
BRANCH   6  52
ATOM     52  C   UNL     1       2.896   0.451   2.197  1.00  0.00     0.191 C 
BRANCH  52  53
ATOM     53  O   UNL     1       4.028   1.040   2.779  1.00  0.00    -0.394 OA
ATOM     54  H   UNL     1       4.294   0.456   3.537  1.00  0.00     0.210 HD
ENDBRANCH  52  53
ENDBRANCH   6  52
BRANCH   7  55
ATOM     55  O   UNL     1       4.628  -0.167  -2.209  1.00  0.00    -0.387 OA
ATOM     56  H   UNL     1       4.740   0.805  -2.039  1.00  0.00     0.211 HD
ENDBRANCH   7  55
ENDBRANCH   1   2
BRANCH   1  57
ATOM     57  C   UNL     1       6.642  -0.199   0.614  1.00  0.00     0.282 C 
ATOM     58  O   UNL     1       7.023  -0.352   1.974  1.00  0.00    -0.344 OA
ATOM     59  C   UNL     1       7.794  -0.608  -0.334  1.00  0.00     0.202 C 
ATOM     60  C   UNL     1       8.103   0.511   2.300  1.00  0.00     0.150 C 
ATOM     61  C   UNL     1       9.037   0.242  -0.005  1.00  0.00     0.180 C 
ATOM     62  C   UNL     1       9.366   0.122   1.496  1.00  0.00     0.181 C 
ATOM     63  C   UNL     1       8.363   0.407   3.804  1.00  0.00     0.041 C 
BRANCH  59  64
ATOM     64  O   UNL     1       8.076  -1.988  -0.253  1.00  0.00    -0.385 OA
ATOM     65  H   UNL     1       8.041  -2.273   0.696  1.00  0.00     0.211 HD
ENDBRANCH  59  64
BRANCH  61  66
ATOM     66  O   UNL     1      10.128  -0.109  -0.819  1.00  0.00    -0.387 OA
ATOM     67  H   UNL     1      10.410  -1.027  -0.569  1.00  0.00     0.211 HD
ENDBRANCH  61  66
BRANCH  62  68
ATOM     68  O   UNL     1      10.436   0.995   1.838  1.00  0.00    -0.341 OA
BRANCH  68  69
ATOM     69  C   UNL     1      11.622   0.287   2.169  1.00  0.00     0.282 C 
ATOM     70  O   UNL     1      12.413   0.135   0.999  1.00  0.00    -0.344 OA
ATOM     71  C   UNL     1      12.400   1.077   3.243  1.00  0.00     0.202 C 
ATOM     72  C   UNL     1      13.538  -0.692   1.258  1.00  0.00     0.150 C 
ATOM     73  C   UNL     1      13.678   0.284   3.587  1.00  0.00     0.179 C 
ATOM     74  C   UNL     1      14.478  -0.028   2.303  1.00  0.00     0.174 C 
ATOM     75  C   UNL     1      14.278  -0.921  -0.061  1.00  0.00     0.041 C 
BRANCH  71  76
ATOM     76  O   UNL     1      12.688   2.392   2.823  1.00  0.00    -0.385 OA
ATOM     77  H   UNL     1      13.083   2.361   1.915  1.00  0.00     0.211 HD
ENDBRANCH  71  76
BRANCH  73  78
ATOM     78  O   UNL     1      14.459   0.946   4.549  1.00  0.00    -0.387 OA
ATOM     79  H   UNL     1      14.812   1.775   4.132  1.00  0.00     0.211 HD
ENDBRANCH  73  78
BRANCH  74  80
ATOM     80  O   UNL     1      15.585  -0.845   2.594  1.00  0.00    -0.388 OA
ATOM     81  H   UNL     1      15.236  -1.712   2.932  1.00  0.00     0.211 HD
ENDBRANCH  74  80
ENDBRANCH  68  69
ENDBRANCH  62  68
ENDBRANCH   1  57
TORSDOF 19
