REMARK SMILES O=C(OC[C@@H]1O[C@H](Oc2c(-c3ccc(O)c(O)c3)oc3cc(O)cc(O)c3c2=O)[C@H](O)[C@@H](O)[C@@H]1O)c1cc(O)c(O)c(O)c1
REMARK SMILES IDX 5 1 6 2 7 3 30 4 32 5 34 6 4 7 3 8 2 9 1 10 36 11 37 12
REMARK SMILES IDX 44 13 38 14 42 15 40 16 39 17 43 19 41 21 35 23 8 25 9 26
REMARK SMILES IDX 10 27 28 28 19 29 27 30 29 31 20 32 25 33 21 34 24 35 22 36
REMARK SMILES IDX 11 37 12 38 18 39 13 40 16 41 14 42 17 43 15 45 26 47 23 49
REMARK SMILES IDX 33 51 31 53
REMARK H PARENT 39 18 43 20 41 22 35 24 17 44 15 46 26 48 23 50 33 52 31 54
ROOT
ATOM      1  C   UNL     1       1.332   0.042   0.743  1.00  0.00     0.191 C 
ATOM      2  O   UNL     1       0.039   0.359   1.281  1.00  0.00    -0.331 OA
ATOM      3  C   UNL     1      -0.943  -0.609   0.973  1.00  0.00     0.339 C 
ATOM      4  C   UNL     1      -0.612  -1.978   1.629  1.00  0.00     0.214 C 
ATOM      5  C   UNL     1       0.888  -2.342   1.475  1.00  0.00     0.181 C 
ATOM      6  C   UNL     1       1.519  -1.481   0.364  1.00  0.00     0.178 C 
ENDROOT
BRANCH   1   7
ATOM      7  C   UNL     1       2.354   0.542   1.794  1.00  0.00     0.268 C 
BRANCH   7   8
ATOM      8  O   UNL     1       3.668   0.365   1.404  1.00  0.00    -0.459 OA
BRANCH   8   9
ATOM      9  C   UNL     1       4.280   0.974   0.353  1.00  0.00     0.338 C 
ATOM     10  O   UNL     1       3.693   1.826  -0.299  1.00  0.00    -0.246 OA
BRANCH   9  11
ATOM     11  C   UNL     1       5.670   0.593   0.002  1.00  0.00     0.067 A 
ATOM     12  C   UNL     1       6.354  -0.367   0.768  1.00  0.00     0.066 A 
ATOM     13  C   UNL     1       6.322   1.177  -1.097  1.00  0.00     0.066 A 
ATOM     14  C   UNL     1       7.667  -0.738   0.446  1.00  0.00     0.162 A 
ATOM     15  C   UNL     1       7.631   0.813  -1.429  1.00  0.00     0.162 A 
ATOM     16  C   UNL     1       8.311  -0.147  -0.657  1.00  0.00     0.200 A 
BRANCH  14  17
ATOM     17  O   UNL     1       8.313  -1.659   1.192  1.00  0.00    -0.504 OA
ATOM     18  H   UNL     1       7.902  -2.083   1.958  1.00  0.00     0.293 HD
ENDBRANCH  14  17
BRANCH  15  19
ATOM     19  O   UNL     1       8.219   1.397  -2.495  1.00  0.00    -0.504 OA
ATOM     20  H   UNL     1       9.119   1.186  -2.778  1.00  0.00     0.293 HD
ENDBRANCH  15  19
BRANCH  16  21
ATOM     21  O   UNL     1       9.576  -0.492  -0.984  1.00  0.00    -0.502 OA
ATOM     22  H   UNL     1      10.088  -1.145  -0.487  1.00  0.00     0.293 HD
ENDBRANCH  16  21
ENDBRANCH   9  11
ENDBRANCH   8   9
ENDBRANCH   7   8
ENDBRANCH   1   7
BRANCH   6  23
ATOM     23  O   UNL     1       2.860  -1.811   0.091  1.00  0.00    -0.387 OA
ATOM     24  H   UNL     1       3.295  -2.090   0.938  1.00  0.00     0.211 HD
ENDBRANCH   6  23
BRANCH   3  25
ATOM     25  O   UNL     1      -2.199  -0.188   1.376  1.00  0.00    -0.454 OA
BRANCH  25  26
ATOM     26  C   UNL     1      -2.935   0.701   0.672  1.00  0.00     0.214 A 
ATOM     27  C   UNL     1      -4.022   0.265  -0.128  1.00  0.00     0.180 A 
ATOM     28  C   UNL     1      -2.603   2.067   0.691  1.00  0.00     0.239 A 
ATOM     29  O   UNL     1      -4.672   1.163  -0.867  1.00  0.00    -0.452 OA
ATOM     30  C   UNL     1      -3.336   2.976  -0.097  1.00  0.00     0.111 A 
ATOM     31  O   UNL     1      -1.678   2.452   1.387  1.00  0.00    -0.285 OA
ATOM     32  C   UNL     1      -4.387   2.459  -0.885  1.00  0.00     0.146 A 
ATOM     33  C   UNL     1      -3.062   4.367  -0.139  1.00  0.00     0.134 A 
ATOM     34  C   UNL     1      -5.144   3.308  -1.699  1.00  0.00     0.094 A 
ATOM     35  C   UNL     1      -3.833   5.203  -0.962  1.00  0.00     0.093 A 
ATOM     36  C   UNL     1      -4.869   4.680  -1.740  1.00  0.00     0.123 A 
BRANCH  27  37
ATOM     37  C   UNL     1      -4.478  -1.164  -0.234  1.00  0.00     0.025 A 
ATOM     38  C   UNL     1      -4.139  -2.170   0.699  1.00  0.00     0.016 A 
ATOM     39  C   UNL     1      -5.299  -1.528  -1.322  1.00  0.00     0.062 A 
ATOM     40  C   UNL     1      -4.582  -3.483   0.534  1.00  0.00     0.051 A 
ATOM     41  C   UNL     1      -5.742  -2.846  -1.492  1.00  0.00     0.158 A 
ATOM     42  C   UNL     1      -5.379  -3.832  -0.561  1.00  0.00     0.157 A 
BRANCH  41  43
ATOM     43  O   UNL     1      -6.511  -3.145  -2.560  1.00  0.00    -0.504 OA
ATOM     44  H   UNL     1      -6.840  -4.038  -2.735  1.00  0.00     0.293 HD
ENDBRANCH  41  43
BRANCH  42  45
ATOM     45  O   UNL     1      -5.798  -5.104  -0.719  1.00  0.00    -0.504 OA
ATOM     46  H   UNL     1      -5.561  -5.806  -0.095  1.00  0.00     0.293 HD
ENDBRANCH  42  45
ENDBRANCH  27  37
BRANCH  33  47
ATOM     47  O   UNL     1      -2.064   4.899   0.600  1.00  0.00    -0.507 OA
ATOM     48  H   UNL     1      -1.858   5.844   0.588  1.00  0.00     0.293 HD
ENDBRANCH  33  47
BRANCH  36  49
ATOM     49  O   UNL     1      -5.592   5.505  -2.524  1.00  0.00    -0.508 OA
ATOM     50  H   UNL     1      -6.315   5.183  -3.081  1.00  0.00     0.293 HD
ENDBRANCH  36  49
ENDBRANCH  25  26
ENDBRANCH   3  25
BRANCH   5  51
ATOM     51  O   UNL     1       1.056  -3.720   1.259  1.00  0.00    -0.387 OA
ATOM     52  H   UNL     1       0.681  -3.928   0.363  1.00  0.00     0.211 HD
ENDBRANCH   5  51
BRANCH   4  53
ATOM     53  O   UNL     1      -0.986  -2.033   2.983  1.00  0.00    -0.384 OA
ATOM     54  H   UNL     1      -0.558  -1.263   3.440  1.00  0.00     0.211 HD
ENDBRANCH   4  53
TORSDOF 17
