REMARK SMILES CC/C=C\C/C=C\C/C=C\C/C=C\C[C]CCCCC(=O)O[C@H](COC(=O)C[C]CC[C]CCCCCC/C=C\C/C=C\CCCCC)COC(=O)CC[C]/C=C\[C]/C=C\C/C=C\[C]/C=C\CCCCC
REMARK SMILES IDX 25 1 24 2 23 3 22 4 20 5 21 6 19 7 18 8 17 9 16 10 15 11
REMARK SMILES IDX 14 12 13 13 12 14 11 15 10 16 9 17 8 18 7 19 6 20 5 21 4 22
REMARK SMILES IDX 3 23 2 24 1 25 49 26 50 27 51 28 52 29 53 30 54 31 55 32
REMARK SMILES IDX 56 33 57 34 58 35 59 36 60 37 61 38 62 39 63 40 64 41 65 42
REMARK SMILES IDX 66 43 67 44 68 45 69 46 70 47 71 48 26 49 27 50 28 51 29 52
REMARK SMILES IDX 30 53 31 54 32 55 33 56 34 57 35 58 36 59 37 60 38 61 39 62
REMARK SMILES IDX 40 63 41 64 42 65 43 66 44 67 45 68 46 69 47 70 48 71
REMARK H PARENT
ROOT
ATOM      1  O   UNL     1      18.290   8.093   0.085  1.00  0.00    -0.462 OA
ENDROOT
BRANCH   1   2
ATOM      2  C   UNL     1      16.902   8.001   0.544  1.00  0.00     0.281 C 
BRANCH   2   3
ATOM      3  C   UNL     1      15.750   9.093   0.000  1.00  0.00     0.251 C 
BRANCH   3   4
ATOM      4  O   UNL     1      14.549   8.940   0.689  1.00  0.00    -0.455 OA
BRANCH   4   5
ATOM      5  C   UNL     1      13.448   8.460   0.042  1.00  0.00     0.306 C 
ATOM      6  O   UNL     1      13.220   8.795  -1.112  1.00  0.00    -0.252 OA
BRANCH   5   7
ATOM      7  C   UNL     1      12.615   7.353   0.650  1.00  0.00     0.123 C 
BRANCH   7   8
ATOM      8  C   UNL     1      12.923   6.044  -0.108  1.00  0.00     0.012 C 
BRANCH   8   9
ATOM      9  C   UNL     1      11.989   4.862   0.224  1.00  0.00     0.001 C 
BRANCH   9  10
ATOM     10  C   UNL     1      12.469   3.617  -0.548  1.00  0.00     0.008 C 
BRANCH  10  11
ATOM     11  C   UNL     1      11.486   2.443  -0.594  1.00  0.00    -0.013 C 
BRANCH  11  12
ATOM     12  C   UNL     1      11.098   1.794   0.730  1.00  0.00     0.035 C 
BRANCH  12  13
ATOM     13  C   UNL     1      11.016   0.305   0.504  1.00  0.00    -0.030 C 
ATOM     14  C   UNL     1       9.959  -0.537   0.385  1.00  0.00    -0.027 C 
BRANCH  14  15
ATOM     15  C   UNL     1       8.447  -0.357   0.347  1.00  0.00     0.054 C 
BRANCH  15  16
ATOM     16  C   UNL     1       7.835   1.007   0.214  1.00  0.00    -0.027 C 
ATOM     17  C   UNL     1       6.511   1.298   0.146  1.00  0.00    -0.027 C 
BRANCH  17  18
ATOM     18  C   UNL     1       5.243   0.442   0.164  1.00  0.00     0.054 C 
BRANCH  18  19
ATOM     19  C   UNL     1       5.300  -1.065   0.211  1.00  0.00    -0.027 C 
ATOM     20  C   UNL     1       4.248  -1.922   0.194  1.00  0.00    -0.027 C 
BRANCH  20  21
ATOM     21  C   UNL     1       2.734  -1.733   0.131  1.00  0.00     0.054 C 
BRANCH  21  22
ATOM     22  C   UNL     1       2.113  -0.356   0.101  1.00  0.00    -0.027 C 
ATOM     23  C   UNL     1       0.789  -0.074   0.053  1.00  0.00    -0.031 C 
BRANCH  23  24
ATOM     24  C   UNL     1      -0.438  -0.976   0.010  1.00  0.00     0.023 C 
ATOM     25  C   UNL     1      -0.257  -2.490   0.001  1.00  0.00     0.008 C 
ENDBRANCH  23  24
ENDBRANCH  21  22
ENDBRANCH  20  21
ENDBRANCH  18  19
ENDBRANCH  17  18
ENDBRANCH  15  16
ENDBRANCH  14  15
ENDBRANCH  12  13
ENDBRANCH  11  12
ENDBRANCH  10  11
ENDBRANCH   9  10
ENDBRANCH   8   9
ENDBRANCH   7   8
ENDBRANCH   5   7
ENDBRANCH   4   5
ENDBRANCH   3   4
BRANCH   3  26
ATOM     26  C   UNL     1      16.500  10.392   0.000  1.00  0.00     0.281 C 
BRANCH  26  27
ATOM     27  O   UNL     1      17.250  11.691   0.000  1.00  0.00    -0.462 OA
BRANCH  27  28
ATOM     28  C   UNL     1      17.083  13.070  -0.010  1.00  0.00     0.305 C 
ATOM     29  O   UNL     1      15.954  13.535  -0.016  1.00  0.00    -0.252 OA
BRANCH  28  30
ATOM     30  C   UNL     1      18.350  14.044  -0.004  1.00  0.00     0.123 C 
BRANCH  30  31
ATOM     31  C   UNL     1      18.000  15.588   0.000  1.00  0.00     0.025 C 
BRANCH  31  32
ATOM     32  C   UNL     1      18.750  16.887   0.000  1.00  0.00     0.009 C 
BRANCH  32  33
ATOM     33  C   UNL     1      19.500  18.186   0.000  1.00  0.00    -0.022 C 
ATOM     34  C   UNL     1      18.750  19.486   0.000  1.00  0.00    -0.017 C 
BRANCH  34  35
ATOM     35  C   UNL     1      17.250  19.486   0.000  1.00  0.00     0.034 C 
BRANCH  35  36
ATOM     36  C   UNL     1      15.750  19.486   0.000  1.00  0.00    -0.018 C 
ATOM     37  C   UNL     1      15.305  20.828  -0.000  1.00  0.00    -0.026 C 
BRANCH  37  38
ATOM     38  C   UNL     1      16.363  22.018  -0.000  1.00  0.00     0.054 C 
BRANCH  38  39
ATOM     39  C   UNL     1      16.527  23.568  -0.000  1.00  0.00    -0.026 C 
ATOM     40  C   UNL     1      15.750  24.682   0.000  1.00  0.00    -0.018 C 
BRANCH  40  41
ATOM     41  C   UNL     1      14.250  24.682   0.000  1.00  0.00     0.034 C 
BRANCH  41  42
ATOM     42  C   UNL     1      12.750  24.682   0.000  1.00  0.00    -0.018 C 
ATOM     43  C   UNL     1      12.000  25.981   0.000  1.00  0.00    -0.030 C 
BRANCH  43  44
ATOM     44  C   UNL     1      12.750  27.280   0.000  1.00  0.00     0.027 C 
BRANCH  44  45
ATOM     45  C   UNL     1      13.500  28.579   0.000  1.00  0.00     0.004 C 
BRANCH  45  46
ATOM     46  C   UNL     1      13.517  30.302  -0.004  1.00  0.00     0.000 C 
BRANCH  46  47
ATOM     47  C   UNL     1      15.000  31.177   0.000  1.00  0.00    -0.003 C 
ATOM     48  C   UNL     1      15.750  32.476   0.000  1.00  0.00     0.004 C 
ENDBRANCH  46  47
ENDBRANCH  45  46
ENDBRANCH  44  45
ENDBRANCH  43  44
ENDBRANCH  41  42
ENDBRANCH  40  41
ENDBRANCH  38  39
ENDBRANCH  37  38
ENDBRANCH  35  36
ENDBRANCH  34  35
ENDBRANCH  32  33
ENDBRANCH  31  32
ENDBRANCH  30  31
ENDBRANCH  28  30
ENDBRANCH  27  28
ENDBRANCH  26  27
ENDBRANCH   3  26
ENDBRANCH   2   3
ENDBRANCH   1   2
BRANCH   1  49
ATOM     49  C   UNL     1      19.407   7.222   0.351  1.00  0.00     0.306 C 
ATOM     50  O   UNL     1      19.192   6.133   0.859  1.00  0.00    -0.252 OA
BRANCH  49  51
ATOM     51  C   UNL     1      20.946   7.593   0.000  1.00  0.00     0.131 C 
BRANCH  51  52
ATOM     52  C   UNL     1      22.245   6.843   0.000  1.00  0.00    -0.006 C 
BRANCH  52  53
ATOM     53  C   UNL     1      23.544   6.093   0.000  1.00  0.00     0.009 C 
BRANCH  53  54
ATOM     54  C   UNL     1      24.843   5.343   0.000  1.00  0.00     0.009 C 
BRANCH  54  55
ATOM     55  C   UNL     1      26.142   4.593   0.000  1.00  0.00    -0.017 C 
BRANCH  55  56
ATOM     56  C   UNL     1      27.441   3.843   0.000  1.00  0.00     0.008 C 
BRANCH  56  57
ATOM     57  C   UNL     1      28.982   3.309   0.411  1.00  0.00     0.001 C 
BRANCH  57  58
ATOM     58  C   UNL     1      29.792   2.078  -0.442  1.00  0.00     0.000 C 
BRANCH  58  59
ATOM     59  C   UNL     1      31.338   1.593   0.000  1.00  0.00     0.000 C 
BRANCH  59  60
ATOM     60  C   UNL     1      32.638   0.843   0.000  1.00  0.00     0.004 C 
BRANCH  60  61
ATOM     61  C   UNL     1      33.937   0.093   0.000  1.00  0.00     0.027 C 
BRANCH  61  62
ATOM     62  C   UNL     1      33.902  -1.108  -0.956  1.00  0.00    -0.031 C 
ATOM     63  C   UNL     1      34.068  -2.442  -0.680  1.00  0.00    -0.027 C 
BRANCH  63  64
ATOM     64  C   UNL     1      34.329  -3.134   0.657  1.00  0.00     0.054 C 
BRANCH  64  65
ATOM     65  C   UNL     1      33.239  -4.150   0.977  1.00  0.00    -0.027 C 
ATOM     66  C   UNL     1      33.358  -5.479   1.280  1.00  0.00    -0.031 C 
BRANCH  66  67
ATOM     67  C   UNL     1      34.616  -6.344   1.376  1.00  0.00     0.027 C 
BRANCH  67  68
ATOM     68  C   UNL     1      35.236  -6.657   0.000  1.00  0.00     0.004 C 
BRANCH  68  69
ATOM     69  C   UNL     1      36.535  -7.407   0.000  1.00  0.00     0.000 C 
BRANCH  69  70
ATOM     70  C   UNL     1      37.834  -8.157   0.000  1.00  0.00    -0.003 C 
ATOM     71  C   UNL     1      39.133  -8.907   0.000  1.00  0.00     0.004 C 
ENDBRANCH  69  70
ENDBRANCH  68  69
ENDBRANCH  67  68
ENDBRANCH  66  67
ENDBRANCH  64  65
ENDBRANCH  63  64
ENDBRANCH  61  62
ENDBRANCH  60  61
ENDBRANCH  59  60
ENDBRANCH  58  59
ENDBRANCH  57  58
ENDBRANCH  56  57
ENDBRANCH  55  56
ENDBRANCH  54  55
ENDBRANCH  53  54
ENDBRANCH  52  53
ENDBRANCH  51  52
ENDBRANCH  49  51
ENDBRANCH   1  49
TORSDOF 54
