REMARK SMILES C=C(C)[C@H]1C[C@H]2C(=C)[C@@H](C=C(Br)C2(C)C)OCO1
REMARK SMILES IDX 18 1 4 2 2 3 1 4 3 5 5 6 17 8 16 9 9 10 7 11 10 12 6 13 8 14
REMARK SMILES IDX 11 15 13 16 12 17 14 18 15 19
REMARK H PARENT
REMARK Flexibility Score:   62.900
ROOT
ATOM      1  O   UNL     1       1.666  -0.298   1.791  1.00  0.00    -0.348 OA
ENDROOT
BRANCH   1   2
ATOM      2  C   UNL     1       1.872   0.623   0.696  1.00  0.00     0.147 C 
BRANCH   2   3
ATOM      3  C   UNL     1       2.872   0.007  -0.288  1.00  0.00    -0.052 C 
ATOM      4  C   UNL     1       3.309  -1.262  -0.163  1.00  0.00     0.010 C 
ATOM      5  C   UNL     1       3.414   0.853  -1.418  1.00  0.00     0.041 C 
ENDBRANCH   2   3
BRANCH   2   6
ATOM      6  C   UNL     1       0.562   1.067  -0.079  1.00  0.00     0.045 CG0
ATOM      7  G   UNL     1      -0.385  -0.124  -0.531  1.00  0.00     0.000 G0
ENDBRANCH   2   6
ENDBRANCH   1   2
BRANCH   1   8
ATOM      8  C   UNL     1       0.857   0.155   2.881  1.00  0.00     0.325 C 
BRANCH   8   9
ATOM      9  O   UNL     1      -0.384  -0.584   2.979  1.00  0.00    -0.344 OA
BRANCH   9  10
ATOM     10  C   UNL     1      -1.091  -0.354   1.783  1.00  0.00     0.171 C 
ATOM     11  C   UNL     1      -0.495  -1.060   0.606  1.00  0.00    -0.041 C 
ATOM     12  C   UNL     1      -2.556  -0.340   1.574  1.00  0.00     0.021 C 
ATOM     13  C   UNL     1      -0.385  -0.124  -0.531  1.00  0.00     0.031 CG0
ATOM     14  C   UNL     1      -0.147  -2.353   0.581  1.00  0.00     0.011 C 
ATOM     15  C   UNL     1      -2.954   0.018   0.309  1.00  0.00     0.000 C 
ATOM     16  C   UNL     1      -1.925   0.199  -0.897  1.00  0.00     0.003 C 
ATOM     17  Br  UNL     1      -4.845   0.188   0.006  1.00  0.00    -0.055 Br
ATOM     18  C   UNL     1      -2.057   1.601  -1.518  1.00  0.00     0.017 C 
ATOM     19  C   UNL     1      -2.351  -0.841  -1.961  1.00  0.00     0.017 C 
ATOM     20  G   UNL     1       0.562   1.067  -0.079  1.00  0.00     0.000 G0
ENDBRANCH   9  10
ENDBRANCH   8   9
ENDBRANCH   1   8
TORSDOF 1
