REMARK SMILES CC(C)CC(=O)C[C@](C)(O)[C@H]1CC[C@H]2[C@@H]3C[C@H](O[C@@H]4O[C@H](C)C(O)(O)[C@H](O[C@@H]5O[C@H](C)[C@@H](O[C@@H]6O[C@H](C)[C@H](O)[C@H](O)[C@H]6O[C@@H]6O[C@H](C)[C@H](O)[C@H](O)[C@H]6O)[C@H](O)[C@H]5O[C@@H]5O[C@H](C)[C@@H](O)[C@H](O)[C@H]5O)[C@H]4O)[C@H]4C[C@@H](OS(=O)(=O)O)CC[C@]4(C)C3=CC[C@@]21C
REMARK SMILES IDX 19 1 20 2 21 3 22 4 23 5 26 6 68 7 18 8 17 9 11 10 12 11
REMARK SMILES IDX 85 12 13 13 84 14 14 15 83 16 15 17 82 18 16 19 80 20 79 21
REMARK SMILES IDX 70 22 78 23 71 24 72 25 86 26 81 27 8 28 9 29 7 30 5 31 6 32
REMARK SMILES IDX 4 33 2 34 1 35 3 36 10 37 73 39 74 40 75 41 76 42 77 43
REMARK SMILES IDX 69 45 27 47 28 48 29 49 56 50 30 51 54 52 32 53 31 54 57 55
REMARK SMILES IDX 58 56 59 57 66 58 60 59 64 60 62 61 61 62 67 63 65 65 63 67
REMARK SMILES IDX 55 69 33 71 34 72 35 73 42 74 36 75 40 76 38 77 37 78 43 79
REMARK SMILES IDX 44 80 45 81 52 82 46 83 50 84 48 85 47 86 53 87 51 89 49 91
REMARK SMILES IDX 41 93 39 95 24 97 25 99
REMARK H PARENT 10 38 77 44 69 46 67 64 65 66 63 68 55 70 53 88 51 90 49 92
REMARK H PARENT 41 94 39 96 24 98 25 100
ROOT
ATOM      1  C   UNL     1       1.032  -0.731  -1.385  1.00  0.00     0.282 C 
ATOM      2  O   UNL     1       0.602   0.609  -1.400  1.00  0.00    -0.341 OA
ATOM      3  C   UNL     1       0.184   1.030  -2.705  1.00  0.00     0.180 C 
ATOM      4  C   UNL     1      -0.731   2.239  -2.493  1.00  0.00     0.045 C 
ATOM      5  C   UNL     1      -0.497  -0.122  -3.567  1.00  0.00     0.219 C 
ATOM      6  C   UNL     1      -1.208  -1.114  -2.605  1.00  0.00     0.217 C 
ATOM      7  C   UNL     1      -0.167  -1.685  -1.601  1.00  0.00     0.205 C 
ENDROOT
BRANCH   1   8
ATOM      8  O   UNL     1       1.593  -1.026  -0.116  1.00  0.00    -0.346 OA
BRANCH   8   9
ATOM      9  C   UNL     1       2.985  -1.294  -0.157  1.00  0.00     0.126 C 
ATOM     10  C   UNL     1       7.870   2.261   1.421  1.00  0.00     0.028 C 
ATOM     11  C   UNL     1       7.271   3.021   0.220  1.00  0.00     0.007 C 
ATOM     12  C   UNL     1       7.447   0.782   1.113  1.00  0.00    -0.020 C 
ATOM     13  C   UNL     1       5.988   2.239  -0.168  1.00  0.00     0.005 C 
ATOM     14  C   UNL     1       7.471  -0.154   2.340  1.00  0.00     0.034 C 
ATOM     15  C   UNL     1       5.981   1.021   0.766  1.00  0.00     0.003 C 
ATOM     16  C   UNL     1       6.601  -1.379   2.137  1.00  0.00    -0.026 C 
ATOM     17  C   UNL     1       5.255  -0.262   0.299  1.00  0.00     0.021 C 
ATOM     18  C   UNL     1       5.600  -1.466   1.206  1.00  0.00    -0.064 C 
ATOM     19  C   UNL     1       3.736  -0.026   0.276  1.00  0.00     0.040 C 
ATOM     20  C   UNL     1       4.806  -2.774   0.959  1.00  0.00    -0.006 C 
ATOM     21  C   UNL     1       4.941  -3.830   2.139  1.00  0.00     0.014 C 
ATOM     22  C   UNL     1       3.289  -2.451   0.819  1.00  0.00     0.031 C 
ATOM     23  C   UNL     1       3.647  -4.629   2.478  1.00  0.00     0.034 C 
ATOM     24  C   UNL     1       2.466  -3.736   0.446  1.00  0.00     0.041 C 
ATOM     25  C   UNL     1       2.879  -5.020   1.227  1.00  0.00     0.142 C 
ATOM     26  C   UNL     1       8.215   0.109  -0.072  1.00  0.00     0.012 C 
ATOM     27  C   UNL     1       5.384  -3.359  -0.367  1.00  0.00     0.016 C 
BRANCH  10  28
ATOM     28  C   UNL     1       9.322   2.631   1.924  1.00  0.00     0.072 C 
ATOM     29  C   UNL     1       9.320   4.105   2.418  1.00  0.00     0.043 C 
BRANCH  28  30
ATOM     30  C   UNL     1      10.509   2.401   0.927  1.00  0.00     0.110 C 
BRANCH  30  31
ATOM     31  C   UNL     1      10.683   3.291  -0.285  1.00  0.00     0.136 C 
ATOM     32  O   UNL     1       9.949   4.241  -0.502  1.00  0.00    -0.300 OA
BRANCH  31  33
ATOM     33  C   UNL     1      11.841   3.020  -1.214  1.00  0.00     0.078 C 
BRANCH  33  34
ATOM     34  C   UNL     1      13.015   4.008  -1.026  1.00  0.00    -0.010 C 
ATOM     35  C   UNL     1      14.181   3.600  -1.936  1.00  0.00     0.008 C 
ATOM     36  C   UNL     1      12.629   5.468  -1.303  1.00  0.00     0.008 C 
ENDBRANCH  33  34
ENDBRANCH  31  33
ENDBRANCH  30  31
ENDBRANCH  28  30
BRANCH  28  37
ATOM     37  O   UNL     1       9.558   1.808   3.046  1.00  0.00    -0.389 OA
ATOM     38  H   UNL     1      10.392   2.106   3.498  1.00  0.00     0.211 HD
ENDBRANCH  28  37
ENDBRANCH  10  28
BRANCH  25  39
ATOM     39  O   UNL     1       3.721  -5.856   0.457  1.00  0.00    -0.245 OA
BRANCH  39  40
ATOM     40  S   UNL     1       2.928  -7.336   0.016  1.00  0.00     0.397 S 
ATOM     41  O   UNL     1       1.885  -7.085  -1.083  1.00  0.00    -0.169 OA
ATOM     42  O   UNL     1       2.139  -7.901   1.210  1.00  0.00    -0.169 OA
BRANCH  40  43
ATOM     43  O   UNL     1       4.013  -8.562  -0.504  1.00  0.00    -0.264 OA
ATOM     44  H   UNL     1       4.681  -8.088  -1.060  1.00  0.00     0.236 HD
ENDBRANCH  40  43
ENDBRANCH  39  40
ENDBRANCH  25  39
ENDBRANCH   8   9
ENDBRANCH   1   8
BRANCH   7  45
ATOM     45  O   UNL     1       0.296  -2.959  -1.972  1.00  0.00    -0.385 OA
ATOM     46  H   UNL     1       0.734  -2.884  -2.858  1.00  0.00     0.211 HD
ENDBRANCH   7  45
BRANCH   6  47
ATOM     47  O   UNL     1      -2.197  -0.416  -1.853  1.00  0.00    -0.338 OA
BRANCH  47  48
ATOM     48  C   UNL     1      -3.523  -0.902  -2.021  1.00  0.00     0.282 C 
ATOM     49  O   UNL     1      -4.335   0.129  -2.589  1.00  0.00    -0.344 OA
ATOM     50  C   UNL     1      -4.044  -1.532  -0.692  1.00  0.00     0.209 C 
ATOM     51  C   UNL     1      -5.114   0.883  -1.674  1.00  0.00     0.150 C 
ATOM     52  C   UNL     1      -5.571  -1.466  -0.752  1.00  0.00     0.180 C 
ATOM     53  C   UNL     1      -5.995   0.014  -0.733  1.00  0.00     0.181 C 
ATOM     54  C   UNL     1      -4.256   1.908  -0.925  1.00  0.00     0.041 C 
BRANCH  50  55
ATOM     55  O   UNL     1      -3.609  -2.890  -0.622  1.00  0.00    -0.338 OA
BRANCH  55  56
ATOM     56  C   UNL     1      -2.901  -3.244   0.564  1.00  0.00     0.282 C 
ATOM     57  O   UNL     1      -1.710  -3.962   0.234  1.00  0.00    -0.344 OA
ATOM     58  C   UNL     1      -3.793  -4.041   1.552  1.00  0.00     0.202 C 
ATOM     59  C   UNL     1      -1.928  -5.269  -0.306  1.00  0.00     0.150 C 
ATOM     60  C   UNL     1      -4.141  -5.419   0.958  1.00  0.00     0.179 C 
ATOM     61  C   UNL     1      -2.836  -6.152   0.604  1.00  0.00     0.174 C 
ATOM     62  C   UNL     1      -2.351  -5.241  -1.786  1.00  0.00     0.041 C 
BRANCH  58  63
ATOM     63  O   UNL     1      -3.117  -4.213   2.772  1.00  0.00    -0.385 OA
ATOM     64  H   UNL     1      -3.128  -3.336   3.238  1.00  0.00     0.211 HD
ENDBRANCH  58  63
BRANCH  60  65
ATOM     65  O   UNL     1      -4.936  -5.274  -0.191  1.00  0.00    -0.387 OA
ATOM     66  H   UNL     1      -5.848  -5.032   0.117  1.00  0.00     0.211 HD
ENDBRANCH  60  65
BRANCH  61  67
ATOM     67  O   UNL     1      -2.171  -6.534   1.791  1.00  0.00    -0.388 OA
ATOM     68  H   UNL     1      -1.449  -5.886   2.000  1.00  0.00     0.211 HD
ENDBRANCH  61  67
ENDBRANCH  55  56
ENDBRANCH  50  55
BRANCH  52  69
ATOM     69  O   UNL     1      -6.188  -2.168   0.297  1.00  0.00    -0.387 OA
ATOM     70  H   UNL     1      -5.961  -1.706   1.147  1.00  0.00     0.211 HD
ENDBRANCH  52  69
BRANCH  53  71
ATOM     71  O   UNL     1      -7.355   0.082  -1.129  1.00  0.00    -0.341 OA
BRANCH  71  72
ATOM     72  C   UNL     1      -8.179   0.852  -0.263  1.00  0.00     0.282 C 
ATOM     73  O   UNL     1      -9.314   0.077   0.103  1.00  0.00    -0.344 OA
ATOM     74  C   UNL     1      -8.559   2.211  -0.899  1.00  0.00     0.209 C 
ATOM     75  C   UNL     1     -10.382   0.038  -0.851  1.00  0.00     0.150 C 
ATOM     76  C   UNL     1      -9.526   2.035  -2.105  1.00  0.00     0.180 C 
ATOM     77  C   UNL     1     -10.042   0.591  -2.262  1.00  0.00     0.174 C 
ATOM     78  C   UNL     1     -10.879  -1.405  -0.952  1.00  0.00     0.041 C 
BRANCH  74  79
ATOM     79  O   UNL     1      -9.239   2.976   0.093  1.00  0.00    -0.338 OA
BRANCH  79  80
ATOM     80  C   UNL     1      -8.461   4.011   0.680  1.00  0.00     0.282 C 
ATOM     81  O   UNL     1      -8.245   3.644   2.053  1.00  0.00    -0.344 OA
ATOM     82  C   UNL     1      -9.248   5.354   0.471  1.00  0.00     0.202 C 
ATOM     83  C   UNL     1      -8.251   4.761   2.919  1.00  0.00     0.150 C 
ATOM     84  C   UNL     1     -10.338   5.450   1.557  1.00  0.00     0.179 C 
ATOM     85  C   UNL     1      -9.668   5.424   2.967  1.00  0.00     0.174 C 
ATOM     86  C   UNL     1      -7.721   4.381   4.303  1.00  0.00     0.041 C 
BRANCH  82  87
ATOM     87  O   UNL     1      -8.375   6.452   0.570  1.00  0.00    -0.385 OA
ATOM     88  H   UNL     1      -8.878   7.249   0.256  1.00  0.00     0.211 HD
ENDBRANCH  82  87
BRANCH  84  89
ATOM     89  O   UNL     1     -11.284   4.418   1.381  1.00  0.00    -0.387 OA
ATOM     90  H   UNL     1     -10.913   3.566   1.721  1.00  0.00     0.211 HD
ENDBRANCH  84  89
BRANCH  85  91
ATOM     91  O   UNL     1     -10.535   4.860   3.924  1.00  0.00    -0.388 OA
ATOM     92  H   UNL     1     -10.466   3.873   3.859  1.00  0.00     0.211 HD
ENDBRANCH  85  91
ENDBRANCH  79  80
ENDBRANCH  74  79
BRANCH  76  93
ATOM     93  O   UNL     1      -8.992   2.534  -3.306  1.00  0.00    -0.387 OA
ATOM     94  H   UNL     1      -8.120   2.086  -3.455  1.00  0.00     0.211 HD
ENDBRANCH  76  93
BRANCH  77  95
ATOM     95  O   UNL     1      -9.092  -0.232  -2.894  1.00  0.00    -0.388 OA
ATOM     96  H   UNL     1      -9.170  -0.076  -3.871  1.00  0.00     0.211 HD
ENDBRANCH  77  95
ENDBRANCH  71  72
ENDBRANCH  53  71
ENDBRANCH  47  48
ENDBRANCH   6  47
BRANCH   5  97
ATOM     97  O   UNL     1      -1.381   0.393  -4.540  1.00  0.00    -0.361 OA
ATOM     98  H   UNL     1      -2.218   0.677  -4.094  1.00  0.00     0.214 HD
ENDBRANCH   5  97
BRANCH   5  99
ATOM     99  O   UNL     1       0.496  -0.847  -4.253  1.00  0.00    -0.361 OA
ATOM    100  H   UNL     1       0.910  -0.233  -4.915  1.00  0.00     0.214 HD
ENDBRANCH   5  99
TORSDOF 31
