REMARK SMILES C=C[C@H]1[C@H](O[C@@H]2O[C@H](CO)[C@@H](O)[C@H](O)[C@H]2O)OC=C(C(=O)OC2CCCCC2)[C@H]1/C=C/c1c[n+](CCO)cc(C(=O)[O-])c1N=C(N)NC
REMARK SMILES IDX 3 1 4 2 17 3 18 4 19 5 29 6 2 7 1 8 5 9 6 10 7 11 15 12 8 13
REMARK SMILES IDX 13 14 11 15 16 16 9 18 10 19 14 21 12 23 30 25 31 26 32 27
REMARK SMILES IDX 33 28 43 29 34 30 39 31 38 32 44 33 45 34 46 35 47 36 48 39
REMARK SMILES IDX 35 41 36 42 37 43 40 45 41 46 42 47 20 48 21 49 22 50 23 51
REMARK SMILES IDX 24 52 28 53 25 54 27 55 26 56
REMARK H PARENT 16 17 10 20 14 22 12 24 46 37 46 38 47 40 37 44
ROOT
ATOM      1  C   UNL     1       1.076  -0.468  -1.072  1.00  0.00     0.092 C 
ATOM      2  C   UNL     1       2.580  -0.808  -0.823  1.00  0.00     0.316 C 
ATOM      3  O   UNL     1       3.220   0.151  -0.046  1.00  0.00    -0.471 OA
ATOM      4  C   UNL     1       2.615   1.238   0.511  1.00  0.00     0.202 C 
ATOM      5  C   UNL     1       1.269   1.312   0.639  1.00  0.00     0.079 C 
ATOM      6  C   UNL     1       0.478   0.052   0.256  1.00  0.00     0.066 C 
ENDROOT
BRANCH   1   7
ATOM      7  C   UNL     1       0.862   0.578  -2.183  1.00  0.00    -0.024 C 
ATOM      8  C   UNL     1       1.814   1.261  -2.840  1.00  0.00     0.004 C 
ENDBRANCH   1   7
BRANCH   2   9
ATOM      9  O   UNL     1       2.749  -2.096  -0.224  1.00  0.00    -0.310 OA
BRANCH   9  10
ATOM     10  C   UNL     1       3.538  -2.964  -1.049  1.00  0.00     0.286 C 
ATOM     11  O   UNL     1       2.703  -3.910  -1.690  1.00  0.00    -0.341 OA
ATOM     12  C   UNL     1       4.605  -3.718  -0.239  1.00  0.00     0.202 C 
ATOM     13  C   UNL     1       3.357  -4.567  -2.782  1.00  0.00     0.178 C 
ATOM     14  C   UNL     1       5.394  -4.710  -1.160  1.00  0.00     0.179 C 
ATOM     15  C   UNL     1       4.924  -4.656  -2.658  1.00  0.00     0.177 C 
BRANCH  12  16
ATOM     16  O   UNL     1       5.472  -2.832   0.428  1.00  0.00    -0.385 OA
ATOM     17  H   UNL     1       5.853  -2.215  -0.251  1.00  0.00     0.211 HD
ENDBRANCH  12  16
BRANCH  13  18
ATOM     18  C   UNL     1       2.711  -5.945  -3.006  1.00  0.00     0.191 C 
BRANCH  18  19
ATOM     19  O   UNL     1       3.214  -6.546  -4.172  1.00  0.00    -0.394 OA
ATOM     20  H   UNL     1       2.885  -6.005  -4.939  1.00  0.00     0.210 HD
ENDBRANCH  18  19
ENDBRANCH  13  18
BRANCH  14  21
ATOM     21  O   UNL     1       5.345  -6.016  -0.646  1.00  0.00    -0.387 OA
ATOM     22  H   UNL     1       4.397  -6.290  -0.600  1.00  0.00     0.211 HD
ENDBRANCH  14  21
BRANCH  15  23
ATOM     23  O   UNL     1       5.472  -3.554  -3.357  1.00  0.00    -0.387 OA
ATOM     24  H   UNL     1       5.964  -2.947  -2.749  1.00  0.00     0.211 HD
ENDBRANCH  15  23
ENDBRANCH   9  10
ENDBRANCH   2   9
BRANCH   6  25
ATOM     25  C   UNL     1      -1.027   0.258   0.161  1.00  0.00    -0.017 C 
ATOM     26  C   UNL     1      -1.897  -0.319   1.014  1.00  0.00     0.013 C 
BRANCH  26  27
ATOM     27  C   UNL     1      -3.382  -0.102   0.987  1.00  0.00     0.065 A 
ATOM     28  C   UNL     1      -4.058  -0.248   2.209  1.00  0.00     0.318 A 
ATOM     29  C   UNL     1      -4.144   0.251  -0.169  1.00  0.00     0.095 A 
ATOM     30  N   UNL     1      -5.389   0.013   2.319  1.00  0.00    -0.201 N 
ATOM     31  C   UNL     1      -5.526   0.528  -0.033  1.00  0.00     0.088 A 
ATOM     32  C   UNL     1      -6.117   0.411   1.234  1.00  0.00     0.320 A 
BRANCH  29  33
ATOM     33  N   UNL     1      -3.566   0.298  -1.466  1.00  0.00    -0.214 NA
ATOM     34  C   UNL     1      -2.925  -0.647  -2.086  1.00  0.00     0.193 C 
ATOM     35  N   UNL     1      -2.308  -0.327  -3.322  1.00  0.00    -0.370 N 
ATOM     36  N   UNL     1      -2.784  -1.990  -1.593  1.00  0.00    -0.359 N 
ATOM     37  H   UNL     1      -2.382   0.624  -3.713  1.00  0.00     0.159 HD
ATOM     38  H   UNL     1      -1.781  -1.041  -3.844  1.00  0.00     0.159 HD
ATOM     39  C   UNL     1      -3.706  -2.690  -0.719  1.00  0.00     0.143 C 
ATOM     40  H   UNL     1      -2.031  -2.565  -1.998  1.00  0.00     0.163 HD
ENDBRANCH  29  33
BRANCH  30  41
ATOM     41  C   UNL     1      -6.062  -0.126   3.621  1.00  0.00     0.384 C 
BRANCH  41  42
ATOM     42  C   UNL     1      -6.219  -1.604   3.985  1.00  0.00     0.228 C 
BRANCH  42  43
ATOM     43  O   UNL     1      -6.901  -1.737   5.201  1.00  0.00    -0.390 OA
ATOM     44  H   UNL     1      -6.246  -1.526   5.917  1.00  0.00     0.210 HD
ENDBRANCH  42  43
ENDBRANCH  41  42
ENDBRANCH  30  41
BRANCH  31  45
ATOM     45  C   UNL     1      -6.389   0.909  -1.195  1.00  0.00     0.080 C 
ATOM     46  O   UNL     1      -7.583   1.109  -1.034  1.00  0.00    -0.544 OA
ATOM     47  O   UNL     1      -5.882   1.029  -2.437  1.00  0.00    -0.544 OA
ENDBRANCH  31  45
ENDBRANCH  26  27
ENDBRANCH   6  25
BRANCH   5  48
ATOM     48  C   UNL     1       0.661   2.610   1.082  1.00  0.00     0.338 C 
ATOM     49  O   UNL     1      -0.546   2.718   1.234  1.00  0.00    -0.246 OA
BRANCH  48  50
ATOM     50  O   UNL     1       1.471   3.690   1.258  1.00  0.00    -0.459 OA
BRANCH  50  51
ATOM     51  C   UNL     1       1.076   4.989   1.535  1.00  0.00     0.177 C 
ATOM     52  C   UNL     1       1.680   5.424   2.900  1.00  0.00     0.045 C 
ATOM     53  C   UNL     1       1.549   5.939   0.433  1.00  0.00     0.045 C 
ATOM     54  C   UNL     1       1.985   6.944   2.991  1.00  0.00     0.004 C 
ATOM     55  C   UNL     1       1.020   7.374   0.704  1.00  0.00     0.004 C 
ATOM     56  C   UNL     1       0.936   7.727   2.213  1.00  0.00     0.000 C 
ENDBRANCH  50  51
ENDBRANCH  48  50
ENDBRANCH   5  48
TORSDOF 18
