REMARK SMILES O=C1C[C@@H](c2ccc(O)cc2)Oc2cc(O)c(-c3cc(O)c(O)cc3-c3cc(=O)c4c(O)cc(O)cc4o3)c(O)c21
REMARK SMILES IDX 1 1 2 2 3 3 4 4 12 5 13 6 14 7 15 8 17 9 39 10 41 11 5 12
REMARK SMILES IDX 6 13 11 14 7 15 10 16 8 17 9 18 40 20 18 22 19 23 25 24
REMARK SMILES IDX 20 25 24 26 22 27 26 28 27 29 38 30 28 31 37 32 29 33 30 34
REMARK SMILES IDX 36 35 31 36 34 37 33 38 32 39 35 41 21 43 23 45 16 47
REMARK H PARENT 9 19 40 21 32 40 35 42 21 44 23 46 16 48
ROOT
ATOM      1  O   UNL     1       3.317  -2.442  -2.269  1.00  0.00    -0.294 OA
ATOM      2  C   UNL     1       3.113  -1.519  -1.496  1.00  0.00     0.174 C 
ATOM      3  C   UNL     1       4.113  -0.405  -1.353  1.00  0.00     0.131 C 
ATOM      4  C   UNL     1       4.266  -0.093   0.141  1.00  0.00     0.211 C 
ATOM      5  O   UNL     1       3.019   0.191   0.682  1.00  0.00    -0.484 OA
ATOM      6  C   UNL     1       1.902  -0.536   0.408  1.00  0.00     0.138 A 
ATOM      7  C   UNL     1       0.780  -0.379   1.208  1.00  0.00     0.094 A 
ATOM      8  C   UNL     1      -0.379  -1.115   0.959  1.00  0.00     0.130 A 
ATOM      9  C   UNL     1      -0.432  -2.035  -0.122  1.00  0.00     0.067 A 
ATOM     10  C   UNL     1       0.724  -2.211  -0.933  1.00  0.00     0.141 A 
ATOM     11  C   UNL     1       1.881  -1.444  -0.670  1.00  0.00     0.102 A 
ENDROOT
BRANCH   4  12
ATOM     12  C   UNL     1       5.190   1.080   0.375  1.00  0.00    -0.007 A 
ATOM     13  C   UNL     1       6.386   0.915   1.093  1.00  0.00     0.011 A 
ATOM     14  C   UNL     1       4.861   2.357  -0.120  1.00  0.00     0.011 A 
ATOM     15  C   UNL     1       7.240   2.002   1.305  1.00  0.00     0.046 A 
ATOM     16  C   UNL     1       5.716   3.442   0.094  1.00  0.00     0.046 A 
ATOM     17  C   UNL     1       6.907   3.269   0.804  1.00  0.00     0.115 A 
BRANCH  17  18
ATOM     18  O   UNL     1       7.723   4.325   0.999  1.00  0.00    -0.508 OA
ATOM     19  H   UNL     1       8.558   4.248   1.482  1.00  0.00     0.293 HD
ENDBRANCH  17  18
ENDBRANCH   4  12
BRANCH  10  20
ATOM     20  O   UNL     1       0.729  -3.046  -1.997  1.00  0.00    -0.506 OA
ATOM     21  H   UNL     1      -0.040  -3.537  -2.311  1.00  0.00     0.293 HD
ENDBRANCH  10  20
BRANCH   9  22
ATOM     22  C   UNL     1      -1.708  -2.783  -0.366  1.00  0.00     0.004 A 
ATOM     23  C   UNL     1      -1.670  -4.187  -0.439  1.00  0.00     0.060 A 
ATOM     24  C   UNL     1      -2.974  -2.122  -0.431  1.00  0.00     0.029 A 
ATOM     25  C   UNL     1      -2.846  -4.938  -0.553  1.00  0.00     0.158 A 
ATOM     26  C   UNL     1      -4.146  -2.891  -0.514  1.00  0.00     0.062 A 
ATOM     27  C   UNL     1      -4.089  -4.286  -0.583  1.00  0.00     0.158 A 
BRANCH  24  28
ATOM     28  C   UNL     1      -3.110  -0.636  -0.456  1.00  0.00     0.139 A 
ATOM     29  C   UNL     1      -2.197   0.162  -1.159  1.00  0.00     0.100 A 
ATOM     30  O   UNL     1      -4.112  -0.056   0.197  1.00  0.00    -0.456 OA
ATOM     31  C   UNL     1      -2.327   1.546  -1.149  1.00  0.00     0.197 A 
ATOM     32  C   UNL     1      -4.267   1.264   0.264  1.00  0.00     0.146 A 
ATOM     33  O   UNL     1      -1.514   2.201  -1.773  1.00  0.00    -0.289 OA
ATOM     34  C   UNL     1      -3.376   2.146  -0.412  1.00  0.00     0.107 A 
ATOM     35  C   UNL     1      -5.316   1.773   1.034  1.00  0.00     0.094 A 
ATOM     36  C   UNL     1      -3.591   3.556  -0.298  1.00  0.00     0.134 A 
ATOM     37  C   UNL     1      -5.505   3.148   1.154  1.00  0.00     0.123 A 
ATOM     38  C   UNL     1      -4.649   4.028   0.487  1.00  0.00     0.093 A 
BRANCH  36  39
ATOM     39  O   UNL     1      -2.827   4.498  -0.899  1.00  0.00    -0.507 OA
ATOM     40  H   UNL     1      -2.075   4.349  -1.480  1.00  0.00     0.293 HD
ENDBRANCH  36  39
BRANCH  37  41
ATOM     41  O   UNL     1      -6.513   3.615   1.919  1.00  0.00    -0.508 OA
ATOM     42  H   UNL     1      -6.667   4.562   2.042  1.00  0.00     0.293 HD
ENDBRANCH  37  41
ENDBRANCH  24  28
BRANCH  25  43
ATOM     43  O   UNL     1      -2.789  -6.285  -0.619  1.00  0.00    -0.504 OA
ATOM     44  H   UNL     1      -1.951  -6.768  -0.598  1.00  0.00     0.293 HD
ENDBRANCH  25  43
BRANCH  27  45
ATOM     45  O   UNL     1      -5.242  -4.982  -0.687  1.00  0.00    -0.504 OA
ATOM     46  H   UNL     1      -5.268  -5.947  -0.747  1.00  0.00     0.293 HD
ENDBRANCH  27  45
ENDBRANCH   9  22
BRANCH   8  47
ATOM     47  O   UNL     1      -1.443  -0.959   1.777  1.00  0.00    -0.507 OA
ATOM     48  H   UNL     1      -1.441  -0.344   2.525  1.00  0.00     0.293 HD
ENDBRANCH   8  47
TORSDOF 10
