REMARK SMILES COc1ccc(Cl)cc1-c1ccc2c(c1)C(=O)N1CC[C@H](NC(=O)[C@@H]3CSCN3)C[C@H]1C(=O)N2
REMARK SMILES IDX 16 1 17 2 14 3 10 4 11 5 15 6 12 7 13 8 9 9 3 10 4 11 5 12
REMARK SMILES IDX 8 13 6 14 7 15 2 16 1 17 34 18 32 19 33 20 18 23 19 24 31 25
REMARK SMILES IDX 20 26 30 27 21 28 22 30 23 31 24 32 25 34 26 35 29 36 27 37
REMARK SMILES IDX 28 38
REMARK H PARENT 34 21 22 33 29 39
REMARK Flexibility Score:   49.900
ROOT
ATOM      1  C   UNL     1      -0.860  -0.226   1.315  1.00  0.00     0.256 C 
ATOM      2  O   UNL     1      -1.366   0.512   2.153  1.00  0.00    -0.269 OA
ENDROOT
BRANCH   1   3
ATOM      3  C   UNL     1      -1.809  -0.772   0.274  1.00  0.00     0.064 A 
ATOM      4  C   UNL     1      -4.100  -0.541  -0.685  1.00  0.00    -0.014 A 
ATOM      5  C   UNL     1      -3.852  -1.674  -1.470  1.00  0.00     0.011 A 
ATOM      6  C   UNL     1      -3.062  -0.103   0.163  1.00  0.00     0.025 A 
ATOM      7  C   UNL     1      -2.651  -2.361  -1.369  1.00  0.00     0.027 A 
ATOM      8  C   UNL     1      -1.620  -1.944  -0.508  1.00  0.00     0.054 A 
BRANCH   4   9
ATOM      9  C   UNL     1      -5.454   0.136  -0.737  1.00  0.00     0.025 A 
ATOM     10  C   UNL     1      -6.011   0.828   0.382  1.00  0.00     0.126 A 
ATOM     11  C   UNL     1      -7.293   1.412   0.271  1.00  0.00     0.048 A 
ATOM     12  C   UNL     1      -8.022   1.318  -0.909  1.00  0.00     0.024 A 
ATOM     13  C   UNL     1      -6.231   0.052  -1.917  1.00  0.00     0.033 A 
ATOM     14  C   UNL     1      -7.495   0.639  -2.001  1.00  0.00     0.041 A 
ATOM     15  Cl  UNL     1      -8.425   0.517  -3.484  1.00  0.00    -0.084 Cl
BRANCH  10  16
ATOM     16  O   UNL     1      -5.331   0.879   1.558  1.00  0.00    -0.496 OA
ATOM     17  C   UNL     1      -5.760   1.455   2.736  1.00  0.00     0.278 C 
ENDBRANCH  10  16
ENDBRANCH   4   9
BRANCH   8  18
ATOM     18  N   UNL     1      -0.512  -2.831  -0.405  1.00  0.00    -0.324 N 
ATOM     19  C   UNL     1       0.733  -2.576   0.053  1.00  0.00     0.247 CG0
ATOM     20  O   UNL     1       1.507  -3.522   0.130  1.00  0.00    -0.272 OA
ATOM     21  H   UNL     1      -0.679  -3.801  -0.719  1.00  0.00     0.170 HD
ATOM     22  G   UNL     1       1.246  -1.179   0.352  1.00  0.00     0.000 G0
ENDBRANCH   8  18
ENDBRANCH   1   3
BRANCH   1  23
ATOM     23  N   UNL     1       0.493  -0.478   1.405  1.00  0.00    -0.326 N 
ATOM     24  C   UNL     1       1.264   0.161   2.497  1.00  0.00     0.123 C 
ATOM     25  C   UNL     1       1.246  -1.179   0.352  1.00  0.00     0.177 CG0
ATOM     26  C   UNL     1       2.388   0.979   1.859  1.00  0.00     0.046 C 
ATOM     27  C   UNL     1       2.757  -1.284   0.737  1.00  0.00     0.060 C 
ATOM     28  C   UNL     1       3.413   0.021   1.232  1.00  0.00     0.086 C 
ATOM     29  G   UNL     1       0.733  -2.576   0.053  1.00  0.00     0.000 G0
BRANCH  28  30
ATOM     30  N   UNL     1       4.174   0.673   0.175  1.00  0.00    -0.352 N 
ATOM     31  C   UNL     1       5.529   0.838   0.244  1.00  0.00     0.238 C 
ATOM     32  O   UNL     1       6.139   0.493   1.248  1.00  0.00    -0.273 OA
ATOM     33  H   UNL     1       3.668   0.993  -0.665  1.00  0.00     0.163 HD
BRANCH  31  34
ATOM     34  C   UNL     1       6.295   1.465  -0.914  1.00  0.00     0.154 C 
ATOM     35  C   UNL     1       6.176   0.646  -2.193  1.00  0.00     0.100 C 
ATOM     36  N   UNL     1       7.729   1.546  -0.627  1.00  0.00    -0.296 NA
ATOM     37  S   UNL     1       7.292  -0.761  -1.983  1.00  0.00    -0.144 SA
ATOM     38  C   UNL     1       8.289   0.195  -0.779  1.00  0.00     0.152 C 
ATOM     39  H   UNL     1       8.164   2.156  -1.361  1.00  0.00     0.124 HD
ENDBRANCH  31  34
ENDBRANCH  28  30
ENDBRANCH   1  23
TORSDOF 4
