REMARK SMILES CCCCCC/C=C\CCCCC/C=C/C(=O)N[C@@H]1[C@@H](O[C@@H]2[C@@H](O)[C@H](NC(C)=O)[C@@H](O[C@@H]3[C@@H](O)[C@H](NC(C)=O)[C@@H](O[C@@H]4[C@@H](O)[C@H](NC(C)=O)[C@@H](O)O[C@H]4COS(=O)(=O)O)O[C@H]3CO)O[C@H]2CO)O[C@@H](CO)[C@H](O)[C@H]1O
REMARK SMILES IDX 16 1 17 2 18 3 15 5 14 6 13 7 12 8 11 9 10 10 9 11 8 12 7 13
REMARK SMILES IDX 6 14 5 15 4 16 3 17 2 18 1 19 19 20 20 21 74 22 68 23 72 24
REMARK SMILES IDX 69 25 21 26 22 27 23 28 65 29 25 30 64 31 30 32 24 33 66 35
REMARK SMILES IDX 67 36 26 38 27 39 29 40 28 42 31 43 32 44 33 45 61 46 35 47
REMARK SMILES IDX 60 48 40 49 34 50 62 52 63 53 36 55 37 56 39 57 38 59 41 60
REMARK SMILES IDX 42 61 43 62 53 63 45 64 52 65 50 66 44 67 54 69 55 70 56 71
REMARK SMILES IDX 57 72 58 73 59 74 46 76 47 77 49 78 48 80 51 81 75 83 73 85
REMARK SMILES IDX 70 87 71 88
REMARK H PARENT 18 4 24 34 67 37 26 41 34 51 63 54 36 58 44 68 59 75 46 79
REMARK H PARENT 51 82 75 84 73 86 71 89
ROOT
ATOM      1  C   UNL     1       5.415   2.203   2.046  1.00  0.00     0.244 C 
ATOM      2  O   UNL     1       5.085   2.146   3.222  1.00  0.00    -0.270 OA
ATOM      3  N   UNL     1       4.724   3.003   1.180  1.00  0.00    -0.342 N 
ATOM      4  H   UNL     1       4.957   3.010   0.177  1.00  0.00     0.164 HD
ENDROOT
BRANCH   1   5
ATOM      5  C   UNL     1       6.584   1.388   1.641  1.00  0.00     0.067 C 
ATOM      6  C   UNL     1       7.212   1.462   0.451  1.00  0.00    -0.021 C 
BRANCH   6   7
ATOM      7  C   UNL     1       8.472   0.693   0.099  1.00  0.00     0.027 C 
BRANCH   7   8
ATOM      8  C   UNL     1       8.956  -0.352   1.131  1.00  0.00     0.004 C 
BRANCH   8   9
ATOM      9  C   UNL     1       8.073  -1.631   1.196  1.00  0.00     0.001 C 
BRANCH   9  10
ATOM     10  C   UNL     1       8.085  -2.486  -0.093  1.00  0.00     0.004 C 
BRANCH  10  11
ATOM     11  C   UNL     1       9.475  -3.066  -0.388  1.00  0.00     0.027 C 
BRANCH  11  12
ATOM     12  C   UNL     1       9.509  -3.796  -1.707  1.00  0.00    -0.031 C 
ATOM     13  C   UNL     1      10.276  -3.466  -2.772  1.00  0.00    -0.031 C 
BRANCH  13  14
ATOM     14  C   UNL     1      11.231  -2.290  -2.880  1.00  0.00     0.027 C 
BRANCH  14  15
ATOM     15  C   UNL     1      12.674  -2.745  -3.150  1.00  0.00     0.004 C 
BRANCH  15  16
ATOM     16  C   UNL     1      13.290  -3.633  -2.050  1.00  0.00     0.000 C 
BRANCH  16  17
ATOM     17  C   UNL     1      13.423  -2.924  -0.688  1.00  0.00    -0.000 C 
BRANCH  17  18
ATOM     18  C   UNL     1      14.022  -3.826   0.404  1.00  0.00    -0.003 C 
ATOM     19  C   UNL     1      15.476  -4.218   0.140  1.00  0.00     0.004 C 
ENDBRANCH  17  18
ENDBRANCH  16  17
ENDBRANCH  15  16
ENDBRANCH  14  15
ENDBRANCH  13  14
ENDBRANCH  11  12
ENDBRANCH  10  11
ENDBRANCH   9  10
ENDBRANCH   8   9
ENDBRANCH   7   8
ENDBRANCH   6   7
ENDBRANCH   1   5
BRANCH   3  20
ATOM     20  C   UNL     1       3.651   3.878   1.625  1.00  0.00     0.170 C 
ATOM     21  C   UNL     1       2.305   3.407   1.050  1.00  0.00     0.276 C 
ATOM     22  C   UNL     1       3.936   5.374   1.208  1.00  0.00     0.173 C 
ATOM     23  O   UNL     1       1.364   4.442   1.293  1.00  0.00    -0.342 OA
ATOM     24  C   UNL     1       3.021   5.809   0.026  1.00  0.00     0.176 C 
ATOM     25  C   UNL     1       1.524   5.548   0.412  1.00  0.00     0.178 C 
BRANCH  21  26
ATOM     26  O   UNL     1       1.873   2.183   1.643  1.00  0.00    -0.341 OA
BRANCH  26  27
ATOM     27  C   UNL     1       0.534   1.922   1.229  1.00  0.00     0.184 C 
ATOM     28  C   UNL     1      -0.428   2.043   2.411  1.00  0.00     0.173 C 
ATOM     29  C   UNL     1       0.317   0.525   0.632  1.00  0.00     0.178 C 
ATOM     30  C   UNL     1      -1.836   2.016   1.815  1.00  0.00     0.169 C 
ATOM     31  O   UNL     1      -0.974   0.471   0.039  1.00  0.00    -0.342 OA
ATOM     32  C   UNL     1      -2.056   0.751   0.929  1.00  0.00     0.276 C 
BRANCH  28  33
ATOM     33  O   UNL     1      -0.201   3.216   3.156  1.00  0.00    -0.388 OA
ATOM     34  H   UNL     1      -0.612   3.985   2.684  1.00  0.00     0.211 HD
ENDBRANCH  28  33
BRANCH  29  35
ATOM     35  C   UNL     1       1.358   0.229  -0.458  1.00  0.00     0.191 C 
BRANCH  35  36
ATOM     36  O   UNL     1       1.142  -1.042  -1.009  1.00  0.00    -0.394 OA
ATOM     37  H   UNL     1       1.528  -1.698  -0.370  1.00  0.00     0.210 HD
ENDBRANCH  35  36
ENDBRANCH  29  35
BRANCH  30  38
ATOM     38  N   UNL     1      -2.806   2.113   2.896  1.00  0.00    -0.346 N 
ATOM     39  C   UNL     1      -3.503   3.255   3.166  1.00  0.00     0.217 C 
ATOM     40  O   UNL     1      -3.365   4.252   2.472  1.00  0.00    -0.275 OA
ATOM     41  H   UNL     1      -2.901   1.307   3.533  1.00  0.00     0.164 HD
ATOM     42  C   UNL     1      -4.428   3.327   4.343  1.00  0.00     0.114 C 
ENDBRANCH  30  38
BRANCH  32  43
ATOM     43  O   UNL     1      -3.159   1.045   0.092  1.00  0.00    -0.341 OA
BRANCH  43  44
ATOM     44  C   UNL     1      -4.322   0.296   0.359  1.00  0.00     0.184 C 
ATOM     45  C   UNL     1      -4.344  -0.971  -0.523  1.00  0.00     0.173 C 
ATOM     46  C   UNL     1      -5.540   1.165  -0.044  1.00  0.00     0.178 C 
ATOM     47  C   UNL     1      -5.712  -1.670  -0.398  1.00  0.00     0.169 C 
ATOM     48  O   UNL     1      -6.743   0.451   0.175  1.00  0.00    -0.342 OA
ATOM     49  C   UNL     1      -6.827  -0.652  -0.708  1.00  0.00     0.276 C 
BRANCH  45  50
ATOM     50  O   UNL     1      -3.292  -1.846  -0.203  1.00  0.00    -0.388 OA
ATOM     51  H   UNL     1      -3.431  -2.150   0.731  1.00  0.00     0.211 HD
ENDBRANCH  45  50
BRANCH  46  52
ATOM     52  C   UNL     1      -5.597   2.463   0.762  1.00  0.00     0.191 C 
BRANCH  52  53
ATOM     53  O   UNL     1      -6.706   3.232   0.383  1.00  0.00    -0.394 OA
ATOM     54  H   UNL     1      -6.442   3.728  -0.435  1.00  0.00     0.210 HD
ENDBRANCH  52  53
ENDBRANCH  46  52
BRANCH  47  55
ATOM     55  N   UNL     1      -5.793  -2.779  -1.338  1.00  0.00    -0.346 N 
ATOM     56  C   UNL     1      -6.002  -4.070  -0.961  1.00  0.00     0.217 C 
ATOM     57  O   UNL     1      -6.122  -4.366   0.219  1.00  0.00    -0.275 OA
ATOM     58  H   UNL     1      -5.695  -2.564  -2.344  1.00  0.00     0.164 HD
ATOM     59  C   UNL     1      -6.095  -5.158  -1.992  1.00  0.00     0.114 C 
ENDBRANCH  47  55
BRANCH  49  60
ATOM     60  O   UNL     1      -8.072  -1.291  -0.504  1.00  0.00    -0.341 OA
BRANCH  60  61
ATOM     61  C   UNL     1      -9.114  -0.729  -1.290  1.00  0.00     0.184 C 
ATOM     62  C   UNL     1      -9.977   0.259  -0.461  1.00  0.00     0.173 C 
ATOM     63  C   UNL     1      -9.973  -1.916  -1.821  1.00  0.00     0.180 C 
ATOM     64  C   UNL     1     -10.981  -0.461   0.467  1.00  0.00     0.169 C 
ATOM     65  O   UNL     1     -11.364  -1.668  -1.675  1.00  0.00    -0.342 OA
ATOM     66  C   UNL     1     -11.683  -1.638  -0.285  1.00  0.00     0.272 C 
BRANCH  62  67
ATOM     67  O   UNL     1     -10.673   1.140  -1.320  1.00  0.00    -0.388 OA
ATOM     68  H   UNL     1     -11.202   0.629  -1.981  1.00  0.00     0.211 HD
ENDBRANCH  62  67
BRANCH  63  69
ATOM     69  C   UNL     1      -9.635  -2.230  -3.281  1.00  0.00     0.220 C 
BRANCH  69  70
ATOM     70  O   UNL     1     -10.378  -3.349  -3.694  1.00  0.00    -0.245 OA
BRANCH  70  71
ATOM     71  S   UNL     1     -10.004  -3.667  -5.353  1.00  0.00     0.397 S 
ATOM     72  O   UNL     1     -10.311  -2.444  -6.232  1.00  0.00    -0.169 OA
ATOM     73  O   UNL     1      -8.494  -3.907  -5.512  1.00  0.00    -0.169 OA
BRANCH  71  74
ATOM     74  O   UNL     1     -10.823  -5.031  -5.997  1.00  0.00    -0.264 OA
ATOM     75  H   UNL     1     -11.784  -4.832  -5.859  1.00  0.00     0.236 HD
ENDBRANCH  71  74
ENDBRANCH  70  71
ENDBRANCH  69  70
ENDBRANCH  63  69
BRANCH  64  76
ATOM     76  N   UNL     1     -10.318  -0.961   1.663  1.00  0.00    -0.346 N 
ATOM     77  C   UNL     1     -10.641  -0.547   2.922  1.00  0.00     0.217 C 
ATOM     78  O   UNL     1     -11.527   0.279   3.103  1.00  0.00    -0.275 OA
ATOM     79  H   UNL     1      -9.571  -1.664   1.551  1.00  0.00     0.164 HD
ATOM     80  C   UNL     1      -9.925  -1.097   4.119  1.00  0.00     0.114 C 
ENDBRANCH  64  76
BRANCH  66  81
ATOM     81  O   UNL     1     -13.072  -1.570  -0.112  1.00  0.00    -0.366 OA
ATOM     82  H   UNL     1     -13.394  -0.809  -0.661  1.00  0.00     0.213 HD
ENDBRANCH  66  81
ENDBRANCH  60  61
ENDBRANCH  49  60
ENDBRANCH  43  44
ENDBRANCH  32  43
ENDBRANCH  26  27
ENDBRANCH  21  26
BRANCH  22  83
ATOM     83  O   UNL     1       3.775   6.264   2.289  1.00  0.00    -0.388 OA
ATOM     84  H   UNL     1       3.049   5.940   2.879  1.00  0.00     0.211 HD
ENDBRANCH  22  83
BRANCH  24  85
ATOM     85  O   UNL     1       3.331   5.045  -1.115  1.00  0.00    -0.388 OA
ATOM     86  H   UNL     1       4.271   5.245  -1.361  1.00  0.00     0.211 HD
ENDBRANCH  24  85
BRANCH  25  87
ATOM     87  C   UNL     1       0.865   6.770   1.083  1.00  0.00     0.191 C 
BRANCH  87  88
ATOM     88  O   UNL     1      -0.464   6.483   1.434  1.00  0.00    -0.394 OA
ATOM     89  H   UNL     1      -0.990   6.465   0.593  1.00  0.00     0.210 HD
ENDBRANCH  87  88
ENDBRANCH  25  87
ENDBRANCH   3  20
TORSDOF 38
