REMARK SMILES CNC[C@H]1Oc2c(O)cc3c(c2C=C[C@H]1NC)[C@H]1Oc2c(ccc4c2[C@]2(CC[C@@H](C2)[C@@H](CCc2ccccc2)c2ccc(N)nc2C#CC3)Cc2cc(O)cc(OC)c2-4)[C@@H]1COC(C)=O
REMARK SMILES IDX 6 1 7 2 9 3 10 4 11 5 12 6 5 7 4 8 3 10 2 11 1 12 8 14 13 16
REMARK SMILES IDX 14 17 15 18 16 20 17 21 18 23 60 24 19 25 21 26 20 27 22 28
REMARK SMILES IDX 25 29 23 30 26 31 24 32 27 33 50 34 30 35 59 36 28 37 51 38
REMARK SMILES IDX 29 39 56 40 52 41 55 42 53 43 61 44 62 45 63 46 65 47 64 48
REMARK SMILES IDX 31 49 40 50 41 51 46 52 42 53 47 54 45 55 43 56 44 58 32 61
REMARK SMILES IDX 33 62 34 63 35 64 39 65 36 66 38 67 37 68 57 69 58 70 54 71
REMARK SMILES IDX 49 73 48 74
REMARK H PARENT 2 13 8 15 16 22 44 59 44 60 54 72
REMARK Flexibility Score:  144.800
ROOT
ATOM      1  C   UNL     1      -3.087  -1.515   2.967  1.00  0.00     0.169 A 
ATOM      2  C   UNL     1      -2.381  -2.259   3.927  1.00  0.00     0.158 A 
ATOM      3  C   UNL     1      -1.053  -1.992   4.193  1.00  0.00     0.055 A 
ATOM      4  C   UNL     1      -0.375  -0.955   3.556  1.00  0.00    -0.025 A 
ATOM      5  C   UNL     1      -1.079  -0.112   2.634  1.00  0.00     0.008 A 
ATOM      6  C   UNL     1      -2.450  -0.417   2.304  1.00  0.00     0.027 A 
ENDROOT
BRANCH   1   7
ATOM      7  O   UNL     1      -4.348  -1.957   2.732  1.00  0.00    -0.483 OA
BRANCH   7   8
ATOM      8  C   UNL     1      -5.215  -1.793   1.674  1.00  0.00     0.208 CG0
ATOM      9  G   UNL     1      -5.554  -0.304   1.497  1.00  0.00     0.000 G0
BRANCH   8  10
ATOM     10  C   UNL     1      -4.676  -2.503   0.405  1.00  0.00     0.127 C 
BRANCH  10  11
ATOM     11  N   UNL     1      -4.370  -3.919   0.664  1.00  0.00    -0.316 NA
ATOM     12  C   UNL     1      -5.576  -4.751   0.694  1.00  0.00     0.101 C 
ATOM     13  H   UNL     1      -3.776  -4.270  -0.122  1.00  0.00     0.122 HD
ENDBRANCH  10  11
ENDBRANCH   8  10
ENDBRANCH   7   8
ENDBRANCH   1   7
BRANCH   2  14
ATOM     14  O   UNL     1      -2.956  -3.297   4.575  1.00  0.00    -0.504 OA
ATOM     15  H   UNL     1      -3.874  -3.571   4.443  1.00  0.00     0.293 HD
ENDBRANCH   2  14
BRANCH   6  16
ATOM     16  C   UNL     1      -3.128   0.399   1.238  1.00  0.00     0.010 C 
ATOM     17  C   UNL     1      -4.414   0.440   0.874  1.00  0.00    -0.004 C 
BRANCH  17  18
ATOM     18  C   UNL     1      -5.554  -0.304   1.497  1.00  0.00     0.119 CG0
ATOM     19  G   UNL     1      -5.215  -1.793   1.674  1.00  0.00     0.000 G0
BRANCH  18  20
ATOM     20  N   UNL     1      -6.749  -0.078   0.654  1.00  0.00    -0.310 NA
ATOM     21  C   UNL     1      -8.007  -0.537   1.253  1.00  0.00     0.102 C 
ATOM     22  H   UNL     1      -6.639  -0.494  -0.296  1.00  0.00     0.123 HD
ENDBRANCH  18  20
ENDBRANCH  17  18
ENDBRANCH   6  16
BRANCH   5  23
ATOM     23  C   UNL     1      -0.356   1.105   2.035  1.00  0.00     0.215 C 
ATOM     24  C   UNL     1      -1.010   2.499   2.280  1.00  0.00     0.106 C 
ATOM     25  O   UNL     1      -0.116   1.039   0.686  1.00  0.00    -0.484 OA
ATOM     26  C   UNL     1      -0.494   3.203   1.069  1.00  0.00     0.005 A 
ATOM     27  C   UNL     1       0.032   2.280   0.201  1.00  0.00     0.128 A 
ATOM     28  C   UNL     1      -0.538   4.546   0.751  1.00  0.00     0.009 A 
ATOM     29  C   UNL     1       0.647   2.643  -1.019  1.00  0.00     0.009 A 
ATOM     30  C   UNL     1       0.034   4.968  -0.446  1.00  0.00     0.010 A 
ATOM     31  C   UNL     1       1.329   1.608  -1.964  1.00  0.00     0.004 C 
ATOM     32  C   UNL     1       0.659   4.055  -1.347  1.00  0.00    -0.007 A 
ATOM     33  C   UNL     1       2.808   1.347  -1.603  1.00  0.00     0.012 C 
ATOM     34  C   UNL     1       1.183   2.140  -3.400  1.00  0.00     0.048 C 
ATOM     35  C   UNL     1       0.759   0.159  -1.880  1.00  0.00     0.016 C 
ATOM     36  C   UNL     1       1.357   4.526  -2.613  1.00  0.00     0.028 A 
ATOM     37  C   UNL     1       2.716   0.379  -0.434  1.00  0.00     0.005 C 
ATOM     38  C   UNL     1       1.697   3.540  -3.566  1.00  0.00    -0.032 A 
ATOM     39  C   UNL     1       1.613  -0.635  -0.836  1.00  0.00    -0.003 C 
ATOM     40  C   UNL     1       1.728   5.884  -2.892  1.00  0.00     0.130 A 
ATOM     41  C   UNL     1       2.437   3.864  -4.713  1.00  0.00     0.050 A 
ATOM     42  C   UNL     1       2.451   6.181  -4.068  1.00  0.00     0.093 A 
ATOM     43  C   UNL     1       2.818   5.181  -4.960  1.00  0.00     0.119 A 
BRANCH  24  44
ATOM     44  C   UNL     1      -0.593   3.115   3.634  1.00  0.00     0.245 C 
BRANCH  44  45
ATOM     45  O   UNL     1      -1.119   4.385   3.798  1.00  0.00    -0.465 OA
BRANCH  45  46
ATOM     46  C   UNL     1      -2.442   4.676   3.930  1.00  0.00     0.302 C 
ATOM     47  O   UNL     1      -3.275   3.787   4.035  1.00  0.00    -0.253 OA
ATOM     48  C   UNL     1      -2.886   6.103   3.950  1.00  0.00     0.139 C 
ENDBRANCH  45  46
ENDBRANCH  44  45
ENDBRANCH  24  44
BRANCH  39  49
ATOM     49  C   UNL     1       2.087  -2.050  -1.375  1.00  0.00     0.025 C 
BRANCH  49  50
ATOM     50  C   UNL     1       1.352  -3.242  -0.735  1.00  0.00    -0.010 A 
ATOM     51  C   UNL     1       0.783  -4.206  -1.596  1.00  0.00     0.011 A 
ATOM     52  C   UNL     1       1.278  -3.495   0.667  1.00  0.00     0.119 A 
ATOM     53  C   UNL     1       0.211  -5.375  -1.092  1.00  0.00     0.047 A 
ATOM     54  C   UNL     1       1.666  -2.567   1.705  1.00  0.00    -0.046 CG1
ATOM     55  N   UNL     1       0.704  -4.645   1.112  1.00  0.00    -0.223 NA
ATOM     56  C   UNL     1       0.195  -5.590   0.285  1.00  0.00     0.124 A 
ATOM     57  G   UNL     1       1.622  -1.814   2.652  1.00  0.00     0.000 G1
BRANCH  56  58
ATOM     58  N   UNL     1      -0.339  -6.781   0.827  1.00  0.00    -0.384 N 
ATOM     59  H   UNL     1      -0.326  -6.936   1.846  1.00  0.00     0.158 HD
ATOM     60  H   UNL     1      -0.714  -7.521   0.216  1.00  0.00     0.158 HD
ENDBRANCH  56  58
ENDBRANCH  49  50
BRANCH  49  61
ATOM     61  C   UNL     1       3.613  -2.332  -1.315  1.00  0.00     0.013 C 
BRANCH  61  62
ATOM     62  C   UNL     1       3.960  -3.613  -2.119  1.00  0.00     0.036 C 
BRANCH  62  63
ATOM     63  C   UNL     1       5.423  -3.965  -2.110  1.00  0.00    -0.048 A 
ATOM     64  C   UNL     1       6.379  -3.092  -2.655  1.00  0.00     0.004 A 
ATOM     65  C   UNL     1       5.837  -5.201  -1.585  1.00  0.00     0.004 A 
ATOM     66  C   UNL     1       7.731  -3.453  -2.666  1.00  0.00     0.000 A 
ATOM     67  C   UNL     1       7.186  -5.557  -1.598  1.00  0.00     0.000 A 
ATOM     68  C   UNL     1       8.133  -4.684  -2.138  1.00  0.00     0.000 A 
ENDBRANCH  62  63
ENDBRANCH  61  62
ENDBRANCH  49  61
ENDBRANCH  39  49
BRANCH  40  69
ATOM     69  O   UNL     1       1.398   6.885  -2.037  1.00  0.00    -0.496 OA
ATOM     70  C   UNL     1       1.514   8.243  -2.263  1.00  0.00     0.278 C 
ENDBRANCH  40  69
BRANCH  43  71
ATOM     71  O   UNL     1       3.522   5.505  -6.064  1.00  0.00    -0.508 OA
ATOM     72  H   UNL     1       3.798   4.843  -6.713  1.00  0.00     0.293 HD
ENDBRANCH  43  71
ENDBRANCH   5  23
BRANCH   4  73
ATOM     73  C   UNL     1       1.141  -0.947   3.746  1.00  0.00     0.126 C 
ATOM     74  C   UNL     1       1.622  -1.814   2.652  1.00  0.00    -0.091 CG1
ATOM     75  G   UNL     1       1.666  -2.567   1.705  1.00  0.00     0.000 G1
ENDBRANCH   4  73
TORSDOF 13
