REMARK SMILES CC1(C)CC[C@]2(C(=O)O)CC[C@]3(C)[C@@H](C=C[C@@H]4[C@@]5(C)CC[C@@H](O[C@H]6O[C@H](CO)[C@@H](O)[C@@H]6O)C(C)(C)[C@@H]5CC[C@]43C)[C@H]2C1
REMARK SMILES IDX 23 1 22 2 2 3 4 4 42 5 5 6 41 7 6 8 14 9 10 10 12 11 15 12
REMARK SMILES IDX 11 13 39 14 16 15 38 16 17 17 37 18 18 19 36 20 20 21 33 22
REMARK SMILES IDX 21 23 1 24 3 25 13 26 40 27 19 28 34 29 35 30 7 31 8 32 9 33
REMARK SMILES IDX 24 35 25 36 31 37 26 38 29 39 32 40 27 42 28 43 30 45
REMARK H PARENT 9 34 32 41 28 44 30 46
ROOT
ATOM      1  O   UNL     1       5.301  -0.174   0.027  1.00  0.00    -0.346 OA
ENDROOT
BRANCH   1   2
ATOM      2  C   UNL     1       4.009  -0.755  -0.044  1.00  0.00     0.127 C 
ATOM      3  C   UNL     1      -6.327   1.560  -2.251  1.00  0.00    -0.035 C 
ATOM      4  C   UNL     1      -7.386   1.035  -1.243  1.00  0.00     0.007 C 
ATOM      5  C   UNL     1      -4.973   0.829  -2.013  1.00  0.00     0.011 C 
ATOM      6  C   UNL     1      -6.910   1.146   0.218  1.00  0.00     0.019 C 
ATOM      7  C   UNL     1      -4.510   0.893  -0.529  1.00  0.00     0.014 C 
ATOM      8  C   UNL     1      -5.601   0.338   0.456  1.00  0.00     0.071 C 
ATOM      9  C   UNL     1      -3.056   0.340  -0.296  1.00  0.00     0.022 C 
ATOM     10  C   UNL     1      -5.104   0.601   1.903  1.00  0.00     0.020 C 
ATOM     11  C   UNL     1      -2.593   0.340   1.229  1.00  0.00    -0.020 C 
ATOM     12  C   UNL     1      -2.628  -0.896  -1.055  1.00  0.00    -0.027 C 
ATOM     13  C   UNL     1      -3.769  -0.117   2.164  1.00  0.00     0.009 C 
ATOM     14  C   UNL     1      -1.254  -0.598   1.450  1.00  0.00    -0.020 C 
ATOM     15  C   UNL     1      -1.350  -1.300  -0.936  1.00  0.00    -0.026 C 
ATOM     16  C   UNL     1      -0.344  -0.047   2.591  1.00  0.00     0.008 C 
ATOM     17  C   UNL     1      -0.445  -0.617   0.091  1.00  0.00     0.024 C 
ATOM     18  C   UNL     1       1.041  -0.700   2.655  1.00  0.00     0.005 C 
ATOM     19  C   UNL     1       1.063  -1.152   0.104  1.00  0.00    -0.022 C 
ATOM     20  C   UNL     1       1.791  -0.465   1.314  1.00  0.00     0.004 C 
ATOM     21  C   UNL     1       1.758  -0.686  -1.241  1.00  0.00     0.010 C 
ATOM     22  C   UNL     1       3.363  -0.692   1.401  1.00  0.00    -0.006 C 
ATOM     23  C   UNL     1       3.142  -0.005  -1.065  1.00  0.00     0.033 C 
ATOM     24  C   UNL     1      -6.157   3.097  -2.132  1.00  0.00     0.011 C 
ATOM     25  C   UNL     1      -6.814   1.259  -3.684  1.00  0.00     0.011 C 
ATOM     26  C   UNL     1      -2.289   1.841   1.565  1.00  0.00     0.012 C 
ATOM     27  C   UNL     1      -1.662  -2.056   1.863  1.00  0.00     0.012 C 
ATOM     28  C   UNL     1       1.199  -2.706   0.181  1.00  0.00     0.012 C 
ATOM     29  C   UNL     1       3.948   0.523   2.195  1.00  0.00     0.014 C 
ATOM     30  C   UNL     1       3.784  -1.961   2.188  1.00  0.00     0.014 C 
BRANCH   8  31
ATOM     31  C   UNL     1      -5.917  -1.163   0.301  1.00  0.00     0.309 C 
ATOM     32  O   UNL     1      -5.346  -1.849  -0.526  1.00  0.00    -0.252 OA
BRANCH  31  33
ATOM     33  O   UNL     1      -6.838  -1.760   1.091  1.00  0.00    -0.481 OA
ATOM     34  H   UNL     1      -7.332  -1.287   1.774  1.00  0.00     0.296 HD
ENDBRANCH  31  33
ENDBRANCH   8  31
ENDBRANCH   1   2
BRANCH   1  35
ATOM     35  C   UNL     1       6.236  -0.641  -0.926  1.00  0.00     0.282 C 
ATOM     36  O   UNL     1       6.394   0.346  -1.929  1.00  0.00    -0.341 OA
ATOM     37  C   UNL     1       7.595  -0.769  -0.242  1.00  0.00     0.202 C 
ATOM     38  C   UNL     1       7.419   1.229  -1.483  1.00  0.00     0.178 C 
ATOM     39  C   UNL     1       7.982   0.690  -0.152  1.00  0.00     0.179 C 
BRANCH  37  40
ATOM     40  O   UNL     1       8.491  -1.456  -1.073  1.00  0.00    -0.385 OA
ATOM     41  H   UNL     1       8.250  -2.417  -1.019  1.00  0.00     0.211 HD
ENDBRANCH  37  40
BRANCH  38  42
ATOM     42  C   UNL     1       8.487   1.425  -2.576  1.00  0.00     0.191 C 
BRANCH  42  43
ATOM     43  O   UNL     1       9.111   0.226  -2.945  1.00  0.00    -0.394 OA
ATOM     44  H   UNL     1       9.982   0.195  -2.468  1.00  0.00     0.210 HD
ENDBRANCH  42  43
ENDBRANCH  38  42
BRANCH  39  45
ATOM     45  O   UNL     1       7.288   1.268   0.925  1.00  0.00    -0.387 OA
ATOM     46  H   UNL     1       7.598   2.209   0.996  1.00  0.00     0.211 HD
ENDBRANCH  39  45
ENDBRANCH   1  35
TORSDOF 8
