REMARK SMILES COc1cc(C(=O)Nc2ccc3c(c2)CCCN3C(=O)C(C)(C)C)cc(OC)c1OC
REMARK SMILES IDX 9 1 10 2 11 3 12 4 13 5 14 6 15 7 16 8 17 9 18 10 8 11 6 12
REMARK SMILES IDX 7 13 5 15 3 16 4 17 29 18 26 19 25 20 2 21 1 22 30 23 31 24
REMARK SMILES IDX 27 25 28 26 19 27 20 28 21 29 22 30 23 31 24 32
REMARK H PARENT 8 14
ROOT
ATOM      1  C   UNL     1       0.083   0.292   0.791  1.00  0.00     0.041 A 
ATOM      2  C   UNL     1      -0.640   1.472   0.591  1.00  0.00     0.028 A 
ATOM      3  C   UNL     1      -2.024   1.421   0.426  1.00  0.00     0.029 A 
ATOM      4  C   UNL     1      -2.693   0.179   0.440  1.00  0.00     0.047 A 
ATOM      5  C   UNL     1      -1.948  -0.996   0.633  1.00  0.00    -0.022 A 
ATOM      6  C   UNL     1      -0.569  -0.942   0.823  1.00  0.00     0.032 A 
ATOM      7  C   UNL     1      -2.675  -2.295   0.496  1.00  0.00     0.039 C 
ATOM      8  C   UNL     1      -3.985  -2.292   1.276  1.00  0.00     0.027 C 
ATOM      9  C   UNL     1      -4.722  -0.927   1.217  1.00  0.00     0.126 C 
ATOM     10  N   UNL     1      -4.119   0.054   0.297  1.00  0.00    -0.312 N 
ENDROOT
BRANCH   1  11
ATOM     11  N   UNL     1       1.487   0.332   0.897  1.00  0.00    -0.322 N 
ATOM     12  C   UNL     1       2.265   0.307  -0.225  1.00  0.00     0.255 C 
ATOM     13  O   UNL     1       1.724   0.291  -1.324  1.00  0.00    -0.269 OA
ATOM     14  H   UNL     1       1.877   0.299   1.845  1.00  0.00     0.170 HD
BRANCH  12  15
ATOM     15  C   UNL     1       3.756   0.264  -0.163  1.00  0.00     0.047 A 
ATOM     16  C   UNL     1       5.899   0.101  -1.339  1.00  0.00     0.165 A 
ATOM     17  C   UNL     1       4.494   0.160  -1.355  1.00  0.00     0.064 A 
ATOM     18  C   UNL     1       6.573   0.148  -0.105  1.00  0.00     0.203 A 
ATOM     19  C   UNL     1       5.855   0.258   1.095  1.00  0.00     0.165 A 
ATOM     20  C   UNL     1       4.453   0.314   1.056  1.00  0.00     0.064 A 
BRANCH  16  21
ATOM     21  O   UNL     1       6.633  -0.005  -2.478  1.00  0.00    -0.493 OA
ATOM     22  C   UNL     1       6.125  -0.081  -3.760  1.00  0.00     0.278 C 
ENDBRANCH  16  21
BRANCH  18  23
ATOM     23  O   UNL     1       7.921   0.086  -0.080  1.00  0.00    -0.490 OA
ATOM     24  C   UNL     1       8.583  -1.113   0.064  1.00  0.00     0.278 C 
ENDBRANCH  18  23
BRANCH  19  25
ATOM     25  O   UNL     1       6.540   0.305   2.272  1.00  0.00    -0.493 OA
ATOM     26  C   UNL     1       5.968   0.404   3.527  1.00  0.00     0.278 C 
ENDBRANCH  19  25
ENDBRANCH  12  15
ENDBRANCH   1  11
BRANCH  10  27
ATOM     27  C   UNL     1      -4.813   0.876  -0.580  1.00  0.00     0.232 C 
ATOM     28  O   UNL     1      -4.168   1.638  -1.290  1.00  0.00    -0.274 OA
BRANCH  27  29
ATOM     29  C   UNL     1      -6.348   0.908  -0.771  1.00  0.00     0.041 C 
ATOM     30  C   UNL     1      -7.075   1.279   0.546  1.00  0.00     0.021 C 
ATOM     31  C   UNL     1      -6.846  -0.425  -1.373  1.00  0.00     0.021 C 
ATOM     32  C   UNL     1      -6.726   2.021  -1.789  1.00  0.00     0.021 C 
ENDBRANCH  27  29
ENDBRANCH  10  27
TORSDOF 7
