REMARK SMILES O=CCCCCCCCCCCCCCCC=CN=C=S
REMARK SMILES IDX 10 1 9 2 8 3 7 4 6 5 5 6 4 7 3 8 2 9 1 10 11 11 12 12 13 13
REMARK SMILES IDX 14 14 15 15 16 16 17 17 18 18 19 19 20 20 21 21
REMARK H PARENT
ROOT
ATOM      1  C   UNL     1      -0.456  -0.959   0.255  1.00  0.00     0.000 C 
ENDROOT
BRANCH   1   2
ATOM      2  C   UNL     1      -1.722  -0.621   1.051  1.00  0.00     0.000 C 
BRANCH   2   3
ATOM      3  C   UNL     1      -2.297   0.779   0.764  1.00  0.00     0.000 C 
BRANCH   3   4
ATOM      4  C   UNL     1      -2.604   1.046  -0.725  1.00  0.00     0.000 C 
BRANCH   4   5
ATOM      5  C   UNL     1      -3.585   0.041  -1.364  1.00  0.00     0.000 C 
BRANCH   5   6
ATOM      6  C   UNL     1      -4.937  -0.070  -0.640  1.00  0.00     0.000 C 
BRANCH   6   7
ATOM      7  C   UNL     1      -5.704   1.265  -0.615  1.00  0.00     0.008 C 
BRANCH   7   8
ATOM      8  C   UNL     1      -7.064   1.147   0.089  1.00  0.00     0.072 C 
BRANCH   8   9
ATOM      9  C   UNL     1      -6.978   0.898   1.575  1.00  0.00     0.224 C 
ATOM     10  O   UNL     1      -5.910   0.830   2.162  1.00  0.00    -0.303 OA
ENDBRANCH   8   9
ENDBRANCH   7   8
ENDBRANCH   6   7
ENDBRANCH   5   6
ENDBRANCH   4   5
ENDBRANCH   3   4
ENDBRANCH   2   3
ENDBRANCH   1   2
BRANCH   1  11
ATOM     11  C   UNL     1       0.703  -0.002   0.564  1.00  0.00     0.000 C 
BRANCH  11  12
ATOM     12  C   UNL     1       1.950  -0.290  -0.272  1.00  0.00     0.000 C 
BRANCH  12  13
ATOM     13  C   UNL     1       2.502  -1.712  -0.059  1.00  0.00     0.000 C 
BRANCH  13  14
ATOM     14  C   UNL     1       3.805  -1.974  -0.832  1.00  0.00     0.000 C 
BRANCH  14  15
ATOM     15  C   UNL     1       4.950  -1.006  -0.490  1.00  0.00     0.004 C 
BRANCH  15  16
ATOM     16  C   UNL     1       5.357  -1.040   0.993  1.00  0.00     0.029 C 
BRANCH  16  17
ATOM     17  C   UNL     1       6.449  -0.073   1.422  1.00  0.00    -0.006 C 
ATOM     18  C   UNL     1       7.053   0.896   0.696  1.00  0.00     0.118 C 
BRANCH  18  19
ATOM     19  N   UNL     1       6.739   1.171  -0.661  1.00  0.00    -0.203 NA
ATOM     20  C   UNL     1       7.130   2.229  -1.235  1.00  0.00     0.063 C 
ATOM     21  S   UNL     1       7.562   3.406  -1.878  1.00  0.00    -0.006 S 
ENDBRANCH  18  19
ENDBRANCH  16  17
ENDBRANCH  15  16
ENDBRANCH  14  15
ENDBRANCH  13  14
ENDBRANCH  12  13
ENDBRANCH  11  12
ENDBRANCH   1  11
TORSDOF 16
