REMARK SMILES CC1(C)[C@H]2CC[C@]1(C)[C@H](OC(=O)/C=C/c1ccc(O)cc1)C2
REMARK SMILES IDX 11 1 12 2 10 3 9 4 2 5 4 6 7 7 5 8 22 9 6 10 1 11 3 12 8 13
REMARK SMILES IDX 13 14 14 15 15 16 16 17 21 18 17 19 20 20 18 21 19 22
REMARK H PARENT 19 23
ROOT
ATOM      1  C   UNL     1       0.881   1.673   0.250  1.00  0.00     0.331 C 
ATOM      2  O   UNL     1       0.620   2.867   0.212  1.00  0.00    -0.247 OA
ENDROOT
BRANCH   1   3
ATOM      3  O   UNL     1      -0.108   0.749   0.403  1.00  0.00    -0.459 OA
BRANCH   3   4
ATOM      4  C   UNL     1      -1.460   1.044   0.521  1.00  0.00     0.183 C 
ATOM      5  C   UNL     1      -3.750   0.384   0.072  1.00  0.00    -0.024 C 
ATOM      6  C   UNL     1      -3.250  -0.362   1.331  1.00  0.00    -0.001 C 
ATOM      7  C   UNL     1      -2.330   0.352  -0.563  1.00  0.00     0.010 C 
ATOM      8  C   UNL     1      -2.618  -1.649   0.754  1.00  0.00     0.005 C 
ATOM      9  C   UNL     1      -2.068   0.508   1.830  1.00  0.00     0.050 C 
ATOM     10  C   UNL     1      -1.980  -1.161  -0.556  1.00  0.00     0.011 C 
ATOM     11  C   UNL     1      -4.340   1.800   0.361  1.00  0.00     0.012 C 
ATOM     12  C   UNL     1      -4.859  -0.362  -0.733  1.00  0.00     0.012 C 
ATOM     13  C   UNL     1      -2.161   0.987  -1.949  1.00  0.00     0.016 C 
ENDBRANCH   3   4
ENDBRANCH   1   3
BRANCH   1  14
ATOM     14  C   UNL     1       2.294   1.258   0.131  1.00  0.00     0.094 C 
ATOM     15  C   UNL     1       2.677  -0.032   0.154  1.00  0.00     0.015 C 
BRANCH  15  16
ATOM     16  C   UNL     1       4.092  -0.494   0.038  1.00  0.00    -0.025 A 
ATOM     17  C   UNL     1       4.347  -1.877   0.064  1.00  0.00     0.012 A 
ATOM     18  C   UNL     1       5.186   0.390  -0.095  1.00  0.00     0.012 A 
ATOM     19  C   UNL     1       5.653  -2.366  -0.040  1.00  0.00     0.047 A 
ATOM     20  C   UNL     1       6.490  -0.104  -0.197  1.00  0.00     0.047 A 
ATOM     21  C   UNL     1       6.729  -1.480  -0.170  1.00  0.00     0.115 A 
BRANCH  21  22
ATOM     22  O   UNL     1       7.994  -1.936  -0.271  1.00  0.00    -0.508 OA
ATOM     23  H   UNL     1       8.203  -2.881  -0.256  1.00  0.00     0.293 HD
ENDBRANCH  21  22
ENDBRANCH  15  16
ENDBRANCH   1  14
TORSDOF 5
