REMARK SMILES C[C][C][C][C][C][C][C][C][C][C][C][C][C][C][C][C][C]OC[C@H](COC(=O)CC[C]/C=C\[C]/C=C\[C]/C=C\[C]CC[C]CCCC)OC(=O)CCCCCCCCC[C]C/C=C\C/C=C\CCCCC
REMARK SMILES IDX 45 1 46 2 47 3 48 4 49 5 50 6 51 7 52 8 53 9 54 10 55 11
REMARK SMILES IDX 56 12 57 13 58 14 59 15 60 16 61 17 62 18 63 19 64 20 65 21
REMARK SMILES IDX 66 22 67 23 68 24 21 25 20 26 19 27 18 28 17 29 16 30 15 31
REMARK SMILES IDX 14 32 13 33 12 34 11 35 10 36 9 37 8 38 7 39 6 40 5 41 4 42
REMARK SMILES IDX 3 43 2 44 1 45 22 46 23 47 24 48 25 49 26 50 27 51 28 52
REMARK SMILES IDX 29 53 30 54 31 55 32 56 33 57 34 58 35 59 36 60 37 61 38 62
REMARK SMILES IDX 39 63 40 64 41 65 42 66 43 67 44 68
REMARK H PARENT
ROOT
ATOM      1  O   UNL     1      14.876  13.332   0.387  1.00  0.00    -0.456 OA
ENDROOT
BRANCH   1   2
ATOM      2  C   UNL     1      13.649  12.736   0.848  1.00  0.00     0.306 C 
ATOM      3  O   UNL     1      13.122  13.210   1.844  1.00  0.00    -0.252 OA
BRANCH   2   4
ATOM      4  C   UNL     1      12.750  11.691   0.000  1.00  0.00     0.123 C 
BRANCH   4   5
ATOM      5  C   UNL     1      12.000  10.392   0.000  1.00  0.00     0.012 C 
BRANCH   5   6
ATOM      6  C   UNL     1      11.250   9.093   0.000  1.00  0.00     0.001 C 
BRANCH   6   7
ATOM      7  C   UNL     1      10.500   7.794   0.000  1.00  0.00     0.000 C 
BRANCH   7   8
ATOM      8  C   UNL     1       9.750   6.495   0.000  1.00  0.00     0.000 C 
BRANCH   8   9
ATOM      9  C   UNL     1       9.000   5.196   0.000  1.00  0.00     0.000 C 
BRANCH   9  10
ATOM     10  C   UNL     1       8.923   3.978   0.957  1.00  0.00     0.000 C 
BRANCH  10  11
ATOM     11  C   UNL     1       7.824   2.989   0.381  1.00  0.00     0.001 C 
BRANCH  11  12
ATOM     12  C   UNL     1       7.514   1.750   1.245  1.00  0.00     0.008 C 
BRANCH  12  13
ATOM     13  C   UNL     1       6.623   0.658   0.569  1.00  0.00    -0.013 C 
BRANCH  13  14
ATOM     14  C   UNL     1       5.080   0.799   0.367  1.00  0.00     0.035 C 
BRANCH  14  15
ATOM     15  C   UNL     1       4.511  -0.596   0.058  1.00  0.00    -0.030 C 
ATOM     16  C   UNL     1       3.229  -1.007  -0.184  1.00  0.00    -0.027 C 
BRANCH  16  17
ATOM     17  C   UNL     1       1.938  -0.207  -0.271  1.00  0.00     0.054 C 
BRANCH  17  18
ATOM     18  C   UNL     1       0.993  -0.584   0.859  1.00  0.00    -0.027 C 
ATOM     19  C   UNL     1      -0.265  -1.121   0.855  1.00  0.00    -0.031 C 
BRANCH  19  20
ATOM     20  C   UNL     1      -1.211  -1.605  -0.263  1.00  0.00     0.027 C 
BRANCH  20  21
ATOM     21  C   UNL     1      -1.674  -3.058   0.077  1.00  0.00     0.004 C 
BRANCH  21  22
ATOM     22  C   UNL     1      -2.907  -3.770  -0.639  1.00  0.00     0.000 C 
BRANCH  22  23
ATOM     23  C   UNL     1      -3.000  -5.196   0.000  1.00  0.00    -0.003 C 
ATOM     24  C   UNL     1      -3.750  -6.495   0.000  1.00  0.00     0.004 C 
ENDBRANCH  22  23
ENDBRANCH  21  22
ENDBRANCH  20  21
ENDBRANCH  19  20
ENDBRANCH  17  18
ENDBRANCH  16  17
ENDBRANCH  14  15
ENDBRANCH  13  14
ENDBRANCH  12  13
ENDBRANCH  11  12
ENDBRANCH  10  11
ENDBRANCH   9  10
ENDBRANCH   8   9
ENDBRANCH   7   8
ENDBRANCH   6   7
ENDBRANCH   5   6
ENDBRANCH   4   5
ENDBRANCH   2   4
ENDBRANCH   1   2
BRANCH   1  25
ATOM     25  C   UNL     1      15.273  14.744   0.409  1.00  0.00     0.240 C 
BRANCH  25  26
ATOM     26  C   UNL     1      14.380  15.448  -0.607  1.00  0.00     0.210 C 
BRANCH  26  27
ATOM     27  O   UNL     1      13.152  15.789   0.000  1.00  0.00    -0.364 OA
BRANCH  27  28
ATOM     28  C   UNL     1      13.152  17.289   0.000  1.00  0.00     0.141 C 
BRANCH  28  29
ATOM     29  C   UNL     1      13.152  18.789   0.000  1.00  0.00     0.033 C 
BRANCH  29  30
ATOM     30  C   UNL     1      13.152  20.289   0.000  1.00  0.00     0.003 C 
BRANCH  30  31
ATOM     31  C   UNL     1      13.152  21.789   0.000  1.00  0.00     0.000 C 
BRANCH  31  32
ATOM     32  C   UNL     1      13.152  23.289   0.000  1.00  0.00     0.000 C 
BRANCH  32  33
ATOM     33  C   UNL     1      13.152  24.789   0.000  1.00  0.00     0.000 C 
BRANCH  33  34
ATOM     34  C   UNL     1      13.152  26.289   0.000  1.00  0.00     0.000 C 
BRANCH  34  35
ATOM     35  C   UNL     1      13.152  27.789   0.000  1.00  0.00     0.000 C 
BRANCH  35  36
ATOM     36  C   UNL     1      13.152  29.289   0.000  1.00  0.00     0.000 C 
BRANCH  36  37
ATOM     37  C   UNL     1      13.152  30.789   0.000  1.00  0.00    -0.000 C 
BRANCH  37  38
ATOM     38  C   UNL     1      13.152  32.289   0.000  1.00  0.00    -0.000 C 
BRANCH  38  39
ATOM     39  C   UNL     1      13.152  33.789   0.000  1.00  0.00    -0.000 C 
BRANCH  39  40
ATOM     40  C   UNL     1      13.152  35.289   0.000  1.00  0.00    -0.000 C 
BRANCH  40  41
ATOM     41  C   UNL     1      13.152  36.789   0.000  1.00  0.00    -0.000 C 
BRANCH  41  42
ATOM     42  C   UNL     1      13.152  38.289   0.000  1.00  0.00    -0.000 C 
BRANCH  42  43
ATOM     43  C   UNL     1      13.152  39.789   0.000  1.00  0.00    -0.001 C 
BRANCH  43  44
ATOM     44  C   UNL     1      13.152  41.289   0.000  1.00  0.00    -0.012 C 
ATOM     45  C   UNL     1      13.152  42.789   0.000  1.00  0.00     0.013 C 
ENDBRANCH  43  44
ENDBRANCH  42  43
ENDBRANCH  41  42
ENDBRANCH  40  41
ENDBRANCH  39  40
ENDBRANCH  38  39
ENDBRANCH  37  38
ENDBRANCH  36  37
ENDBRANCH  35  36
ENDBRANCH  34  35
ENDBRANCH  33  34
ENDBRANCH  32  33
ENDBRANCH  31  32
ENDBRANCH  30  31
ENDBRANCH  29  30
ENDBRANCH  28  29
ENDBRANCH  27  28
ENDBRANCH  26  27
ENDBRANCH  25  26
BRANCH  25  46
ATOM     46  C   UNL     1      16.840  15.204   0.093  1.00  0.00     0.280 C 
BRANCH  46  47
ATOM     47  O   UNL     1      17.147  16.645   0.111  1.00  0.00    -0.462 OA
BRANCH  47  48
ATOM     48  C   UNL     1      18.421  17.307   0.017  1.00  0.00     0.305 C 
ATOM     49  O   UNL     1      19.418  16.600   0.012  1.00  0.00    -0.252 OA
BRANCH  48  50
ATOM     50  C   UNL     1      18.689  18.926  -0.061  1.00  0.00     0.123 C 
BRANCH  50  51
ATOM     51  C   UNL     1      20.250  19.486   0.000  1.00  0.00     0.025 C 
BRANCH  51  52
ATOM     52  C   UNL     1      21.000  20.785   0.000  1.00  0.00     0.009 C 
BRANCH  52  53
ATOM     53  C   UNL     1      21.750  22.084   0.000  1.00  0.00    -0.022 C 
ATOM     54  C   UNL     1      23.250  22.084   0.000  1.00  0.00    -0.017 C 
BRANCH  54  55
ATOM     55  C   UNL     1      24.000  20.785   0.000  1.00  0.00     0.034 C 
BRANCH  55  56
ATOM     56  C   UNL     1      24.750  19.486   0.000  1.00  0.00    -0.017 C 
ATOM     57  C   UNL     1      26.250  19.486   0.000  1.00  0.00    -0.017 C 
BRANCH  57  58
ATOM     58  C   UNL     1      27.000  20.785   0.000  1.00  0.00     0.034 C 
BRANCH  58  59
ATOM     59  C   UNL     1      27.750  22.084   0.000  1.00  0.00    -0.017 C 
ATOM     60  C   UNL     1      29.250  22.084   0.000  1.00  0.00    -0.022 C 
BRANCH  60  61
ATOM     61  C   UNL     1      30.000  20.785   0.000  1.00  0.00     0.008 C 
BRANCH  61  62
ATOM     62  C   UNL     1      30.750  19.486   0.000  1.00  0.00     0.013 C 
BRANCH  62  63
ATOM     63  C   UNL     1      31.500  18.186   0.000  1.00  0.00     0.009 C 
BRANCH  63  64
ATOM     64  C   UNL     1      32.250  16.887   0.000  1.00  0.00    -0.017 C 
BRANCH  64  65
ATOM     65  C   UNL     1      33.000  15.588   0.000  1.00  0.00     0.008 C 
BRANCH  65  66
ATOM     66  C   UNL     1      33.019  13.866   0.014  1.00  0.00     0.000 C 
BRANCH  66  67
ATOM     67  C   UNL     1      34.500  12.990   0.000  1.00  0.00    -0.003 C 
ATOM     68  C   UNL     1      35.250  11.691   0.000  1.00  0.00     0.004 C 
ENDBRANCH  66  67
ENDBRANCH  65  66
ENDBRANCH  64  65
ENDBRANCH  63  64
ENDBRANCH  62  63
ENDBRANCH  61  62
ENDBRANCH  60  61
ENDBRANCH  58  59
ENDBRANCH  57  58
ENDBRANCH  55  56
ENDBRANCH  54  55
ENDBRANCH  52  53
ENDBRANCH  51  52
ENDBRANCH  50  51
ENDBRANCH  48  50
ENDBRANCH  47  48
ENDBRANCH  46  47
ENDBRANCH  25  46
ENDBRANCH   1  25
TORSDOF 57
