REMARK SMILES COc1ccc([C@]2(C(=O)O)Oc3cc4c(c(OC)c3C(=O)[C@H](C(=O)N3CCC[C@H]3NC(=O)C(C)C)[C@H]2c2ccccc2)OCO4)cc1
REMARK SMILES IDX 20 1 21 2 19 3 12 4 13 5 14 6 16 7 15 8 45 9 43 10 44 11
REMARK SMILES IDX 11 12 7 13 6 15 3 16 4 17 47 18 5 19 46 20 2 21 1 22 8 23
REMARK SMILES IDX 9 24 10 25 17 27 18 28 22 29 23 30 24 31 25 32 26 33 29 34
REMARK SMILES IDX 27 35 28 36 30 37 31 38 32 39 33 41 34 42 35 43 36 44 37 46
REMARK SMILES IDX 38 47 42 48 39 49 41 50 40 51
REMARK H PARENT 10 26 30 40
REMARK Flexibility Score:   96.900
ROOT
ATOM      1  C   UNL     1      -0.073   1.791   1.845  1.00  0.00     0.183 C 
ATOM      2  O   UNL     1       0.881   2.327   2.386  1.00  0.00    -0.293 OA
ENDROOT
BRANCH   1   3
ATOM      3  C   UNL     1      -1.406   2.400   2.113  1.00  0.00     0.107 A 
ATOM      4  C   UNL     1      -2.629   1.647   2.131  1.00  0.00     0.140 A 
ATOM      5  C   UNL     1      -3.828   2.275   2.533  1.00  0.00     0.098 A 
ATOM      6  C   UNL     1      -3.804   3.608   2.896  1.00  0.00     0.173 A 
ATOM      7  C   UNL     1      -1.457   3.787   2.493  1.00  0.00     0.179 A 
ATOM      8  C   UNL     1      -2.676   4.327   2.877  1.00  0.00     0.208 A 
ATOM      9  O   UNL     1      -4.814   4.374   3.316  1.00  0.00    -0.453 OA
ATOM     10  O   UNL     1      -2.939   5.574   3.280  1.00  0.00    -0.450 OA
ATOM     11  C   UNL     1      -4.298   5.640   3.576  1.00  0.00     0.468 C 
BRANCH   4  12
ATOM     12  O   UNL     1      -2.756   0.323   1.870  1.00  0.00    -0.469 OA
BRANCH  12  13
ATOM     13  C   UNL     1      -2.123  -0.634   1.090  1.00  0.00     0.238 CG0
ATOM     14  G   UNL     1      -1.000   0.021   0.190  1.00  0.00     0.000 G0
BRANCH  13  15
ATOM     15  C   UNL     1      -3.243  -1.271   0.212  1.00  0.00     0.008 A 
ATOM     16  C   UNL     1      -5.318  -2.425  -1.368  1.00  0.00     0.118 A 
ATOM     17  C   UNL     1      -4.041  -3.008  -1.331  1.00  0.00     0.047 A 
ATOM     18  C   UNL     1      -5.555  -1.274  -0.617  1.00  0.00     0.047 A 
ATOM     19  C   UNL     1      -3.026  -2.442  -0.555  1.00  0.00     0.012 A 
ATOM     20  C   UNL     1      -4.543  -0.706   0.161  1.00  0.00     0.012 A 
BRANCH  16  21
ATOM     21  O   UNL     1      -6.338  -2.938  -2.105  1.00  0.00    -0.497 OA
ATOM     22  C   UNL     1      -6.272  -4.068  -2.894  1.00  0.00     0.278 C 
ENDBRANCH  16  21
ENDBRANCH  13  15
BRANCH  13  23
ATOM     23  C   UNL     1      -1.578  -1.702   2.050  1.00  0.00     0.353 C 
ATOM     24  O   UNL     1      -1.048  -2.712   1.622  1.00  0.00    -0.247 OA
BRANCH  23  25
ATOM     25  O   UNL     1      -1.672  -1.564   3.394  1.00  0.00    -0.478 OA
ATOM     26  H   UNL     1      -2.069  -0.799   3.831  1.00  0.00     0.296 HD
ENDBRANCH  23  25
ENDBRANCH  13  23
ENDBRANCH  12  13
ENDBRANCH   4  12
BRANCH   7  27
ATOM     27  O   UNL     1      -0.374   4.601   2.504  1.00  0.00    -0.492 OA
ATOM     28  C   UNL     1       0.252   5.031   1.350  1.00  0.00     0.278 C 
ENDBRANCH   7  27
ENDBRANCH   1   3
BRANCH   1  29
ATOM     29  C   UNL     1       0.226   0.563   1.003  1.00  0.00     0.163 C 
BRANCH  29  30
ATOM     30  C   UNL     1       1.428   0.886   0.098  1.00  0.00     0.235 C 
ATOM     31  O   UNL     1       1.221   1.433  -0.978  1.00  0.00    -0.274 OA
BRANCH  30  32
ATOM     32  N   UNL     1       2.724   0.608   0.478  1.00  0.00    -0.322 N 
ATOM     33  C   UNL     1       3.121   0.224   1.829  1.00  0.00     0.122 C 
ATOM     34  C   UNL     1       3.890   0.961  -0.310  1.00  0.00     0.181 C 
ATOM     35  C   UNL     1       4.634   0.473   1.889  1.00  0.00     0.026 C 
ATOM     36  C   UNL     1       4.832   1.496   0.770  1.00  0.00     0.049 C 
BRANCH  34  37
ATOM     37  N   UNL     1       4.459  -0.246  -0.911  1.00  0.00    -0.336 N 
ATOM     38  C   UNL     1       4.735  -0.401  -2.235  1.00  0.00     0.224 C 
ATOM     39  O   UNL     1       4.459   0.482  -3.033  1.00  0.00    -0.275 OA
ATOM     40  H   UNL     1       4.689  -1.039  -0.300  1.00  0.00     0.165 HD
BRANCH  38  41
ATOM     41  C   UNL     1       5.422  -1.664  -2.727  1.00  0.00     0.072 C 
ATOM     42  C   UNL     1       4.598  -2.919  -2.404  1.00  0.00     0.018 C 
ATOM     43  C   UNL     1       6.827  -1.775  -2.113  1.00  0.00     0.018 C 
ENDBRANCH  38  41
ENDBRANCH  34  37
ENDBRANCH  30  32
ENDBRANCH  29  30
BRANCH  29  44
ATOM     44  C   UNL     1      -1.000   0.021   0.190  1.00  0.00     0.100 CG0
ATOM     45  G   UNL     1      -2.123  -0.634   1.090  1.00  0.00     0.000 G0
BRANCH  44  46
ATOM     46  C   UNL     1      -0.550  -0.847  -0.998  1.00  0.00    -0.039 A 
ATOM     47  C   UNL     1       0.332  -1.938  -0.864  1.00  0.00     0.004 A 
ATOM     48  C   UNL     1      -1.020  -0.519  -2.291  1.00  0.00     0.004 A 
ATOM     49  C   UNL     1       0.710  -2.686  -1.985  1.00  0.00     0.000 A 
ATOM     50  C   UNL     1      -0.640  -1.270  -3.403  1.00  0.00     0.000 A 
ATOM     51  C   UNL     1       0.222  -2.354  -3.251  1.00  0.00     0.000 A 
ENDBRANCH  44  46
ENDBRANCH  29  44
ENDBRANCH   1  29
TORSDOF 10
