REMARK SMILES C/C=C\C=C\[C@@H]1O[C@](O)([C@@H](CC)C(=O)NC/C=C/C=C(/C)[C@H](OC)[C@@H](C)[C@H](O)[C@@H](O)\C=C/C=C/C=C/C=C(\C)C(=O)c2c(O)n(C)ccc2=O)C[C@H](O)C1(C)C
REMARK SMILES IDX 25 1 26 2 22 3 20 4 19 5 21 6 18 7 17 8 16 9 15 10 13 11
REMARK SMILES IDX 14 12 10 14 8 15 6 16 7 17 54 18 52 19 51 20 55 21 56 22
REMARK SMILES IDX 5 23 4 24 3 25 2 26 1 27 9 28 53 30 11 32 12 33 23 34 24 35
REMARK SMILES IDX 27 36 28 37 29 39 30 40 31 42 32 43 33 44 34 45 35 46 36 47
REMARK SMILES IDX 37 48 38 49 39 50 40 51 41 52 42 53 43 54 49 55 45 56 48 57
REMARK SMILES IDX 50 58 47 59 46 60 44 61
REMARK H PARENT 15 13 9 29 53 31 28 38 30 41 44 62
ROOT
ATOM      1  C   UNL     1       2.410  -5.128  -0.256  1.00  0.00     0.051 C 
ATOM      2  C   UNL     1       3.109  -6.024  -1.296  1.00  0.00     0.013 C 
ENDROOT
BRANCH   1   3
ATOM      3  C   UNL     1       1.179  -5.870   0.344  1.00  0.00     0.149 C 
BRANCH   3   4
ATOM      4  C   UNL     1       0.484  -5.057   1.444  1.00  0.00    -0.044 C 
ATOM      5  C   UNL     1      -0.807  -4.641   1.382  1.00  0.00     0.001 C 
ATOM      6  C   UNL     1       1.289  -4.697   2.678  1.00  0.00     0.042 C 
BRANCH   5   7
ATOM      7  C   UNL     1      -1.749  -4.860   0.252  1.00  0.00    -0.002 C 
ATOM      8  C   UNL     1      -3.007  -4.401   0.331  1.00  0.00    -0.006 C 
BRANCH   8   9
ATOM      9  C   UNL     1      -3.986  -4.524  -0.814  1.00  0.00     0.143 C 
BRANCH   9  10
ATOM     10  N   UNL     1      -4.366  -3.193  -1.251  1.00  0.00    -0.352 N 
ATOM     11  C   UNL     1      -5.060  -2.334  -0.450  1.00  0.00     0.228 C 
ATOM     12  O   UNL     1      -5.484  -2.728   0.628  1.00  0.00    -0.275 OA
ATOM     13  H   UNL     1      -4.061  -2.888  -2.186  1.00  0.00     0.163 HD
BRANCH  11  14
ATOM     14  C   UNL     1      -5.269  -0.877  -0.872  1.00  0.00     0.137 C 
BRANCH  14  15
ATOM     15  C   UNL     1      -6.202  -0.070   0.111  1.00  0.00     0.180 C 
ATOM     16  C   UNL     1      -6.875   2.120   0.704  1.00  0.00     0.153 C 
ATOM     17  O   UNL     1      -6.093   1.322  -0.182  1.00  0.00    -0.341 OA
ATOM     18  C   UNL     1      -8.389   1.907   0.411  1.00  0.00     0.021 C 
ATOM     19  C   UNL     1      -8.652   0.385   0.667  1.00  0.00     0.128 C 
ATOM     20  C   UNL     1      -7.676  -0.507  -0.130  1.00  0.00     0.099 C 
ATOM     21  C   UNL     1      -9.259   2.734   1.385  1.00  0.00     0.017 C 
ATOM     22  C   UNL     1      -8.732   2.327  -1.041  1.00  0.00     0.017 C 
BRANCH  16  23
ATOM     23  C   UNL     1      -6.364   3.538   0.625  1.00  0.00     0.005 C 
ATOM     24  C   UNL     1      -5.088   3.780   0.964  1.00  0.00    -0.002 C 
BRANCH  24  25
ATOM     25  C   UNL     1      -4.510   5.142   0.947  1.00  0.00    -0.005 C 
ATOM     26  C   UNL     1      -3.241   5.400   1.315  1.00  0.00    -0.030 C 
ATOM     27  C   UNL     1      -2.277   4.342   1.776  1.00  0.00     0.035 C 
ENDBRANCH  24  25
ENDBRANCH  16  23
BRANCH  15  28
ATOM     28  O   UNL     1      -5.851  -0.335   1.456  1.00  0.00    -0.365 OA
ATOM     29  H   UNL     1      -5.120   0.271   1.726  1.00  0.00     0.214 HD
ENDBRANCH  15  28
BRANCH  19  30
ATOM     30  O   UNL     1      -9.993   0.027   0.428  1.00  0.00    -0.392 OA
ATOM     31  H   UNL     1     -10.127  -0.037  -0.553  1.00  0.00     0.210 HD
ENDBRANCH  19  30
ENDBRANCH  14  15
BRANCH  14  32
ATOM     32  C   UNL     1      -3.892  -0.198  -1.155  1.00  0.00     0.016 C 
ATOM     33  C   UNL     1      -2.899  -0.140   0.006  1.00  0.00     0.005 C 
ENDBRANCH  14  32
ENDBRANCH  11  14
ENDBRANCH   9  10
ENDBRANCH   8   9
ENDBRANCH   5   7
ENDBRANCH   3   4
BRANCH   3  34
ATOM     34  O   UNL     1       1.615  -7.093   0.915  1.00  0.00    -0.377 OA
ATOM     35  C   UNL     1       0.696  -8.128   0.644  1.00  0.00     0.195 C 
ENDBRANCH   3  34
ENDBRANCH   1   3
BRANCH   1  36
ATOM     36  C   UNL     1       1.992  -3.730  -0.823  1.00  0.00     0.152 C 
BRANCH  36  37
ATOM     37  O   UNL     1       1.030  -3.833  -1.845  1.00  0.00    -0.390 OA
ATOM     38  H   UNL     1       1.470  -4.214  -2.645  1.00  0.00     0.211 HD
ENDBRANCH  36  37
BRANCH  36  39
ATOM     39  C   UNL     1       3.124  -2.738  -1.199  1.00  0.00     0.166 C 
BRANCH  39  40
ATOM     40  O   UNL     1       4.009  -2.594  -0.113  1.00  0.00    -0.386 OA
ATOM     41  H   UNL     1       4.641  -3.358  -0.135  1.00  0.00     0.211 HD
ENDBRANCH  39  40
BRANCH  39  42
ATOM     42  C   UNL     1       3.884  -2.984  -2.497  1.00  0.00     0.007 C 
ATOM     43  C   UNL     1       4.776  -2.098  -2.990  1.00  0.00    -0.002 C 
BRANCH  43  44
ATOM     44  C   UNL     1       5.084  -0.815  -2.310  1.00  0.00    -0.000 C 
ATOM     45  C   UNL     1       5.916   0.100  -2.821  1.00  0.00    -0.000 C 
BRANCH  45  46
ATOM     46  C   UNL     1       6.157   1.344  -2.058  1.00  0.00     0.000 C 
ATOM     47  C   UNL     1       6.959   2.319  -2.501  1.00  0.00     0.000 C 
BRANCH  47  48
ATOM     48  C   UNL     1       7.181   3.517  -1.644  1.00  0.00     0.007 C 
ATOM     49  C   UNL     1       7.982   4.575  -1.925  1.00  0.00    -0.003 C 
ATOM     50  C   UNL     1       8.717   4.717  -3.243  1.00  0.00     0.048 C 
BRANCH  49  51
ATOM     51  C   UNL     1       8.149   5.703  -0.938  1.00  0.00     0.198 C 
ATOM     52  O   UNL     1       8.572   6.763  -1.381  1.00  0.00    -0.289 OA
BRANCH  51  53
ATOM     53  C   UNL     1       7.791   5.656   0.533  1.00  0.00     0.130 A 
ATOM     54  C   UNL     1       7.948   4.496   1.362  1.00  0.00     0.206 A 
ATOM     55  C   UNL     1       7.294   6.831   1.146  1.00  0.00     0.196 A 
ATOM     56  N   UNL     1       7.558   4.530   2.678  1.00  0.00    -0.322 N 
ATOM     57  C   UNL     1       6.933   6.830   2.491  1.00  0.00     0.071 A 
ATOM     58  O   UNL     1       7.154   7.863   0.506  1.00  0.00    -0.289 OA
ATOM     59  C   UNL     1       7.057   5.667   3.236  1.00  0.00     0.093 A 
ATOM     60  C   UNL     1       7.675   3.353   3.552  1.00  0.00     0.153 C 
BRANCH  54  61
ATOM     61  O   UNL     1       8.529   3.366   0.895  1.00  0.00    -0.494 OA
ATOM     62  H   UNL     1       9.015   3.303   0.064  1.00  0.00     0.295 HD
ENDBRANCH  54  61
ENDBRANCH  51  53
ENDBRANCH  49  51
ENDBRANCH  47  48
ENDBRANCH  45  46
ENDBRANCH  43  44
ENDBRANCH  39  42
ENDBRANCH  36  39
ENDBRANCH   1  36
TORSDOF 24
