REMARK SMILES CC1=CCC[C@@H](C)[C@]1(C)CC/C(C)=C/C(=O)N[C@@H]1CCCCN=C1O
REMARK SMILES IDX 15 1 16 2 17 3 14 5 12 6 13 7 11 8 10 9 8 10 2 11 3 12 4 13
REMARK SMILES IDX 6 14 5 15 1 16 9 17 7 18 18 19 24 21 23 22 25 23 22 25 21 26
REMARK SMILES IDX 20 27 19 28
REMARK H PARENT 17 4 25 24
REMARK Flexibility Score:   80.900
ROOT
ATOM      1  C   UNL     1       2.341  -1.334   0.305  1.00  0.00     0.244 C 
ATOM      2  O   UNL     1       2.786  -2.252   0.981  1.00  0.00    -0.270 OA
ATOM      3  N   UNL     1       3.188  -0.351  -0.124  1.00  0.00    -0.341 N 
ATOM      4  H   UNL     1       2.844   0.442  -0.665  1.00  0.00     0.164 HD
ENDROOT
BRANCH   1   5
ATOM      5  C   UNL     1       0.865  -1.370   0.033  1.00  0.00     0.070 C 
ATOM      6  C   UNL     1       0.066  -0.568  -0.730  1.00  0.00    -0.068 C 
ATOM      7  C   UNL     1       0.558   0.605  -1.540  1.00  0.00     0.039 C 
BRANCH   6   8
ATOM      8  C   UNL     1      -1.424  -0.876  -0.791  1.00  0.00     0.032 C 
BRANCH   8   9
ATOM      9  C   UNL     1      -2.252   0.282  -0.189  1.00  0.00     0.016 C 
BRANCH   9  10
ATOM     10  C   UNL     1      -3.812   0.114  -0.176  1.00  0.00    -0.009 C 
ATOM     11  C   UNL     1      -4.478   1.373   0.436  1.00  0.00    -0.071 C 
ATOM     12  C   UNL     1      -5.744   1.292   0.905  1.00  0.00    -0.027 C 
ATOM     13  C   UNL     1      -6.465  -0.028   0.935  1.00  0.00     0.027 C 
ATOM     14  C   UNL     1      -4.229  -1.198   0.653  1.00  0.00    -0.004 C 
ATOM     15  C   UNL     1      -5.483  -1.009   1.561  1.00  0.00     0.008 C 
ATOM     16  C   UNL     1      -3.760   2.704   0.530  1.00  0.00     0.040 C 
ATOM     17  C   UNL     1      -4.312   0.083  -1.651  1.00  0.00     0.016 C 
ATOM     18  C   UNL     1      -4.434  -2.451  -0.231  1.00  0.00     0.008 C 
ENDBRANCH   9  10
ENDBRANCH   8   9
ENDBRANCH   6   8
ENDBRANCH   1   5
BRANCH   3  19
ATOM     19  C   UNL     1       4.615  -0.324   0.185  1.00  0.00     0.168 CG0
ATOM     20  G   UNL     1       4.881   0.932   1.033  1.00  0.00     0.000 G0
BRANCH  19  21
ATOM     21  C   UNL     1       5.402  -0.317  -1.115  1.00  0.00     0.204 C 
ATOM     22  N   UNL     1       6.692  -0.289  -1.163  1.00  0.00    -0.254 NA
BRANCH  21  23
ATOM     23  O   UNL     1       4.722  -0.344  -2.283  1.00  0.00    -0.495 OA
ATOM     24  H   UNL     1       5.174  -0.343  -3.139  1.00  0.00     0.295 HD
ENDBRANCH  21  23
BRANCH  22  25
ATOM     25  C   UNL     1       7.611  -0.268  -0.048  1.00  0.00     0.146 C 
BRANCH  25  26
ATOM     26  C   UNL     1       7.460   0.990   0.810  1.00  0.00     0.024 C 
BRANCH  26  27
ATOM     27  C   UNL     1       6.242   0.950   1.732  1.00  0.00     0.005 C 
BRANCH  27  28
ATOM     28  C   UNL     1       4.881   0.932   1.033  1.00  0.00     0.035 CG0
ATOM     29  G   UNL     1       4.615  -0.324   0.185  1.00  0.00     0.000 G0
ENDBRANCH  27  28
ENDBRANCH  26  27
ENDBRANCH  25  26
ENDBRANCH  22  25
ENDBRANCH  19  21
ENDBRANCH   3  19
TORSDOF 6
