REMARK SMILES CC(C)=C[C@@H](C(=O)O)/C(C)=C/CC/C(C)=C/CC[C@]1(C)CCc2cc(O)cc(C)c2O1
REMARK SMILES IDX 13 1 12 2 11 3 9 4 10 5 5 6 4 7 2 8 1 9 3 10 6 11 7 12 8 13
REMARK SMILES IDX 14 15 16 16 15 17 17 18 18 19 19 20 21 21 31 22 22 23 30 24
REMARK SMILES IDX 23 25 28 26 24 27 27 28 25 29 20 30 29 31 26 32
REMARK H PARENT 8 14 26 33
ROOT
ATOM      1  C   UNL     1       1.670  -0.543  -0.649  1.00  0.00     0.034 C 
ENDROOT
BRANCH   1   2
ATOM      2  C   UNL     1       2.440  -1.054   0.575  1.00  0.00     0.032 C 
BRANCH   2   3
ATOM      3  C   UNL     1       3.826  -0.453   0.584  1.00  0.00    -0.027 C 
ATOM      4  C   UNL     1       4.989  -1.156   0.464  1.00  0.00    -0.059 C 
ATOM      5  C   UNL     1       4.924  -2.657   0.281  1.00  0.00     0.040 C 
BRANCH   4   6
ATOM      6  C   UNL     1       6.369  -0.462   0.447  1.00  0.00     0.147 C 
BRANCH   6   7
ATOM      7  C   UNL     1       6.253   1.062   0.378  1.00  0.00    -0.009 C 
ATOM      8  C   UNL     1       6.653   1.835  -0.658  1.00  0.00    -0.079 C 
ATOM      9  C   UNL     1       7.268   1.255  -1.908  1.00  0.00     0.039 C 
ATOM     10  C   UNL     1       6.461   3.326  -0.551  1.00  0.00     0.039 C 
ENDBRANCH   6   7
BRANCH   6  11
ATOM     11  C   UNL     1       7.218  -0.837   1.664  1.00  0.00     0.314 C 
ATOM     12  O   UNL     1       7.530   0.019   2.479  1.00  0.00    -0.251 OA
BRANCH  11  13
ATOM     13  O   UNL     1       7.686  -2.088   1.863  1.00  0.00    -0.481 OA
ATOM     14  H   UNL     1       7.604  -2.801   1.224  1.00  0.00     0.296 HD
ENDBRANCH  11  13
ENDBRANCH   6  11
ENDBRANCH   4   6
ENDBRANCH   2   3
ENDBRANCH   1   2
BRANCH   1  15
ATOM     15  C   UNL     1       0.276  -1.132  -0.710  1.00  0.00    -0.077 C 
ATOM     16  C   UNL     1      -0.796  -0.310  -0.597  1.00  0.00    -0.028 C 
ATOM     17  C   UNL     1       0.129  -2.626  -0.893  1.00  0.00     0.039 C 
BRANCH  16  18
ATOM     18  C   UNL     1      -2.240  -0.767  -0.644  1.00  0.00     0.031 C 
BRANCH  18  19
ATOM     19  C   UNL     1      -2.988  -0.637   0.699  1.00  0.00     0.052 C 
BRANCH  19  20
ATOM     20  C   UNL     1      -3.513   0.774   1.137  1.00  0.00     0.107 C 
ATOM     21  C   UNL     1      -4.351   0.648   2.434  1.00  0.00     0.053 C 
ATOM     22  O   UNL     1      -4.340   1.298   0.152  1.00  0.00    -0.487 OA
ATOM     23  C   UNL     1      -5.604  -0.223   2.225  1.00  0.00     0.043 C 
ATOM     24  C   UNL     1      -5.604   0.851  -0.077  1.00  0.00     0.126 A 
ATOM     25  C   UNL     1      -6.270   0.077   0.901  1.00  0.00    -0.002 A 
ATOM     26  C   UNL     1      -6.237   1.142  -1.297  1.00  0.00    -0.005 A 
ATOM     27  C   UNL     1      -7.544  -0.436   0.628  1.00  0.00     0.053 A 
ATOM     28  C   UNL     1      -7.522   0.636  -1.547  1.00  0.00     0.053 A 
ATOM     29  C   UNL     1      -8.171  -0.157  -0.595  1.00  0.00     0.116 A 
ATOM     30  C   UNL     1      -2.381   1.780   1.399  1.00  0.00     0.056 C 
ATOM     31  C   UNL     1      -5.533   1.973  -2.333  1.00  0.00     0.048 C 
BRANCH  29  32
ATOM     32  O   UNL     1      -9.399  -0.644  -0.865  1.00  0.00    -0.508 OA
ATOM     33  H   UNL     1      -9.881  -1.201  -0.236  1.00  0.00     0.293 HD
ENDBRANCH  29  32
ENDBRANCH  19  20
ENDBRANCH  18  19
ENDBRANCH  16  18
ENDBRANCH   1  15
TORSDOF 11
