REMARK SMILES CC[C@@H]1CCC[C@@H](O)[C@@H](C)C(=O)O[C@H](C)[C@@H](C)C/C=C(C)\C(OC)=C/C(=O)N(C)[C@@H]([C@@H](C)CC)C(=O)N(C)[C@@H](C(C)C)C(=O)N(C)[C@@H](COC)C(=O)N2CCC[C@H]2C(=O)N(C)[C@@H](C(C)C)C(=O)N2CCC[C@H]2C(=O)O1
REMARK SMILES IDX 3 1 4 2 5 3 6 4 7 5 9 6 10 7 11 8 12 9 13 10 14 11 15 12
REMARK SMILES IDX 16 13 17 14 18 15 19 16 20 17 21 18 22 19 25 20 26 21 27 22
REMARK SMILES IDX 28 23 29 24 30 25 35 26 36 27 37 28 38 29 39 30 43 31 44 32
REMARK SMILES IDX 45 33 46 34 47 35 51 36 52 37 53 38 54 39 55 40 56 41 57 42
REMARK SMILES IDX 58 43 59 44 60 45 61 46 62 47 66 48 67 49 68 50 69 51 70 52
REMARK SMILES IDX 71 53 72 54 73 55 74 56 75 57 2 58 1 59 8 60 63 62 64 63
REMARK SMILES IDX 65 64 48 65 49 66 50 67 23 68 24 69 40 70 41 71 42 72 31 73
REMARK SMILES IDX 32 74 33 75 34 76
REMARK H PARENT 8 61
ROOT
ATOM      1  C   UNL     1       6.613   1.143  -0.291  1.00  0.00     0.176 C 
ATOM      2  C   UNL     1       5.276   1.632  -0.911  1.00  0.00     0.045 C 
ATOM      3  C   UNL     1       5.461   2.834  -1.862  1.00  0.00     0.006 C 
ATOM      4  C   UNL     1       4.172   3.254  -2.594  1.00  0.00     0.033 C 
ATOM      5  C   UNL     1       3.137   4.000  -1.709  1.00  0.00     0.128 C 
ATOM      6  C   UNL     1       1.914   4.489  -2.546  1.00  0.00     0.125 C 
ATOM      7  C   UNL     1       1.042   3.336  -3.060  1.00  0.00     0.023 C 
ATOM      8  C   UNL     1       1.060   5.465  -1.765  1.00  0.00     0.311 C 
ATOM      9  O   UNL     1       0.973   6.616  -2.172  1.00  0.00    -0.252 OA
ATOM     10  O   UNL     1       0.403   5.080  -0.630  1.00  0.00    -0.462 OA
ATOM     11  C   UNL     1      -0.223   5.957   0.246  1.00  0.00     0.176 C 
ATOM     12  C   UNL     1       0.478   5.887   1.599  1.00  0.00     0.053 C 
ATOM     13  C   UNL     1      -1.783   5.771   0.255  1.00  0.00     0.030 C 
ATOM     14  C   UNL     1      -2.303   6.071  -1.168  1.00  0.00     0.012 C 
ATOM     15  C   UNL     1      -2.381   4.406   0.702  1.00  0.00     0.035 C 
ATOM     16  C   UNL     1      -2.222   4.068   2.163  1.00  0.00    -0.019 C 
ATOM     17  C   UNL     1      -3.200   3.919   3.102  1.00  0.00    -0.013 C 
ATOM     18  C   UNL     1      -2.751   3.743   4.540  1.00  0.00     0.048 C 
ATOM     19  C   UNL     1      -4.699   3.981   2.913  1.00  0.00     0.126 C 
ATOM     20  C   UNL     1      -5.464   3.452   1.918  1.00  0.00     0.118 C 
ATOM     21  C   UNL     1      -5.083   2.558   0.770  1.00  0.00     0.250 C 
ATOM     22  O   UNL     1      -3.971   2.057   0.788  1.00  0.00    -0.270 OA
ATOM     23  N   UNL     1      -5.972   2.203  -0.236  1.00  0.00    -0.330 N 
ATOM     24  C   UNL     1      -7.324   2.758  -0.343  1.00  0.00     0.148 C 
ATOM     25  C   UNL     1      -5.622   1.178  -1.245  1.00  0.00     0.177 C 
ATOM     26  C   UNL     1      -5.355  -0.158  -0.483  1.00  0.00     0.246 C 
ATOM     27  O   UNL     1      -6.247  -0.389   0.327  1.00  0.00    -0.272 OA
ATOM     28  N   UNL     1      -4.332  -1.097  -0.599  1.00  0.00    -0.332 N 
ATOM     29  C   UNL     1      -3.287  -1.000  -1.596  1.00  0.00     0.147 C 
ATOM     30  C   UNL     1      -4.416  -2.349   0.201  1.00  0.00     0.176 C 
ATOM     31  C   UNL     1      -3.206  -2.776   1.079  1.00  0.00     0.246 C 
ATOM     32  O   UNL     1      -3.286  -3.919   1.500  1.00  0.00    -0.272 OA
ATOM     33  N   UNL     1      -2.087  -2.040   1.451  1.00  0.00    -0.330 N 
ATOM     34  C   UNL     1      -1.882  -0.627   1.170  1.00  0.00     0.147 C 
ATOM     35  C   UNL     1      -1.038  -2.667   2.287  1.00  0.00     0.200 C 
ATOM     36  C   UNL     1      -0.431  -3.932   1.629  1.00  0.00     0.248 C 
ATOM     37  O   UNL     1      -0.729  -4.184   0.467  1.00  0.00    -0.272 OA
ATOM     38  N   UNL     1       0.539  -4.683   2.252  1.00  0.00    -0.329 N 
ATOM     39  C   UNL     1       0.025  -5.540   3.317  1.00  0.00     0.120 C 
ATOM     40  C   UNL     1      -0.416  -6.810   2.564  1.00  0.00     0.024 C 
ATOM     41  C   UNL     1       0.502  -6.850   1.323  1.00  0.00     0.037 C 
ATOM     42  C   UNL     1       1.415  -5.651   1.566  1.00  0.00     0.174 C 
ATOM     43  C   UNL     1       2.422  -5.290   0.443  1.00  0.00     0.245 C 
ATOM     44  O   UNL     1       3.068  -6.252   0.044  1.00  0.00    -0.272 OA
ATOM     45  N   UNL     1       2.750  -4.034  -0.047  1.00  0.00    -0.332 N 
ATOM     46  C   UNL     1       1.997  -2.840   0.323  1.00  0.00     0.147 C 
ATOM     47  C   UNL     1       3.906  -3.864  -0.969  1.00  0.00     0.176 C 
ATOM     48  C   UNL     1       4.979  -2.975  -0.294  1.00  0.00     0.246 C 
ATOM     49  O   UNL     1       4.609  -2.005   0.347  1.00  0.00    -0.272 OA
ATOM     50  N   UNL     1       6.323  -3.252  -0.309  1.00  0.00    -0.327 N 
ATOM     51  C   UNL     1       6.965  -4.318  -1.055  1.00  0.00     0.120 C 
ATOM     52  C   UNL     1       8.454  -3.984  -0.944  1.00  0.00     0.024 C 
ATOM     53  C   UNL     1       8.534  -3.418   0.453  1.00  0.00     0.039 C 
ATOM     54  C   UNL     1       7.289  -2.518   0.502  1.00  0.00     0.195 C 
ATOM     55  C   UNL     1       7.514  -1.106  -0.014  1.00  0.00     0.329 C 
ATOM     56  O   UNL     1       8.625  -0.765  -0.396  1.00  0.00    -0.250 OA
ATOM     57  O   UNL     1       6.491  -0.204   0.021  1.00  0.00    -0.461 OA
ENDROOT
BRANCH   1  58
ATOM     58  C   UNL     1       7.041   1.875   1.007  1.00  0.00     0.042 C 
ATOM     59  C   UNL     1       7.291   3.373   0.887  1.00  0.00     0.008 C 
ENDBRANCH   1  58
BRANCH   5  60
ATOM     60  O   UNL     1       3.763   5.099  -1.087  1.00  0.00    -0.392 OA
ATOM     61  H   UNL     1       4.059   5.724  -1.800  1.00  0.00     0.210 HD
ENDBRANCH   5  60
BRANCH  47  62
ATOM     62  C   UNL     1       3.412  -3.352  -2.359  1.00  0.00     0.015 C 
ATOM     63  C   UNL     1       4.555  -3.242  -3.378  1.00  0.00     0.010 C 
ATOM     64  C   UNL     1       2.351  -4.316  -2.928  1.00  0.00     0.010 C 
ENDBRANCH  47  62
BRANCH  35  65
ATOM     65  C   UNL     1      -1.513  -2.737   3.761  1.00  0.00     0.195 C 
BRANCH  65  66
ATOM     66  O   UNL     1      -2.618  -3.598   3.927  1.00  0.00    -0.382 OA
ATOM     67  C   UNL     1      -3.092  -3.504   5.251  1.00  0.00     0.195 C 
ENDBRANCH  65  66
ENDBRANCH  35  65
BRANCH  19  68
ATOM     68  O   UNL     1      -5.403   4.568   3.915  1.00  0.00    -0.496 OA
ATOM     69  C   UNL     1      -5.543   5.933   4.029  1.00  0.00     0.278 C 
ENDBRANCH  19  68
BRANCH  30  70
ATOM     70  C   UNL     1      -4.966  -3.506  -0.728  1.00  0.00     0.015 C 
ATOM     71  C   UNL     1      -3.913  -4.185  -1.628  1.00  0.00     0.010 C 
ATOM     72  C   UNL     1      -5.723  -4.599   0.059  1.00  0.00     0.010 C 
ENDBRANCH  30  70
BRANCH  25  73
ATOM     73  C   UNL     1      -4.927   1.890  -2.483  1.00  0.00     0.018 C 
ATOM     74  C   UNL     1      -3.637   2.669  -2.184  1.00  0.00     0.010 C 
BRANCH  73  75
ATOM     75  C   UNL     1      -4.846   1.034  -3.773  1.00  0.00     0.002 C 
ATOM     76  C   UNL     1      -4.653   1.859  -5.050  1.00  0.00     0.004 C 
ENDBRANCH  73  75
ENDBRANCH  25  73
TORSDOF 9
