REMARK SMILES O=C(Nc1ccc(Br)cc1)[C@@H]1[C@@H]2C=C[C@@]3(O2)[C@H]1C(=O)N(CCCN1CCN(Cc2ccccc2)CC1)[C@@H]3C(=O)NC1CCCCC1
REMARK SMILES IDX 21 1 20 2 11 3 12 4 17 5 13 6 16 7 15 8 18 9 14 10 37 11
REMARK SMILES IDX 19 12 2 13 1 14 3 15 4 17 5 18 10 19 6 20 9 21 7 22 8 23
REMARK SMILES IDX 38 24 39 25 40 26 41 28 42 29 46 30 43 31 45 32 44 33 22 34
REMARK SMILES IDX 23 35 24 36 25 37 36 38 26 39 35 40 27 41 28 42 29 43 30 44
REMARK SMILES IDX 34 45 31 46 33 47 32 48
REMARK H PARENT 3 16 40 27
ROOT
ATOM      1  C   UNL     1      -5.881  -1.284   0.702  1.00  0.00     0.122 C 
ENDROOT
BRANCH   1   2
ATOM      2  N   UNL     1      -4.465  -1.049   0.414  1.00  0.00    -0.327 N 
ATOM      3  C   UNL     1      -1.441   0.814   0.987  1.00  0.00     0.127 C 
ATOM      4  C   UNL     1      -0.580  -0.454   1.091  1.00  0.00     0.155 C 
ATOM      5  C   UNL     1      -2.541   0.305   0.042  1.00  0.00     0.133 C 
ATOM      6  C   UNL     1       0.027  -0.851  -0.231  1.00  0.00     0.004 C 
ATOM      7  O   UNL     1      -1.588  -1.417   1.229  1.00  0.00    -0.359 OA
ATOM      8  C   UNL     1      -2.176  -1.180  -0.038  1.00  0.00     0.129 C 
ATOM      9  C   UNL     1      -3.914   0.179   0.609  1.00  0.00     0.230 C 
ATOM     10  C   UNL     1      -1.018  -1.367  -0.948  1.00  0.00     0.010 C 
ATOM     11  C   UNL     1      -3.510  -1.925  -0.257  1.00  0.00     0.211 C 
ATOM     12  O   UNL     1      -4.542   1.127   1.060  1.00  0.00    -0.274 OA
BRANCH   3  13
ATOM     13  C   UNL     1      -0.736   2.081   0.538  1.00  0.00     0.231 C 
ATOM     14  O   UNL     1       0.462   2.046   0.318  1.00  0.00    -0.274 OA
ATOM     15  N   UNL     1      -1.455   3.239   0.420  1.00  0.00    -0.326 N 
ATOM     16  H   UNL     1      -2.464   3.167   0.624  1.00  0.00     0.169 HD
BRANCH  15  17
ATOM     17  C   UNL     1      -0.971   4.548   0.067  1.00  0.00     0.041 A 
ATOM     18  C   UNL     1       0.388   4.855  -0.200  1.00  0.00     0.027 A 
ATOM     19  C   UNL     1      -1.908   5.598  -0.004  1.00  0.00     0.027 A 
ATOM     20  C   UNL     1       0.773   6.162  -0.519  1.00  0.00     0.018 A 
ATOM     21  C   UNL     1      -1.516   6.900  -0.324  1.00  0.00     0.018 A 
ATOM     22  C   UNL     1      -0.175   7.183  -0.581  1.00  0.00     0.018 A 
ATOM     23  Br  UNL     1       0.363   8.965  -1.012  1.00  0.00    -0.051 Br
ENDBRANCH  15  17
ENDBRANCH   3  13
BRANCH  11  24
ATOM     24  C   UNL     1      -3.428  -3.317   0.341  1.00  0.00     0.246 C 
ATOM     25  O   UNL     1      -3.331  -3.439   1.555  1.00  0.00    -0.273 OA
ATOM     26  N   UNL     1      -3.419  -4.415  -0.467  1.00  0.00    -0.351 N 
ATOM     27  H   UNL     1      -3.457  -4.283  -1.489  1.00  0.00     0.163 HD
BRANCH  26  28
ATOM     28  C   UNL     1      -3.309  -5.776   0.044  1.00  0.00     0.082 C 
ATOM     29  C   UNL     1      -1.975  -6.401  -0.403  1.00  0.00     0.025 C 
ATOM     30  C   UNL     1      -4.483  -6.626  -0.472  1.00  0.00     0.025 C 
ATOM     31  C   UNL     1      -1.862  -7.841   0.120  1.00  0.00     0.002 C 
ATOM     32  C   UNL     1      -4.371  -8.067   0.043  1.00  0.00     0.002 C 
ATOM     33  C   UNL     1      -3.036  -8.688  -0.392  1.00  0.00     0.000 C 
ENDBRANCH  26  28
ENDBRANCH  11  24
ENDBRANCH   1   2
BRANCH   1  34
ATOM     34  C   UNL     1      -6.502  -2.581   0.144  1.00  0.00     0.037 C 
BRANCH  34  35
ATOM     35  C   UNL     1      -8.009  -2.590   0.491  1.00  0.00     0.086 C 
BRANCH  35  36
ATOM     36  N   UNL     1      -8.772  -3.648  -0.206  1.00  0.00    -0.301 NA
ATOM     37  C   UNL     1     -10.217  -3.373  -0.080  1.00  0.00     0.100 C 
ATOM     38  C   UNL     1      -8.501  -4.999   0.319  1.00  0.00     0.100 C 
ATOM     39  C   UNL     1     -11.013  -4.388  -0.897  1.00  0.00     0.100 C 
ATOM     40  C   UNL     1      -9.292  -6.039  -0.495  1.00  0.00     0.100 C 
ATOM     41  N   UNL     1     -10.747  -5.764  -0.427  1.00  0.00    -0.297 NA
BRANCH  41  42
ATOM     42  C   UNL     1     -11.535  -6.735  -1.233  1.00  0.00     0.120 C 
BRANCH  42  43
ATOM     43  C   UNL     1     -12.195  -7.782  -0.362  1.00  0.00    -0.034 A 
ATOM     44  C   UNL     1     -13.600  -7.816  -0.253  1.00  0.00     0.005 A 
ATOM     45  C   UNL     1     -11.439  -8.748   0.325  1.00  0.00     0.005 A 
ATOM     46  C   UNL     1     -14.229  -8.788   0.530  1.00  0.00     0.000 A 
ATOM     47  C   UNL     1     -12.074  -9.722   1.104  1.00  0.00     0.000 A 
ATOM     48  C   UNL     1     -13.467  -9.741   1.207  1.00  0.00     0.000 A 
ENDBRANCH  42  43
ENDBRANCH  41  42
ENDBRANCH  35  36
ENDBRANCH  34  35
ENDBRANCH   1  34
TORSDOF 10
