REMARK SMILES CC[C][C]CCCCCCC/C=C/C[C@@H](O)C(O)[C@H](CO[C@H]1O[C@@H](CO[C@@H]2O[C@@H](CO)[C@H](O)[C@@H](O)[C@@H]2O)[C@@H](O)[C@@H](O)[C@@H]1O)NC(=O)C(O)CCCCCCCCCCCCCCC[C]CCCCCC
REMARK SMILES IDX 50 1 49 2 47 3 45 4 44 5 46 6 19 8 17 9 15 10 14 11 13 12
REMARK SMILES IDX 12 13 11 14 10 15 9 16 8 17 7 18 6 19 5 20 4 21 3 22 2 23
REMARK SMILES IDX 1 24 16 25 18 27 20 29 21 30 22 31 23 32 42 33 24 34 40 35
REMARK SMILES IDX 38 36 43 37 25 39 26 40 27 41 28 42 36 43 29 44 34 45 32 46
REMARK SMILES IDX 37 47 30 49 31 50 35 52 33 54 41 56 39 58 48 60 51 62 52 63
REMARK SMILES IDX 53 64 54 65 55 66 56 67 57 68 58 69 59 70 60 71 61 72 62 73
REMARK SMILES IDX 63 74 64 75 65 76 66 77 67 78 68 79 69 80 70 81
REMARK H PARENT 44 7 16 26 18 28 43 38 37 48 31 51 35 53 33 55 41 57 39 59
REMARK H PARENT 48 61
ROOT
ATOM      1  C   UNL     1       6.568  -0.336   0.000  1.00  0.00     0.003 C 
ENDROOT
BRANCH   1   2
ATOM      2  C   UNL     1       6.307  -1.813  -0.000  1.00  0.00     0.042 C 
BRANCH   2   3
ATOM      3  C   UNL     1       6.047  -3.291   0.000  1.00  0.00     0.203 C 
BRANCH   3   4
ATOM      4  C   UNL     1       4.569  -3.030   0.000  1.00  0.00     0.249 C 
ATOM      5  N   UNL     1       3.605  -4.179   0.000  1.00  0.00    -0.346 N 
ATOM      6  O   UNL     1       4.371  -2.351   1.071  1.00  0.00    -0.272 OA
ATOM      7  H   UNL     1       3.916  -4.855  -0.699  1.00  0.00     0.164 HD
BRANCH   5   8
ATOM      8  C   UNL     1       2.128  -3.919   0.000  1.00  0.00     0.139 C 
BRANCH   8   9
ATOM      9  C   UNL     1       0.651  -3.658   0.000  1.00  0.00     0.168 C 
BRANCH   9  10
ATOM     10  C   UNL     1       0.390  -5.135   0.000  1.00  0.00     0.149 C 
BRANCH  10  11
ATOM     11  C   UNL     1       1.308  -6.283   0.871  1.00  0.00     0.061 C 
BRANCH  11  12
ATOM     12  C   UNL     1       2.933  -6.552   0.944  1.00  0.00    -0.029 C 
ATOM     13  C   UNL     1       3.858  -7.066  -0.000  1.00  0.00    -0.031 C 
BRANCH  13  14
ATOM     14  C   UNL     1       5.335  -7.326  -0.000  1.00  0.00     0.027 C 
BRANCH  14  15
ATOM     15  C   UNL     1       6.812  -7.587   0.000  1.00  0.00     0.004 C 
BRANCH  15  16
ATOM     16  C   UNL     1       8.290  -7.847   0.000  1.00  0.00     0.000 C 
BRANCH  16  17
ATOM     17  C   UNL     1       9.767  -8.108  -0.000  1.00  0.00     0.000 C 
BRANCH  17  18
ATOM     18  C   UNL     1      11.244  -8.368   0.000  1.00  0.00     0.000 C 
BRANCH  18  19
ATOM     19  C   UNL     1      12.652  -9.260  -0.471  1.00  0.00     0.001 C 
BRANCH  19  20
ATOM     20  C   UNL     1      14.198  -8.889   0.000  1.00  0.00     0.009 C 
BRANCH  20  21
ATOM     21  C   UNL     1      15.676  -9.150  -0.000  1.00  0.00    -0.009 C 
BRANCH  21  22
ATOM     22  C   UNL     1      17.153  -9.410  -0.000  1.00  0.00    -0.010 C 
BRANCH  22  23
ATOM     23  C   UNL     1      18.630  -9.671   0.000  1.00  0.00     0.005 C 
ATOM     24  C   UNL     1      20.107  -9.931   0.000  1.00  0.00     0.004 C 
ENDBRANCH  22  23
ENDBRANCH  21  22
ENDBRANCH  20  21
ENDBRANCH  19  20
ENDBRANCH  18  19
ENDBRANCH  17  18
ENDBRANCH  16  17
ENDBRANCH  15  16
ENDBRANCH  14  15
ENDBRANCH  13  14
ENDBRANCH  11  12
ENDBRANCH  10  11
BRANCH  10  25
ATOM     25  O   UNL     1      -0.957  -5.319   0.354  1.00  0.00    -0.390 OA
ATOM     26  H   UNL     1      -1.304  -6.085  -0.174  1.00  0.00     0.211 HD
ENDBRANCH  10  25
ENDBRANCH   9  10
BRANCH   9  27
ATOM     27  O   UNL     1       0.911  -2.181   0.000  1.00  0.00    -0.388 OA
ATOM     28  H   UNL     1       0.304  -1.850   0.742  1.00  0.00     0.211 HD
ENDBRANCH   9  27
ENDBRANCH   8   9
BRANCH   8  29
ATOM     29  C   UNL     1       2.389  -2.441   0.000  1.00  0.00     0.191 C 
BRANCH  29  30
ATOM     30  O   UNL     1       2.649  -0.964   0.000  1.00  0.00    -0.348 OA
BRANCH  30  31
ATOM     31  C   UNL     1       1.819   0.026  -0.722  1.00  0.00     0.282 C 
ATOM     32  O   UNL     1       0.716  -0.517  -1.511  1.00  0.00    -0.341 OA
ATOM     33  C   UNL     1       1.464   1.111   0.323  1.00  0.00     0.202 C 
ATOM     34  C   UNL     1      -0.638  -0.009  -1.398  1.00  0.00     0.178 C 
ATOM     35  C   UNL     1       0.247   1.926  -0.086  1.00  0.00     0.179 C 
ATOM     36  C   UNL     1      -0.915   0.948  -0.215  1.00  0.00     0.177 C 
BRANCH  33  37
ATOM     37  O   UNL     1       2.564   1.959   0.530  1.00  0.00    -0.385 OA
ATOM     38  H   UNL     1       3.208   1.468   1.096  1.00  0.00     0.211 HD
ENDBRANCH  33  37
BRANCH  34  39
ATOM     39  C   UNL     1      -1.662  -1.203  -1.385  1.00  0.00     0.198 C 
BRANCH  39  40
ATOM     40  O   UNL     1      -2.990  -0.791  -1.096  1.00  0.00    -0.347 OA
BRANCH  40  41
ATOM     41  C   UNL     1      -3.947  -1.865  -0.975  1.00  0.00     0.282 C 
ATOM     42  O   UNL     1      -5.096  -1.313  -0.334  1.00  0.00    -0.341 OA
ATOM     43  C   UNL     1      -3.459  -3.130  -0.185  1.00  0.00     0.202 C 
ATOM     44  C   UNL     1      -6.143  -2.235   0.011  1.00  0.00     0.178 C 
ATOM     45  C   UNL     1      -4.591  -4.189  -0.016  1.00  0.00     0.179 C 
ATOM     46  C   UNL     1      -5.931  -3.668  -0.543  1.00  0.00     0.177 C 
BRANCH  43  47
ATOM     47  O   UNL     1      -3.012  -2.721   1.083  1.00  0.00    -0.385 OA
ATOM     48  H   UNL     1      -2.494  -3.479   1.464  1.00  0.00     0.211 HD
ENDBRANCH  43  47
BRANCH  44  49
ATOM     49  C   UNL     1      -7.473  -1.629  -0.459  1.00  0.00     0.191 C 
BRANCH  49  50
ATOM     50  O   UNL     1      -8.557  -2.404  -0.019  1.00  0.00    -0.394 OA
ATOM     51  H   UNL     1      -9.373  -1.948  -0.356  1.00  0.00     0.210 HD
ENDBRANCH  49  50
ENDBRANCH  44  49
BRANCH  45  52
ATOM     52  O   UNL     1      -4.252  -5.386  -0.672  1.00  0.00    -0.387 OA
ATOM     53  H   UNL     1      -4.738  -6.119  -0.211  1.00  0.00     0.211 HD
ENDBRANCH  45  52
BRANCH  46  54
ATOM     54  O   UNL     1      -6.953  -4.540  -0.127  1.00  0.00    -0.387 OA
ATOM     55  H   UNL     1      -7.532  -4.723  -0.913  1.00  0.00     0.211 HD
ENDBRANCH  46  54
ENDBRANCH  40  41
ENDBRANCH  39  40
ENDBRANCH  34  39
BRANCH  35  56
ATOM     56  O   UNL     1      -0.040   2.870   0.917  1.00  0.00    -0.387 OA
ATOM     57  H   UNL     1      -0.167   3.748   0.473  1.00  0.00     0.211 HD
ENDBRANCH  35  56
BRANCH  36  58
ATOM     58  O   UNL     1      -1.106   0.229   0.981  1.00  0.00    -0.387 OA
ATOM     59  H   UNL     1      -1.633   0.809   1.589  1.00  0.00     0.211 HD
ENDBRANCH  36  58
ENDBRANCH  30  31
ENDBRANCH  29  30
ENDBRANCH   8  29
ENDBRANCH   5   8
ENDBRANCH   3   4
BRANCH   3  60
ATOM     60  O   UNL     1       7.524  -3.551   0.000  1.00  0.00    -0.383 OA
ATOM     61  H   UNL     1       7.692  -4.085  -0.819  1.00  0.00     0.211 HD
ENDBRANCH   3  60
ENDBRANCH   2   3
ENDBRANCH   1   2
BRANCH   1  62
ATOM     62  C   UNL     1       6.828   1.141  -0.000  1.00  0.00     0.000 C 
BRANCH  62  63
ATOM     63  C   UNL     1       7.089   2.618   0.000  1.00  0.00     0.000 C 
BRANCH  63  64
ATOM     64  C   UNL     1       7.349   4.096  -0.000  1.00  0.00     0.000 C 
BRANCH  64  65
ATOM     65  C   UNL     1       7.610   5.573   0.000  1.00  0.00     0.000 C 
BRANCH  65  66
ATOM     66  C   UNL     1       7.870   7.050  -0.000  1.00  0.00     0.000 C 
BRANCH  66  67
ATOM     67  C   UNL     1       8.130   8.527   0.000  1.00  0.00     0.000 C 
BRANCH  67  68
ATOM     68  C   UNL     1       8.391  10.004  -0.000  1.00  0.00     0.000 C 
BRANCH  68  69
ATOM     69  C   UNL     1       8.085  11.533  -0.668  1.00  0.00     0.000 C 
BRANCH  69  70
ATOM     70  C   UNL     1       8.888  12.934  -0.104  1.00  0.00     0.000 C 
BRANCH  70  71
ATOM     71  C   UNL     1       8.633  14.543  -0.604  1.00  0.00     0.000 C 
BRANCH  71  72
ATOM     72  C   UNL     1       9.520  15.892  -0.055  1.00  0.00     0.000 C 
BRANCH  72  73
ATOM     73  C   UNL     1       9.283  17.511  -0.537  1.00  0.00     0.001 C 
BRANCH  73  74
ATOM     74  C   UNL     1      10.201  18.843  -0.001  1.00  0.00     0.008 C 
BRANCH  74  75
ATOM     75  C   UNL     1      10.027  20.466  -0.500  1.00  0.00    -0.017 C 
BRANCH  75  76
ATOM     76  C   UNL     1      10.908  21.814   0.060  1.00  0.00     0.008 C 
BRANCH  76  77
ATOM     77  C   UNL     1      10.828  23.424  -0.509  1.00  0.00     0.001 C 
BRANCH  77  78
ATOM     78  C   UNL     1      11.812  24.652   0.123  1.00  0.00     0.000 C 
BRANCH  78  79
ATOM     79  C   UNL     1      12.271  26.265  -0.290  1.00  0.00    -0.000 C 
BRANCH  79  80
ATOM     80  C   UNL     1      11.517  27.731   0.000  1.00  0.00    -0.003 C 
ATOM     81  C   UNL     1      11.777  29.208  -0.000  1.00  0.00     0.004 C 
ENDBRANCH  79  80
ENDBRANCH  78  79
ENDBRANCH  77  78
ENDBRANCH  76  77
ENDBRANCH  75  76
ENDBRANCH  74  75
ENDBRANCH  73  74
ENDBRANCH  72  73
ENDBRANCH  71  72
ENDBRANCH  70  71
ENDBRANCH  69  70
ENDBRANCH  68  69
ENDBRANCH  67  68
ENDBRANCH  66  67
ENDBRANCH  65  66
ENDBRANCH  64  65
ENDBRANCH  63  64
ENDBRANCH  62  63
ENDBRANCH   1  62
TORSDOF 54
