REMARK SMILES CCOc1c(C)cccc1C
REMARK SMILES IDX 3 1 2 2 1 3 4 4 5 5 10 6 7 7 9 8 8 9 6 10 11 11
REMARK H PARENT
ROOT
ATOM      1  O   UNL     1       0.884   0.113  -1.166  1.00  0.00    -0.493 OA
ENDROOT
BRANCH   1   2
ATOM      2  C   UNL     1       2.099  -0.437  -0.786  1.00  0.00     0.226 C 
ATOM      3  C   UNL     1       2.665   0.243   0.459  1.00  0.00     0.049 C 
ENDBRANCH   1   2
BRANCH   1   4
ATOM      4  C   UNL     1      -0.260   0.055  -0.433  1.00  0.00     0.125 A 
ATOM      5  C   UNL     1      -0.703   1.212   0.252  1.00  0.00    -0.009 A 
ATOM      6  C   UNL     1      -1.036  -1.131  -0.372  1.00  0.00    -0.009 A 
ATOM      7  C   UNL     1      -1.882   1.164   1.008  1.00  0.00     0.007 A 
ATOM      8  C   UNL     1      -2.218  -1.144   0.388  1.00  0.00     0.007 A 
ATOM      9  C   UNL     1      -2.632  -0.007   1.078  1.00  0.00     0.001 A 
ATOM     10  C   UNL     1       0.049   2.514   0.195  1.00  0.00     0.048 C 
ATOM     11  C   UNL     1      -0.652  -2.377  -1.128  1.00  0.00     0.048 C 
ENDBRANCH   1   4
TORSDOF 2
