REMARK SMILES COc1cc(O)c(Cc2cc([C@H]3c4ccccc4Oc4c(C(=O)CCc5ccccc5)c(O)c(Cc5ccccc5O)c(O)c43)ccc2O)c(O)c1C(=O)CCc1ccccc1
REMARK SMILES IDX 9 1 10 2 11 3 46 4 47 5 48 6 8 7 7 8 3 9 4 10 52 11 5 12
REMARK SMILES IDX 50 13 2 14 1 15 53 16 54 17 55 18 56 19 57 20 58 21 62 22
REMARK SMILES IDX 59 23 61 24 60 25 6 26 51 28 49 30 12 32 13 33 45 34 14 35
REMARK SMILES IDX 18 36 43 37 20 38 15 39 17 40 19 41 34 42 21 43 16 44 32 45
REMARK SMILES IDX 44 46 35 48 36 49 37 50 41 51 38 52 40 53 39 54 42 55 22 57
REMARK SMILES IDX 23 58 24 59 25 60 26 61 27 62 31 63 28 64 30 65 29 66 33 67
REMARK H PARENT 6 27 51 29 49 31 44 47 42 56 33 68
ROOT
ATOM      1  C   UNL     1       1.525   0.277  -0.073  1.00  0.00    -0.001 A 
ATOM      2  C   UNL     1       0.470   0.575  -0.953  1.00  0.00     0.012 A 
ATOM      3  C   UNL     1      -0.825   0.093  -0.725  1.00  0.00    -0.035 A 
ATOM      4  C   UNL     1      -1.077  -0.683   0.415  1.00  0.00     0.008 A 
ATOM      5  C   UNL     1      -0.050  -0.973   1.310  1.00  0.00     0.047 A 
ATOM      6  C   UNL     1       1.253  -0.509   1.079  1.00  0.00     0.119 A 
ENDROOT
BRANCH   1   7
ATOM      7  C   UNL     1       2.891   0.812  -0.472  1.00  0.00     0.082 C 
BRANCH   7   8
ATOM      8  C   UNL     1       4.050   0.441   0.432  1.00  0.00     0.041 A 
ATOM      9  C   UNL     1       6.231  -0.148   2.136  1.00  0.00     0.137 A 
ATOM     10  C   UNL     1       5.365   0.921   2.426  1.00  0.00     0.093 A 
ATOM     11  C   UNL     1       5.994  -0.932   0.995  1.00  0.00     0.102 A 
ATOM     12  C   UNL     1       4.287   1.218   1.584  1.00  0.00     0.126 A 
ATOM     13  C   UNL     1       4.908  -0.655   0.145  1.00  0.00     0.137 A 
BRANCH   9  14
ATOM     14  O   UNL     1       7.281  -0.466   2.941  1.00  0.00    -0.496 OA
ATOM     15  C   UNL     1       7.607   0.155   4.129  1.00  0.00     0.278 C 
ENDBRANCH   9  14
BRANCH  11  16
ATOM     16  C   UNL     1       6.895  -2.063   0.676  1.00  0.00     0.170 C 
ATOM     17  O   UNL     1       6.489  -3.203   0.842  1.00  0.00    -0.294 OA
BRANCH  16  18
ATOM     18  C   UNL     1       8.258  -1.860   0.053  1.00  0.00     0.086 C 
BRANCH  18  19
ATOM     19  C   UNL     1       8.546  -0.398  -0.332  1.00  0.00     0.044 C 
BRANCH  19  20
ATOM     20  C   UNL     1       9.839  -0.280  -1.099  1.00  0.00    -0.048 A 
ATOM     21  C   UNL     1       9.827   0.132  -2.444  1.00  0.00     0.004 A 
ATOM     22  C   UNL     1      11.067  -0.579  -0.484  1.00  0.00     0.004 A 
ATOM     23  C   UNL     1      11.022   0.236  -3.161  1.00  0.00     0.000 A 
ATOM     24  C   UNL     1      12.261  -0.469  -1.205  1.00  0.00     0.000 A 
ATOM     25  C   UNL     1      12.238  -0.064  -2.543  1.00  0.00     0.000 A 
ENDBRANCH  19  20
ENDBRANCH  18  19
ENDBRANCH  16  18
ENDBRANCH  11  16
BRANCH  12  26
ATOM     26  O   UNL     1       3.471   2.254   1.879  1.00  0.00    -0.507 OA
ATOM     27  H   UNL     1       3.598   2.807   2.662  1.00  0.00     0.293 HD
ENDBRANCH  12  26
BRANCH  13  28
ATOM     28  O   UNL     1       4.726  -1.461  -0.929  1.00  0.00    -0.507 OA
ATOM     29  H   UNL     1       3.992  -1.411  -1.552  1.00  0.00     0.293 HD
ENDBRANCH  13  28
ENDBRANCH   7   8
ENDBRANCH   1   7
BRANCH   6  30
ATOM     30  O   UNL     1       2.224  -0.831   1.958  1.00  0.00    -0.508 OA
ATOM     31  H   UNL     1       2.057  -1.364   2.748  1.00  0.00     0.293 HD
ENDBRANCH   6  30
BRANCH   3  32
ATOM     32  C   UNL     1      -1.931   0.378  -1.723  1.00  0.00     0.091 C 
ATOM     33  C   UNL     1      -2.306  -0.928  -2.379  1.00  0.00     0.007 A 
ATOM     34  C   UNL     1      -3.101   1.075  -1.027  1.00  0.00     0.050 A 
ATOM     35  C   UNL     1      -1.351  -1.659  -3.108  1.00  0.00     0.008 A 
ATOM     36  C   UNL     1      -3.604  -1.432  -2.258  1.00  0.00     0.131 A 
ATOM     37  C   UNL     1      -2.899   2.333  -0.439  1.00  0.00     0.130 A 
ATOM     38  C   UNL     1      -4.370   0.457  -0.974  1.00  0.00     0.149 A 
ATOM     39  C   UNL     1      -1.692  -2.876  -3.701  1.00  0.00     0.001 A 
ATOM     40  C   UNL     1      -3.947  -2.651  -2.850  1.00  0.00     0.047 A 
ATOM     41  O   UNL     1      -4.538  -0.750  -1.569  1.00  0.00    -0.456 OA
ATOM     42  C   UNL     1      -3.959   2.970   0.246  1.00  0.00     0.041 A 
ATOM     43  C   UNL     1      -5.469   1.080  -0.314  1.00  0.00     0.103 A 
ATOM     44  C   UNL     1      -2.991  -3.373  -3.569  1.00  0.00     0.004 A 
ATOM     45  C   UNL     1      -5.229   2.346   0.319  1.00  0.00     0.137 A 
BRANCH  37  46
ATOM     46  O   UNL     1      -1.665   2.885  -0.538  1.00  0.00    -0.507 OA
ATOM     47  H   UNL     1      -1.382   3.723  -0.156  1.00  0.00     0.293 HD
ENDBRANCH  37  46
BRANCH  42  48
ATOM     48  C   UNL     1      -3.791   4.329   0.917  1.00  0.00     0.082 C 
BRANCH  48  49
ATOM     49  C   UNL     1      -3.625   4.169   2.412  1.00  0.00    -0.001 A 
ATOM     50  C   UNL     1      -2.447   3.576   2.902  1.00  0.00     0.008 A 
ATOM     51  C   UNL     1      -4.607   4.607   3.327  1.00  0.00     0.119 A 
ATOM     52  C   UNL     1      -2.244   3.426   4.275  1.00  0.00     0.001 A 
ATOM     53  C   UNL     1      -4.395   4.441   4.706  1.00  0.00     0.046 A 
ATOM     54  C   UNL     1      -3.217   3.856   5.176  1.00  0.00     0.004 A 
BRANCH  51  55
ATOM     55  O   UNL     1      -5.749   5.173   2.884  1.00  0.00    -0.508 OA
ATOM     56  H   UNL     1      -6.450   5.459   3.487  1.00  0.00     0.293 HD
ENDBRANCH  51  55
ENDBRANCH  48  49
ENDBRANCH  42  48
BRANCH  43  57
ATOM     57  C   UNL     1      -6.849   0.421  -0.325  1.00  0.00     0.170 C 
ATOM     58  O   UNL     1      -7.804   0.994   0.170  1.00  0.00    -0.294 OA
BRANCH  57  59
ATOM     59  C   UNL     1      -7.132  -0.921  -0.982  1.00  0.00     0.086 C 
BRANCH  59  60
ATOM     60  C   UNL     1      -8.623  -1.299  -1.013  1.00  0.00     0.044 C 
BRANCH  60  61
ATOM     61  C   UNL     1      -8.816  -2.628  -1.698  1.00  0.00    -0.048 A 
ATOM     62  C   UNL     1      -9.415  -2.694  -2.968  1.00  0.00     0.004 A 
ATOM     63  C   UNL     1      -8.394  -3.816  -1.075  1.00  0.00     0.004 A 
ATOM     64  C   UNL     1      -9.581  -3.927  -3.606  1.00  0.00     0.000 A 
ATOM     65  C   UNL     1      -8.574  -5.048  -1.712  1.00  0.00     0.000 A 
ATOM     66  C   UNL     1      -9.164  -5.103  -2.978  1.00  0.00     0.000 A 
ENDBRANCH  60  61
ENDBRANCH  59  60
ENDBRANCH  57  59
ENDBRANCH  43  57
BRANCH  45  67
ATOM     67  O   UNL     1      -6.181   3.031   1.001  1.00  0.00    -0.507 OA
ATOM     68  H   UNL     1      -7.081   2.775   1.214  1.00  0.00     0.293 HD
ENDBRANCH  45  67
ENDBRANCH   3  32
TORSDOF 20
