REMARK SMILES CC(=O)/C=C/C1=C(C)[C@H](O[C@H]2O[C@H]([C@H](O)CO)[C@H](O)[C@H]2O[C@@H]2OC[C@](O)(CO)[C@H]2O)[C@H](O)CC1(C)C
REMARK SMILES IDX 11 1 12 2 13 3 18 4 20 5 10 6 9 7 6 8 7 9 34 10 33 11 31 12
REMARK SMILES IDX 8 13 35 14 36 15 5 16 4 17 2 18 3 19 1 20 32 21 21 23 22 24
REMARK SMILES IDX 23 25 29 26 24 27 25 28 30 29 26 31 27 33 28 34 14 36 15 37
REMARK SMILES IDX 16 39 17 40 19 42
REMARK H PARENT 32 22 30 30 26 32 28 35 15 38 17 41 19 43
ROOT
ATOM      1  C   UNL     1      -0.849   2.030  -0.954  1.00  0.00     0.283 C 
ATOM      2  O   UNL     1      -1.111   2.774  -2.133  1.00  0.00    -0.341 OA
ATOM      3  C   UNL     1      -2.513   2.894  -2.201  1.00  0.00     0.184 C 
ATOM      4  C   UNL     1      -3.003   1.516  -1.784  1.00  0.00     0.180 C 
ATOM      5  C   UNL     1      -2.085   1.157  -0.636  1.00  0.00     0.209 C 
ENDROOT
BRANCH   1   6
ATOM      6  O   UNL     1       0.316   1.238  -1.143  1.00  0.00    -0.339 OA
BRANCH   6   7
ATOM      7  C   UNL     1       1.440   1.708  -0.400  1.00  0.00     0.176 C 
ATOM      8  C   UNL     1       2.595  -0.332   0.606  1.00  0.00    -0.041 C 
ATOM      9  C   UNL     1       1.691   0.718   0.745  1.00  0.00    -0.038 C 
ATOM     10  C   UNL     1       3.342  -0.457  -0.768  1.00  0.00    -0.008 C 
ATOM     11  C   UNL     1       3.796   0.961  -1.173  1.00  0.00     0.046 C 
ATOM     12  C   UNL     1       2.647   1.967  -1.336  1.00  0.00     0.148 C 
ATOM     13  C   UNL     1       0.792   1.031   1.927  1.00  0.00     0.043 C 
ATOM     14  C   UNL     1       4.648  -1.305  -0.731  1.00  0.00     0.016 C 
ATOM     15  C   UNL     1       2.428  -1.128  -1.821  1.00  0.00     0.016 C 
BRANCH   8  16
ATOM     16  C   UNL     1       2.959  -1.383   1.660  1.00  0.00     0.008 C 
ATOM     17  C   UNL     1       2.677  -1.492   2.977  1.00  0.00     0.047 C 
BRANCH  17  18
ATOM     18  C   UNL     1       3.166  -2.632   3.808  1.00  0.00     0.152 C 
ATOM     19  O   UNL     1       2.803  -2.703   4.973  1.00  0.00    -0.295 OA
ATOM     20  C   UNL     1       4.110  -3.681   3.284  1.00  0.00     0.093 C 
ENDBRANCH  17  18
ENDBRANCH   8  16
BRANCH  12  21
ATOM     21  O   UNL     1       2.234   2.130  -2.672  1.00  0.00    -0.390 OA
ATOM     22  H   UNL     1       2.113   1.236  -3.078  1.00  0.00     0.211 HD
ENDBRANCH  12  21
ENDBRANCH   6   7
ENDBRANCH   1   6
BRANCH   5  23
ATOM     23  O   UNL     1      -1.781  -0.229  -0.674  1.00  0.00    -0.338 OA
BRANCH  23  24
ATOM     24  C   UNL     1      -2.079  -0.919   0.525  1.00  0.00     0.282 C 
ATOM     25  O   UNL     1      -0.940  -1.629   0.957  1.00  0.00    -0.347 OA
ATOM     26  C   UNL     1      -3.142  -1.989   0.261  1.00  0.00     0.207 C 
ATOM     27  C   UNL     1      -1.480  -2.565   1.863  1.00  0.00     0.204 C 
ATOM     28  C   UNL     1      -2.724  -3.152   1.183  1.00  0.00     0.142 C 
BRANCH  26  29
ATOM     29  O   UNL     1      -4.456  -1.523   0.445  1.00  0.00    -0.385 OA
ATOM     30  H   UNL     1      -4.521  -1.162   1.367  1.00  0.00     0.211 HD
ENDBRANCH  26  29
BRANCH  28  31
ATOM     31  O   UNL     1      -3.723  -3.459   2.126  1.00  0.00    -0.382 OA
ATOM     32  H   UNL     1      -3.326  -4.082   2.789  1.00  0.00     0.211 HD
ENDBRANCH  28  31
BRANCH  28  33
ATOM     33  C   UNL     1      -2.372  -4.422   0.363  1.00  0.00     0.196 C 
BRANCH  33  34
ATOM     34  O   UNL     1      -1.309  -4.186  -0.529  1.00  0.00    -0.393 OA
ATOM     35  H   UNL     1      -1.696  -4.103  -1.439  1.00  0.00     0.210 HD
ENDBRANCH  33  34
ENDBRANCH  28  33
ENDBRANCH  23  24
ENDBRANCH   5  23
BRANCH   3  36
ATOM     36  C   UNL     1      -2.985   4.107  -1.337  1.00  0.00     0.171 C 
BRANCH  36  37
ATOM     37  O   UNL     1      -4.380   4.245  -1.392  1.00  0.00    -0.388 OA
ATOM     38  H   UNL     1      -4.628   4.441  -2.334  1.00  0.00     0.211 HD
ENDBRANCH  36  37
BRANCH  36  39
ATOM     39  C   UNL     1      -2.313   5.426  -1.787  1.00  0.00     0.190 C 
BRANCH  39  40
ATOM     40  O   UNL     1      -0.914   5.363  -1.695  1.00  0.00    -0.394 OA
ATOM     41  H   UNL     1      -0.691   5.334  -0.728  1.00  0.00     0.210 HD
ENDBRANCH  39  40
ENDBRANCH  36  39
ENDBRANCH   3  36
BRANCH   4  42
ATOM     42  O   UNL     1      -4.380   1.404  -1.512  1.00  0.00    -0.387 OA
ATOM     43  H   UNL     1      -4.551   1.813  -0.623  1.00  0.00     0.211 HD
ENDBRANCH   4  42
TORSDOF 16
