REMARK SMILES C[C][C][C][C][C][C][C]/C=C\[C]/C=C\[C]/C=C\CCCC(=O)O[C@@H](COC(=O)[C]C/C=C\C/C=C\C/C=C\C/C=C\C/C=C\C/C=C\CC)COC(=O)C[C]CCCCC/C=C\C/C=C\CCC[C]C
REMARK SMILES IDX 23 1 24 2 25 3 26 4 27 5 28 6 29 7 30 8 31 9 32 10 33 11
REMARK SMILES IDX 34 12 35 13 36 14 37 15 38 16 39 17 40 18 41 19 42 20 43 21
REMARK SMILES IDX 44 22 45 23 46 24 47 25 48 26 49 27 50 28 51 29 52 30 53 31
REMARK SMILES IDX 54 32 55 33 56 34 57 35 58 36 59 37 60 38 61 39 62 40 63 41
REMARK SMILES IDX 64 42 65 43 66 44 67 45 68 46 69 47 22 48 20 49 21 50 19 51
REMARK SMILES IDX 18 52 17 53 16 54 15 55 14 56 13 57 12 58 11 59 10 60 9 61
REMARK SMILES IDX 8 62 7 63 6 64 5 65 4 66 3 67 2 68 1 69
REMARK H PARENT
ROOT
ATOM      1  C   UNL     1      20.177   4.959   0.654  1.00  0.00     0.251 C 
ENDROOT
BRANCH   1   2
ATOM      2  C   UNL     1      19.067   3.883  -0.007  1.00  0.00     0.281 C 
BRANCH   2   3
ATOM      3  O   UNL     1      18.611   2.598   0.582  1.00  0.00    -0.461 OA
BRANCH   3   4
ATOM      4  C   UNL     1      18.750   1.299   0.000  1.00  0.00     0.314 C 
ATOM      5  O   UNL     1      19.713   1.199  -0.744  1.00  0.00    -0.252 OA
BRANCH   4   6
ATOM      6  C   UNL     1      18.000  -0.000  -0.000  1.00  0.00     0.106 C 
BRANCH   6   7
ATOM      7  C   UNL     1      17.250  -1.299   0.000  1.00  0.00     0.048 C 
BRANCH   7   8
ATOM      8  C   UNL     1      16.400  -1.443  -1.252  1.00  0.00    -0.030 C 
ATOM      9  C   UNL     1      15.038  -1.436  -1.346  1.00  0.00    -0.027 C 
BRANCH   9  10
ATOM     10  C   UNL     1      14.018  -1.243  -0.229  1.00  0.00     0.054 C 
BRANCH  10  11
ATOM     11  C   UNL     1      13.290   0.058  -0.465  1.00  0.00    -0.027 C 
ATOM     12  C   UNL     1      11.958   0.307  -0.497  1.00  0.00    -0.027 C 
BRANCH  12  13
ATOM     13  C   UNL     1      10.764  -0.614  -0.277  1.00  0.00     0.054 C 
BRANCH  13  14
ATOM     14  C   UNL     1      10.531  -1.640  -1.354  1.00  0.00    -0.027 C 
ATOM     15  C   UNL     1       9.376  -2.322  -1.614  1.00  0.00    -0.027 C 
BRANCH  15  16
ATOM     16  C   UNL     1       7.969  -2.316  -0.976  1.00  0.00     0.054 C 
BRANCH  16  17
ATOM     17  C   UNL     1       7.738  -1.615   0.339  1.00  0.00    -0.027 C 
ATOM     18  C   UNL     1       6.532  -1.390   0.917  1.00  0.00    -0.027 C 
BRANCH  18  19
ATOM     19  C   UNL     1       5.124  -1.716   0.416  1.00  0.00     0.054 C 
BRANCH  19  20
ATOM     20  C   UNL     1       4.764  -3.185   0.350  1.00  0.00    -0.027 C 
ATOM     21  C   UNL     1       3.525  -3.757   0.187  1.00  0.00    -0.027 C 
BRANCH  21  22
ATOM     22  C   UNL     1       2.085  -3.206   0.032  1.00  0.00     0.054 C 
BRANCH  22  23
ATOM     23  C   UNL     1       1.898  -1.722  -0.066  1.00  0.00    -0.027 C 
ATOM     24  C   UNL     1       0.749  -1.010  -0.075  1.00  0.00    -0.031 C 
BRANCH  24  25
ATOM     25  C   UNL     1      -0.750  -1.299   0.000  1.00  0.00     0.023 C 
ATOM     26  C   UNL     1      -1.500  -2.598  -0.000  1.00  0.00     0.008 C 
ENDBRANCH  24  25
ENDBRANCH  22  23
ENDBRANCH  21  22
ENDBRANCH  19  20
ENDBRANCH  18  19
ENDBRANCH  16  17
ENDBRANCH  15  16
ENDBRANCH  13  14
ENDBRANCH  12  13
ENDBRANCH  10  11
ENDBRANCH   9  10
ENDBRANCH   7   8
ENDBRANCH   6   7
ENDBRANCH   4   6
ENDBRANCH   3   4
ENDBRANCH   2   3
ENDBRANCH   1   2
BRANCH   1  27
ATOM     27  C   UNL     1      21.673   4.380   0.647  1.00  0.00     0.281 C 
BRANCH  27  28
ATOM     28  O   UNL     1      22.184   3.922  -0.585  1.00  0.00    -0.462 OA
BRANCH  28  29
ATOM     29  C   UNL     1      23.441   3.349  -0.819  1.00  0.00     0.306 C 
ATOM     30  O   UNL     1      23.555   2.557  -1.740  1.00  0.00    -0.252 OA
BRANCH  29  31
ATOM     31  C   UNL     1      24.696   3.696   0.000  1.00  0.00     0.131 C 
BRANCH  31  32
ATOM     32  C   UNL     1      25.995   2.946   0.000  1.00  0.00    -0.006 C 
BRANCH  32  33
ATOM     33  C   UNL     1      27.294   2.196   0.000  1.00  0.00     0.009 C 
BRANCH  33  34
ATOM     34  C   UNL     1      28.593   1.446   0.000  1.00  0.00     0.001 C 
BRANCH  34  35
ATOM     35  C   UNL     1      29.892   0.696   0.000  1.00  0.00     0.000 C 
BRANCH  35  36
ATOM     36  C   UNL     1      31.191  -0.054   0.000  1.00  0.00     0.004 C 
BRANCH  36  37
ATOM     37  C   UNL     1      32.465   0.639  -0.490  1.00  0.00     0.027 C 
BRANCH  37  38
ATOM     38  C   UNL     1      33.795  -0.120  -0.576  1.00  0.00    -0.031 C 
ATOM     39  C   UNL     1      34.350  -1.377  -0.481  1.00  0.00    -0.027 C 
BRANCH  39  40
ATOM     40  C   UNL     1      34.091  -2.885  -0.268  1.00  0.00     0.054 C 
BRANCH  40  41
ATOM     41  C   UNL     1      32.775  -3.621  -0.114  1.00  0.00    -0.027 C 
ATOM     42  C   UNL     1      32.733  -4.997  -0.013  1.00  0.00    -0.031 C 
BRANCH  42  43
ATOM     43  C   UNL     1      33.978  -5.911  -0.046  1.00  0.00     0.027 C 
BRANCH  43  44
ATOM     44  C   UNL     1      33.740  -7.475   0.064  1.00  0.00     0.005 C 
BRANCH  44  45
ATOM     45  C   UNL     1      35.089  -8.304   0.000  1.00  0.00     0.008 C 
BRANCH  45  46
ATOM     46  C   UNL     1      36.388  -9.054   0.000  1.00  0.00    -0.021 C 
ATOM     47  C   UNL     1      37.687  -9.804   0.000  1.00  0.00     0.012 C 
ENDBRANCH  45  46
ENDBRANCH  44  45
ENDBRANCH  43  44
ENDBRANCH  42  43
ENDBRANCH  40  41
ENDBRANCH  39  40
ENDBRANCH  37  38
ENDBRANCH  36  37
ENDBRANCH  35  36
ENDBRANCH  34  35
ENDBRANCH  33  34
ENDBRANCH  32  33
ENDBRANCH  31  32
ENDBRANCH  29  31
ENDBRANCH  28  29
ENDBRANCH  27  28
ENDBRANCH   1  27
BRANCH   1  48
ATOM     48  O   UNL     1      20.083   6.351   0.146  1.00  0.00    -0.455 OA
BRANCH  48  49
ATOM     49  C   UNL     1      20.683   7.607   0.568  1.00  0.00     0.306 C 
ATOM     50  O   UNL     1      21.583   7.572   1.390  1.00  0.00    -0.252 OA
BRANCH  49  51
ATOM     51  C   UNL     1      20.250   9.093   0.000  1.00  0.00     0.123 C 
BRANCH  51  52
ATOM     52  C   UNL     1      21.000  10.392   0.000  1.00  0.00     0.016 C 
BRANCH  52  53
ATOM     53  C   UNL     1      21.750  11.691   0.000  1.00  0.00     0.027 C 
BRANCH  53  54
ATOM     54  C   UNL     1      22.370  13.106   0.010  1.00  0.00    -0.030 C 
ATOM     55  C   UNL     1      21.750  14.289   0.000  1.00  0.00    -0.018 C 
BRANCH  55  56
ATOM     56  C   UNL     1      20.250  14.289   0.000  1.00  0.00     0.034 C 
BRANCH  56  57
ATOM     57  C   UNL     1      18.750  14.289   0.000  1.00  0.00    -0.017 C 
ATOM     58  C   UNL     1      18.000  15.588   0.000  1.00  0.00    -0.017 C 
BRANCH  58  59
ATOM     59  C   UNL     1      18.750  16.887   0.000  1.00  0.00     0.034 C 
BRANCH  59  60
ATOM     60  C   UNL     1      19.500  18.186   0.000  1.00  0.00    -0.017 C 
ATOM     61  C   UNL     1      18.750  19.486   0.000  1.00  0.00    -0.021 C 
BRANCH  61  62
ATOM     62  C   UNL     1      17.250  19.486   0.000  1.00  0.00     0.017 C 
BRANCH  62  63
ATOM     63  C   UNL     1      15.750  19.486   0.000  1.00  0.00     0.004 C 
BRANCH  63  64
ATOM     64  C   UNL     1      14.250  19.486   0.000  1.00  0.00     0.000 C 
BRANCH  64  65
ATOM     65  C   UNL     1      12.750  19.486   0.000  1.00  0.00     0.000 C 
BRANCH  65  66
ATOM     66  C   UNL     1      11.250  19.486   0.000  1.00  0.00    -0.000 C 
BRANCH  66  67
ATOM     67  C   UNL     1       9.750  19.486   0.000  1.00  0.00    -0.001 C 
BRANCH  67  68
ATOM     68  C   UNL     1       8.250  19.486   0.000  1.00  0.00    -0.012 C 
ATOM     69  C   UNL     1       6.750  19.486   0.000  1.00  0.00     0.013 C 
ENDBRANCH  67  68
ENDBRANCH  66  67
ENDBRANCH  65  66
ENDBRANCH  64  65
ENDBRANCH  63  64
ENDBRANCH  62  63
ENDBRANCH  61  62
ENDBRANCH  59  60
ENDBRANCH  58  59
ENDBRANCH  56  57
ENDBRANCH  55  56
ENDBRANCH  53  54
ENDBRANCH  52  53
ENDBRANCH  51  52
ENDBRANCH  49  51
ENDBRANCH  48  49
ENDBRANCH   1  48
TORSDOF 51
