REMARK SMILES C=C1[C@@H](OC(=O)[C@H](O)[C@@H](c2ccccc2)N(C)C)C[C@H](O)[C@]2(C)[C@@H]1C[C@@H]1C[C@H](OC(C)=O)C(C)=C([C@@H](OC(C)=O)[C@@H]2O)C1(C)C
REMARK SMILES IDX 1 1 2 2 3 3 19 4 20 5 22 6 23 7 24 8 4 10 5 11 6 12 7 13
REMARK SMILES IDX 8 14 9 16 10 17 11 18 15 19 12 20 14 21 13 22 16 23 17 24
REMARK SMILES IDX 18 25 25 26 26 27 27 28 43 29 28 30 35 31 33 32 44 33 45 34
REMARK SMILES IDX 34 35 29 36 30 37 32 38 31 39 36 40 37 41 38 42 40 43 39 44
REMARK SMILES IDX 41 45 42 47 21 49
REMARK H PARENT 8 15 42 48 21 50
REMARK Flexibility Score:  128.900
ROOT
ATOM      1  C   UNL     1       1.194   0.169  -1.121  1.00  0.00     0.012 C 
ATOM      2  C   UNL     1       0.628  -0.546  -0.131  1.00  0.00    -0.033 C 
ATOM      3  C   UNL     1       1.425  -1.701   0.461  1.00  0.00     0.205 C 
ATOM      4  C   UNL     1       0.709  -2.586   1.532  1.00  0.00     0.082 C 
ATOM      5  C   UNL     1      -0.807  -2.334   1.796  1.00  0.00     0.127 C 
ATOM      6  C   UNL     1      -1.581  -1.686   0.577  1.00  0.00     0.030 CG0
ATOM      7  C   UNL     1      -1.483  -2.757  -0.573  1.00  0.00     0.018 C 
ATOM      8  C   UNL     1      -0.772  -0.266   0.388  1.00  0.00     0.030 C 
ATOM      9  G   UNL     1      -3.122  -1.573   0.959  1.00  0.00     0.000 G0
ENDROOT
BRANCH   3  10
ATOM     10  O   UNL     1       2.641  -1.262   0.967  1.00  0.00    -0.456 OA
BRANCH  10  11
ATOM     11  C   UNL     1       3.858  -1.683   0.523  1.00  0.00     0.337 C 
ATOM     12  O   UNL     1       3.945  -2.479  -0.402  1.00  0.00    -0.249 OA
BRANCH  11  13
ATOM     13  C   UNL     1       5.120  -1.250   1.224  1.00  0.00     0.245 C 
BRANCH  13  14
ATOM     14  O   UNL     1       4.834  -0.415   2.321  1.00  0.00    -0.380 OA
ATOM     15  H   UNL     1       4.814   0.525   2.023  1.00  0.00     0.211 HD
ENDBRANCH  13  14
BRANCH  13  16
ATOM     16  C   UNL     1       6.206  -0.687   0.231  1.00  0.00     0.127 C 
BRANCH  16  17
ATOM     17  C   UNL     1       5.850   0.541  -0.619  1.00  0.00    -0.028 A 
ATOM     18  C   UNL     1       4.640   1.265  -0.523  1.00  0.00     0.005 A 
ATOM     19  C   UNL     1       6.804   0.968  -1.568  1.00  0.00     0.005 A 
ATOM     20  C   UNL     1       4.410   2.380  -1.338  1.00  0.00     0.000 A 
ATOM     21  C   UNL     1       6.567   2.080  -2.378  1.00  0.00     0.000 A 
ATOM     22  C   UNL     1       5.372   2.788  -2.261  1.00  0.00     0.000 A 
ENDBRANCH  16  17
BRANCH  16  23
ATOM     23  N   UNL     1       7.540  -0.490   0.867  1.00  0.00    -0.300 NA
ATOM     24  C   UNL     1       8.126  -1.726   1.413  1.00  0.00     0.105 C 
ATOM     25  C   UNL     1       7.627   0.611   1.840  1.00  0.00     0.105 C 
ENDBRANCH  16  23
ENDBRANCH  13  16
ENDBRANCH  11  13
ENDBRANCH  10  11
ENDBRANCH   3  10
BRANCH   8  26
ATOM     26  C   UNL     1      -1.388   1.166   0.035  1.00  0.00     0.013 C 
BRANCH  26  27
ATOM     27  C   UNL     1      -2.061   1.658  -1.303  1.00  0.00     0.003 C 
ATOM     28  C   UNL     1      -2.811   2.996  -1.060  1.00  0.00     0.054 C 
ATOM     29  C   UNL     1      -3.097   0.656  -1.841  1.00  0.00    -0.007 C 
ATOM     30  C   UNL     1      -4.073   2.838  -0.148  1.00  0.00     0.203 C 
ATOM     31  C   UNL     1      -4.002   0.316  -0.627  1.00  0.00    -0.019 C 
ATOM     32  C   UNL     1      -4.562   1.384   0.048  1.00  0.00    -0.030 C 
ATOM     33  C   UNL     1      -2.307  -0.433  -2.594  1.00  0.00     0.016 C 
ATOM     34  C   UNL     1      -4.040   1.213  -2.961  1.00  0.00     0.016 C 
ATOM     35  C   UNL     1      -5.612   1.200   1.133  1.00  0.00     0.043 C 
BRANCH  30  36
ATOM     36  O   UNL     1      -3.721   3.295   1.112  1.00  0.00    -0.458 OA
BRANCH  36  37
ATOM     37  C   UNL     1      -4.310   4.325   1.780  1.00  0.00     0.303 C 
ATOM     38  O   UNL     1      -5.144   5.035   1.239  1.00  0.00    -0.253 OA
ATOM     39  C   UNL     1      -3.964   4.562   3.213  1.00  0.00     0.139 C 
ENDBRANCH  36  37
ENDBRANCH  30  36
BRANCH  31  40
ATOM     40  C   UNL     1      -4.209  -1.110  -0.098  1.00  0.00     0.232 C 
BRANCH  40  41
ATOM     41  O   UNL     1      -4.366  -2.028  -1.123  1.00  0.00    -0.455 OA
BRANCH  41  42
ATOM     42  C   UNL     1      -5.458  -2.824  -1.310  1.00  0.00     0.303 C 
ATOM     43  O   UNL     1      -6.442  -2.731  -0.589  1.00  0.00    -0.253 OA
ATOM     44  C   UNL     1      -5.454  -3.856  -2.389  1.00  0.00     0.139 C 
ENDBRANCH  41  42
ENDBRANCH  40  41
BRANCH  40  45
ATOM     45  C   UNL     1      -3.122  -1.573   0.959  1.00  0.00     0.168 CG0
ATOM     46  G   UNL     1      -1.581  -1.686   0.577  1.00  0.00     0.000 G0
BRANCH  45  47
ATOM     47  O   UNL     1      -3.304  -0.921   2.192  1.00  0.00    -0.388 OA
ATOM     48  H   UNL     1      -2.887  -0.033   2.155  1.00  0.00     0.211 HD
ENDBRANCH  45  47
ENDBRANCH  40  45
ENDBRANCH  31  40
ENDBRANCH  26  27
ENDBRANCH   8  26
BRANCH   5  49
ATOM     49  O   UNL     1      -1.431  -3.483   2.325  1.00  0.00    -0.392 OA
ATOM     50  H   UNL     1      -1.173  -4.271   1.783  1.00  0.00     0.210 HD
ENDBRANCH   5  49
TORSDOF 13
