REMARK SMILES COC(=O)c1ccccc1NC(=O)c1c(-c2ccc(OC)cc2)oc2ccc(OC)cc12
REMARK SMILES IDX 11 1 12 2 13 3 10 5 5 6 6 7 7 8 9 9 8 10 3 11 4 12 2 13 1 14
REMARK SMILES IDX 14 15 15 16 32 17 24 18 31 19 25 20 28 21 26 22 27 23 16 24
REMARK SMILES IDX 17 25 23 26 18 27 22 28 19 29 20 30 21 31 29 32 30 33
REMARK H PARENT 11 4
ROOT
ATOM      1  N   UNL     1       1.526  -0.072   1.355  1.00  0.00    -0.321 N 
ATOM      2  C   UNL     1       0.656  -0.327   0.336  1.00  0.00     0.260 C 
ATOM      3  O   UNL     1       0.871  -1.252  -0.435  1.00  0.00    -0.269 OA
ATOM      4  H   UNL     1       1.234   0.577   2.101  1.00  0.00     0.170 HD
ENDROOT
BRANCH   1   5
ATOM      5  C   UNL     1       2.689  -0.869   1.559  1.00  0.00     0.056 A 
ATOM      6  C   UNL     1       3.737  -0.959   0.597  1.00  0.00     0.083 A 
ATOM      7  C   UNL     1       4.817  -1.829   0.857  1.00  0.00     0.018 A 
ATOM      8  C   UNL     1       4.868  -2.576   2.034  1.00  0.00     0.001 A 
ATOM      9  C   UNL     1       2.776  -1.608   2.749  1.00  0.00     0.027 A 
ATOM     10  C   UNL     1       3.854  -2.460   2.982  1.00  0.00     0.002 A 
BRANCH   6  11
ATOM     11  C   UNL     1       3.781  -0.118  -0.640  1.00  0.00     0.339 C 
ATOM     12  O   UNL     1       4.687  -0.274  -1.449  1.00  0.00    -0.246 OA
BRANCH  11  13
ATOM     13  O   UNL     1       2.880   0.880  -0.827  1.00  0.00    -0.465 OA
ATOM     14  C   UNL     1       2.934   1.796  -1.856  1.00  0.00     0.282 C 
ENDBRANCH  11  13
ENDBRANCH   6  11
ENDBRANCH   1   5
BRANCH   2  15
ATOM     15  C   UNL     1      -0.568   0.488   0.147  1.00  0.00     0.094 A 
ATOM     16  C   UNL     1      -1.849   0.090  -0.288  1.00  0.00     0.148 A 
ATOM     17  C   UNL     1      -0.648   1.864   0.281  1.00  0.00     0.037 A 
ATOM     18  O   UNL     1      -2.617   1.160  -0.415  1.00  0.00    -0.455 OA
ATOM     19  C   UNL     1       0.299   2.827   0.639  1.00  0.00     0.059 A 
ATOM     20  C   UNL     1      -1.918   2.216  -0.082  1.00  0.00     0.135 A 
ATOM     21  C   UNL     1      -0.083   4.183   0.633  1.00  0.00     0.119 A 
ATOM     22  C   UNL     1      -2.340   3.541  -0.093  1.00  0.00     0.051 A 
ATOM     23  C   UNL     1      -1.415   4.533   0.268  1.00  0.00     0.050 A 
BRANCH  16  24
ATOM     24  C   UNL     1      -2.396  -1.277  -0.529  1.00  0.00     0.018 A 
ATOM     25  C   UNL     1      -1.796  -2.443  -0.017  1.00  0.00     0.016 A 
ATOM     26  C   UNL     1      -3.595  -1.407  -1.254  1.00  0.00     0.016 A 
ATOM     27  C   UNL     1      -2.367  -3.698  -0.241  1.00  0.00     0.047 A 
ATOM     28  C   UNL     1      -4.163  -2.664  -1.482  1.00  0.00     0.047 A 
ATOM     29  C   UNL     1      -3.549  -3.825  -0.975  1.00  0.00     0.118 A 
BRANCH  29  30
ATOM     30  O   UNL     1      -4.062  -5.069  -1.160  1.00  0.00    -0.497 OA
ATOM     31  C   UNL     1      -5.215  -5.370  -1.855  1.00  0.00     0.278 C 
ENDBRANCH  29  30
ENDBRANCH  16  24
BRANCH  21  32
ATOM     32  O   UNL     1       0.849   5.112   0.966  1.00  0.00    -0.497 OA
ATOM     33  C   UNL     1       0.660   6.479   0.957  1.00  0.00     0.278 C 
ENDBRANCH  21  32
ENDBRANCH   2  15
TORSDOF 7
