REMARK SMILES C[C@@H]1CC[C@@]2(OC1)O[C@H]1C[C@@H]3[C@@H]4CC(=O)[C@H]5C[C@@H](O)CC[C@]5(C)[C@H]4CC[C@]3(C)[C@H]1[C@@H]2C
REMARK SMILES IDX 1 1 2 2 3 3 4 4 5 5 6 6 7 7 8 8 9 9 10 10 11 11 12 12 13 13
REMARK SMILES IDX 14 14 15 15 16 16 17 17 18 18 20 19 21 20 22 21 23 22 24 23
REMARK SMILES IDX 25 24 26 25 27 26 28 27 29 28 30 29 31 30 19 31
REMARK H PARENT 19 32
ROOT
ATOM      1  C   UNL     1       6.766  -2.464  -1.219  1.00  0.00     0.010 C 
ATOM      2  C   UNL     1       6.314  -1.362  -0.255  1.00  0.00     0.012 C 
ATOM      3  C   UNL     1       5.040  -1.807   0.508  1.00  0.00     0.011 C 
ATOM      4  C   UNL     1       4.189  -0.584   0.842  1.00  0.00     0.066 C 
ATOM      5  C   UNL     1       3.744   0.072  -0.515  1.00  0.00     0.171 C 
ATOM      6  O   UNL     1       4.774   0.044  -1.525  1.00  0.00    -0.349 OA
ATOM      7  C   UNL     1       6.073  -0.016  -0.975  1.00  0.00     0.167 C 
ATOM      8  O   UNL     1       2.674  -0.700  -1.029  1.00  0.00    -0.346 OA
ATOM      9  C   UNL     1       1.736   0.200  -1.588  1.00  0.00     0.126 C 
ATOM     10  C   UNL     1       0.328  -0.378  -1.455  1.00  0.00     0.037 C 
ATOM     11  C   UNL     1       0.098  -0.280   0.056  1.00  0.00     0.002 C 
ATOM     12  C   UNL     1      -1.330  -0.619   0.597  1.00  0.00     0.004 C 
ATOM     13  C   UNL     1      -1.762  -2.042   0.157  1.00  0.00     0.080 C 
ATOM     14  C   UNL     1      -3.185  -2.319   0.560  1.00  0.00     0.136 C 
ATOM     15  O   UNL     1      -3.499  -3.309   1.203  1.00  0.00    -0.299 OA
ATOM     16  C   UNL     1      -4.183  -1.304   0.095  1.00  0.00     0.065 C 
ATOM     17  C   UNL     1      -5.672  -1.637   0.223  1.00  0.00     0.043 C 
ATOM     18  C   UNL     1      -6.474  -0.619  -0.649  1.00  0.00     0.115 C 
ATOM     19  C   UNL     1      -5.761   0.760  -0.835  1.00  0.00     0.032 C 
ATOM     20  C   UNL     1      -4.995   1.131   0.432  1.00  0.00     0.010 C 
ATOM     21  C   UNL     1      -3.850   0.085   0.772  1.00  0.00    -0.020 C 
ATOM     22  C   UNL     1      -3.836  -0.016   2.334  1.00  0.00     0.012 C 
ATOM     23  C   UNL     1      -2.407   0.473   0.223  1.00  0.00    -0.001 C 
ATOM     24  C   UNL     1      -1.897   1.846   0.729  1.00  0.00     0.005 C 
ATOM     25  C   UNL     1      -0.565   2.183   0.061  1.00  0.00     0.008 C 
ATOM     26  C   UNL     1       0.583   1.161   0.367  1.00  0.00    -0.024 C 
ATOM     27  C   UNL     1       1.010   1.317   1.845  1.00  0.00     0.012 C 
ATOM     28  C   UNL     1       1.728   1.435  -0.698  1.00  0.00     0.033 C 
ATOM     29  C   UNL     1       3.197   1.515  -0.287  1.00  0.00     0.052 C 
ATOM     30  C   UNL     1       3.917   2.564  -1.165  1.00  0.00     0.014 C 
ENDROOT
BRANCH  18  31
ATOM     31  O   UNL     1      -7.778  -0.479  -0.145  1.00  0.00    -0.393 OA
ATOM     32  H   UNL     1      -7.715  -0.012   0.728  1.00  0.00     0.210 HD
ENDBRANCH  18  31
TORSDOF 1
