REMARK SMILES O=C(Nc1ccccc1)O[C@@H]1CO[C@H]2[C@@H]1OC[C@@H]2Nc1nccc(-c2ccc3c(c2)OCO3)n1
REMARK SMILES IDX 11 1 12 2 13 3 14 4 15 5 16 6 17 7 18 8 10 9 2 10 1 11 3 12
REMARK SMILES IDX 4 14 5 15 9 16 6 17 8 18 7 19 19 20 20 22 21 23 34 24 22 25
REMARK SMILES IDX 24 26 23 27 25 28 26 29 30 30 27 31 29 32 28 33 31 34 33 35
REMARK SMILES IDX 32 36
REMARK H PARENT 3 13 19 21
ROOT
ATOM      1  C   UNL     1       3.212  -0.264   0.947  1.00  0.00     0.235 C 
ATOM      2  C   UNL     1       2.816  -1.386   1.871  1.00  0.00     0.209 C 
ATOM      3  O   UNL     1       1.522  -1.066   2.331  1.00  0.00    -0.369 OA
ATOM      4  C   UNL     1       0.924  -0.252   1.327  1.00  0.00     0.176 C 
ATOM      5  C   UNL     1       1.935  -0.068   0.199  1.00  0.00     0.192 C 
ATOM      6  O   UNL     1       1.665  -1.087  -0.741  1.00  0.00    -0.369 OA
ATOM      7  C   UNL     1       0.260  -1.054  -0.806  1.00  0.00     0.188 C 
ATOM      8  C   UNL     1      -0.205  -1.015   0.641  1.00  0.00     0.139 C 
ENDROOT
BRANCH   1   9
ATOM      9  O   UNL     1       4.293  -0.592   0.150  1.00  0.00    -0.441 OA
BRANCH   9  10
ATOM     10  C   UNL     1       5.356   0.225  -0.064  1.00  0.00     0.412 C 
ATOM     11  O   UNL     1       5.238   1.430   0.102  1.00  0.00    -0.224 OA
ATOM     12  N   UNL     1       6.556  -0.332  -0.391  1.00  0.00    -0.291 N 
ATOM     13  H   UNL     1       6.594  -1.363  -0.404  1.00  0.00     0.173 HD
BRANCH  12  14
ATOM     14  C   UNL     1       7.784   0.375  -0.605  1.00  0.00     0.044 A 
ATOM     15  C   UNL     1       7.845   1.742  -0.965  1.00  0.00     0.026 A 
ATOM     16  C   UNL     1       8.992  -0.330  -0.450  1.00  0.00     0.026 A 
ATOM     17  C   UNL     1       9.080   2.372  -1.146  1.00  0.00     0.002 A 
ATOM     18  C   UNL     1      10.222   0.310  -0.618  1.00  0.00     0.002 A 
ATOM     19  C   UNL     1      10.267   1.661  -0.965  1.00  0.00     0.000 A 
ENDBRANCH  12  14
ENDBRANCH   9  10
ENDBRANCH   1   9
BRANCH   8  20
ATOM     20  N   UNL     1      -1.508  -0.391   0.798  1.00  0.00    -0.346 N 
ATOM     21  H   UNL     1      -1.595   0.483   1.337  1.00  0.00     0.164 HD
BRANCH  20  22
ATOM     22  C   UNL     1      -2.686  -0.937   0.222  1.00  0.00     0.223 A 
ATOM     23  N   UNL     1      -2.645  -2.118  -0.451  1.00  0.00    -0.222 NA
ATOM     24  N   UNL     1      -3.865  -0.272   0.337  1.00  0.00    -0.213 NA
ATOM     25  C   UNL     1      -3.763  -2.645  -1.008  1.00  0.00     0.117 A 
ATOM     26  C   UNL     1      -5.022  -0.750  -0.205  1.00  0.00     0.076 A 
ATOM     27  C   UNL     1      -4.978  -1.973  -0.901  1.00  0.00     0.049 A 
BRANCH  26  28
ATOM     28  C   UNL     1      -6.280   0.047  -0.044  1.00  0.00     0.004 A 
ATOM     29  C   UNL     1      -6.235   1.300   0.634  1.00  0.00     0.014 A 
ATOM     30  C   UNL     1      -7.530  -0.403  -0.550  1.00  0.00     0.061 A 
ATOM     31  C   UNL     1      -7.396   2.077   0.802  1.00  0.00     0.051 A 
ATOM     32  C   UNL     1      -8.649   0.401  -0.356  1.00  0.00     0.166 A 
ATOM     33  C   UNL     1      -8.585   1.582   0.286  1.00  0.00     0.165 A 
ATOM     34  O   UNL     1      -9.908   0.175  -0.741  1.00  0.00    -0.454 OA
ATOM     35  O   UNL     1      -9.802   2.131   0.323  1.00  0.00    -0.454 OA
ATOM     36  C   UNL     1     -10.675   1.260  -0.325  1.00  0.00     0.468 C 
ENDBRANCH  26  28
ENDBRANCH  20  22
ENDBRANCH   8  20
TORSDOF 6
