REMARK SMILES CCCCC[C@@H]1CCCCCCCCCC(=O)O[C@H]2[C@H](O)[C@@H](C)O[C@@H](O[C@H]3[C@H](O1)O[C@H](C)[C@@H](O)[C@@H]3O)[C@@H]2O[C@@H]1O[C@@H](C)[C@H](O[C@@H]2O[C@H](C)[C@H](OC(=O)C(C)C)[C@H](O)[C@H]2O)[C@@H](O)[C@H]1OC(=O)[C@@H](C)CC
REMARK SMILES IDX 19 1 20 2 22 3 23 4 24 5 25 6 37 7 26 8 27 9 28 10 30 11
REMARK SMILES IDX 35 12 31 13 33 14 32 15 29 16 6 17 5 18 4 19 3 20 2 21 1 22
REMARK SMILES IDX 7 23 8 24 9 25 10 26 11 27 36 29 34 31 38 33 39 34 40 35
REMARK SMILES IDX 62 36 41 37 60 38 43 39 42 40 63 41 64 42 65 43 66 44 67 45
REMARK SMILES IDX 68 46 69 47 61 48 44 50 45 51 46 52 58 53 47 54 56 55 49 56
REMARK SMILES IDX 48 57 59 58 57 60 50 62 51 63 52 64 53 65 54 66 55 67 18 68
REMARK SMILES IDX 16 69 17 70 15 71 14 72 13 73 12 74 21 76
REMARK H PARENT 36 30 34 32 61 49 59 59 57 61 21 77
REMARK Flexibility Score:  135.900
ROOT
ATOM      1  C   UNL     1      -1.046  -3.216   0.157  1.00  0.00     0.242 C 
ATOM      2  C   UNL     1      -1.386  -4.010  -1.114  1.00  0.00     0.187 C 
ATOM      3  C   UNL     1      -2.379  -3.224  -2.022  1.00  0.00     0.151 C 
ATOM      4  C   UNL     1      -3.839  -3.219  -1.537  1.00  0.00     0.042 C 
ATOM      5  O   UNL     1      -1.909  -1.914  -2.336  1.00  0.00    -0.344 OA
ATOM      6  C   UNL     1      -1.559  -1.123  -1.200  1.00  0.00     0.284 C 
ATOM      7  C   UNL     1      -0.555  -1.814  -0.238  1.00  0.00     0.221 C 
ENDROOT
BRANCH   6   8
ATOM      8  O   UNL     1      -2.704  -0.722  -0.462  1.00  0.00    -0.338 OA
BRANCH   8   9
ATOM      9  C   UNL     1      -3.303   0.501  -0.886  1.00  0.00     0.209 C 
ATOM     10  C   UNL     1      -4.637   0.639  -0.081  1.00  0.00     0.282 C 
ATOM     11  O   UNL     1      -4.462   0.823   1.333  1.00  0.00    -0.344 OA
ATOM     12  C   UNL     1      -2.431   1.756  -0.568  1.00  0.00     0.180 C 
ATOM     13  C   UNL     1      -3.114   0.943   1.783  1.00  0.00     0.150 C 
ATOM     14  C   UNL     1      -2.328   2.004   0.968  1.00  0.00     0.174 C 
ATOM     15  C   UNL     1      -3.121   1.314   3.267  1.00  0.00     0.041 C 
BRANCH  10  16
ATOM     16  O   UNL     1      -5.410   1.736  -0.553  1.00  0.00    -0.347 OA
BRANCH  16  17
ATOM     17  C   UNL     1      -6.352   1.398  -1.566  1.00  0.00     0.121 C 
BRANCH  17  18
ATOM     18  C   UNL     1      -6.137   2.336  -2.782  1.00  0.00     0.032 C 
BRANCH  18  19
ATOM     19  C   UNL     1      -6.180   3.870  -2.577  1.00  0.00     0.003 C 
BRANCH  19  20
ATOM     20  C   UNL     1      -7.572   4.491  -2.368  1.00  0.00    -0.000 C 
BRANCH  20  21
ATOM     21  C   UNL     1      -7.485   6.022  -2.344  1.00  0.00    -0.003 C 
ATOM     22  C   UNL     1      -8.857   6.648  -2.106  1.00  0.00     0.004 C 
ENDBRANCH  20  21
ENDBRANCH  19  20
ENDBRANCH  18  19
ENDBRANCH  17  18
BRANCH  17  23
ATOM     23  C   UNL     1      -7.792   1.446  -0.998  1.00  0.00     0.032 C 
BRANCH  23  24
ATOM     24  C   UNL     1      -8.120   0.341   0.017  1.00  0.00     0.003 C 
BRANCH  24  25
ATOM     25  C   UNL     1      -8.215  -1.052  -0.636  1.00  0.00     0.000 C 
BRANCH  25  26
ATOM     26  C   UNL     1      -8.640  -2.199   0.306  1.00  0.00     0.000 C 
BRANCH  26  27
ATOM     27  C   UNL     1      -7.516  -2.821   1.157  1.00  0.00     0.000 CG0
ATOM     28  G   UNL     1      -7.000  -1.965   2.325  1.00  0.00     0.000 G0
ENDBRANCH  26  27
ENDBRANCH  25  26
ENDBRANCH  24  25
ENDBRANCH  23  24
ENDBRANCH  17  23
ENDBRANCH  16  17
ENDBRANCH  10  16
BRANCH  12  29
ATOM     29  O   UNL     1      -2.916   2.889  -1.254  1.00  0.00    -0.387 OA
ATOM     30  H   UNL     1      -3.628   3.323  -0.723  1.00  0.00     0.211 HD
ENDBRANCH  12  29
BRANCH  14  31
ATOM     31  O   UNL     1      -0.984   2.076   1.376  1.00  0.00    -0.388 OA
ATOM     32  H   UNL     1      -0.573   1.190   1.196  1.00  0.00     0.211 HD
ENDBRANCH  14  31
ENDBRANCH   8   9
ENDBRANCH   6   8
BRANCH   7  33
ATOM     33  O   UNL     1       0.733  -1.918  -0.848  1.00  0.00    -0.336 OA
BRANCH  33  34
ATOM     34  C   UNL     1       1.667  -0.963  -0.349  1.00  0.00     0.295 C 
ATOM     35  O   UNL     1       1.799   0.112  -1.291  1.00  0.00    -0.343 OA
ATOM     36  C   UNL     1       3.002  -1.675   0.006  1.00  0.00     0.264 C 
ATOM     37  C   UNL     1       3.114   0.277  -1.813  1.00  0.00     0.150 C 
ATOM     38  C   UNL     1       4.030  -0.607   0.418  1.00  0.00     0.192 C 
ATOM     39  C   UNL     1       4.153   0.500  -0.673  1.00  0.00     0.183 C 
ATOM     40  C   UNL     1       3.119   1.452  -2.791  1.00  0.00     0.041 C 
BRANCH  36  41
ATOM     41  O   UNL     1       2.850  -2.601   1.029  1.00  0.00    -0.454 OA
BRANCH  41  42
ATOM     42  C   UNL     1       3.263  -3.899   0.967  1.00  0.00     0.309 C 
ATOM     43  O   UNL     1       3.765  -4.351  -0.054  1.00  0.00    -0.252 OA
BRANCH  42  44
ATOM     44  C   UNL     1       3.153  -4.793   2.178  1.00  0.00     0.096 C 
ATOM     45  C   UNL     1       3.960  -4.186   3.335  1.00  0.00     0.020 C 
BRANCH  44  46
ATOM     46  C   UNL     1       1.670  -4.992   2.535  1.00  0.00     0.011 C 
ATOM     47  C   UNL     1       1.441  -6.007   3.656  1.00  0.00     0.005 C 
ENDBRANCH  44  46
ENDBRANCH  42  44
ENDBRANCH  41  42
ENDBRANCH  36  41
BRANCH  38  48
ATOM     48  O   UNL     1       3.728  -0.062   1.685  1.00  0.00    -0.386 OA
ATOM     49  H   UNL     1       2.977   0.580   1.595  1.00  0.00     0.211 HD
ENDBRANCH  38  48
BRANCH  39  50
ATOM     50  O   UNL     1       5.466   0.463  -1.222  1.00  0.00    -0.341 OA
BRANCH  50  51
ATOM     51  C   UNL     1       6.201   1.660  -1.019  1.00  0.00     0.282 C 
ATOM     52  O   UNL     1       6.998   1.890  -2.187  1.00  0.00    -0.343 OA
ATOM     53  C   UNL     1       6.976   1.601   0.339  1.00  0.00     0.203 C 
ATOM     54  C   UNL     1       8.404   1.849  -2.000  1.00  0.00     0.162 C 
ATOM     55  C   UNL     1       7.961   2.772   0.387  1.00  0.00     0.191 C 
ATOM     56  C   UNL     1       8.884   2.794  -0.860  1.00  0.00     0.236 C 
ATOM     57  C   UNL     1       8.921   0.393  -1.965  1.00  0.00     0.043 C 
BRANCH  53  58
ATOM     58  O   UNL     1       6.095   1.635   1.435  1.00  0.00    -0.385 OA
ATOM     59  H   UNL     1       5.597   2.493   1.400  1.00  0.00     0.211 HD
ENDBRANCH  53  58
BRANCH  55  60
ATOM     60  O   UNL     1       8.683   2.827   1.592  1.00  0.00    -0.386 OA
ATOM     61  H   UNL     1       9.127   1.946   1.712  1.00  0.00     0.211 HD
ENDBRANCH  55  60
BRANCH  56  62
ATOM     62  O   UNL     1      10.204   2.509  -0.534  1.00  0.00    -0.457 OA
BRANCH  62  63
ATOM     63  C   UNL     1      11.263   3.344  -0.718  1.00  0.00     0.308 C 
ATOM     64  O   UNL     1      11.110   4.435  -1.253  1.00  0.00    -0.252 OA
BRANCH  63  65
ATOM     65  C   UNL     1      12.636   2.898  -0.265  1.00  0.00     0.093 C 
ATOM     66  C   UNL     1      13.725   3.925  -0.617  1.00  0.00     0.019 C 
ATOM     67  C   UNL     1      12.628   2.642   1.245  1.00  0.00     0.019 C 
ENDBRANCH  63  65
ENDBRANCH  62  63
ENDBRANCH  56  62
ENDBRANCH  50  51
ENDBRANCH  39  50
ENDBRANCH  33  34
ENDBRANCH   7  33
BRANCH   1  68
ATOM     68  O   UNL     1      -2.159  -3.126   0.985  1.00  0.00    -0.456 OA
BRANCH  68  69
ATOM     69  C   UNL     1      -2.218  -3.562   2.280  1.00  0.00     0.306 C 
ATOM     70  O   UNL     1      -1.243  -4.059   2.818  1.00  0.00    -0.252 OA
BRANCH  69  71
ATOM     71  C   UNL     1      -3.476  -3.428   3.093  1.00  0.00     0.123 C 
BRANCH  71  72
ATOM     72  C   UNL     1      -4.619  -2.837   2.280  1.00  0.00     0.012 C 
BRANCH  72  73
ATOM     73  C   UNL     1      -5.889  -2.657   3.125  1.00  0.00     0.001 C 
BRANCH  73  74
ATOM     74  C   UNL     1      -7.000  -1.965   2.325  1.00  0.00     0.000 CG0
ATOM     75  G   UNL     1      -7.516  -2.821   1.157  1.00  0.00     0.000 G0
ENDBRANCH  73  74
ENDBRANCH  72  73
ENDBRANCH  71  72
ENDBRANCH  69  71
ENDBRANCH  68  69
ENDBRANCH   1  68
BRANCH   2  76
ATOM     76  O   UNL     1      -0.199  -4.328  -1.809  1.00  0.00    -0.386 OA
ATOM     77  H   UNL     1      -0.010  -3.630  -2.489  1.00  0.00     0.211 HD
ENDBRANCH   2  76
TORSDOF 21
