REMARK SMILES CC(C)C[C]CC[C]CCCCCCCC(=O)OC[C@H](COC(=O)CCCCCCCCCCCC[C]CC[C]CCCCC(C)C)OC(=O)CCCCCCCCCC(C)C
REMARK SMILES IDX 25 1 26 2 27 3 28 4 29 5 30 6 31 7 32 8 33 9 34 10 35 11
REMARK SMILES IDX 36 12 37 13 38 14 39 15 40 16 41 17 42 18 43 19 44 20 45 21
REMARK SMILES IDX 46 22 47 23 23 24 24 25 22 26 21 27 20 28 19 29 18 30 16 31
REMARK SMILES IDX 17 32 15 33 14 34 13 35 12 36 11 37 10 38 9 39 8 40 7 41
REMARK SMILES IDX 6 42 5 43 4 44 2 45 1 46 3 47 48 48 49 49 50 50 51 51 52 52
REMARK SMILES IDX 53 53 54 54 55 55 56 56 57 57 58 58 59 59 60 60 61 61 62 62
REMARK H PARENT
ROOT
ATOM      1  C   UNL     1       0.962   1.627  -0.314  1.00  0.00     0.123 C 
ENDROOT
BRANCH   1   2
ATOM      2  C   UNL     1       2.619   1.728  -0.077  1.00  0.00     0.012 C 
BRANCH   2   3
ATOM      3  C   UNL     1       3.554   3.115  -0.257  1.00  0.00     0.001 C 
BRANCH   3   4
ATOM      4  C   UNL     1       5.196   3.000   0.000  1.00  0.00     0.000 C 
BRANCH   4   5
ATOM      5  C   UNL     1       6.495   3.750   0.000  1.00  0.00     0.000 C 
BRANCH   5   6
ATOM      6  C   UNL     1       7.794   4.500   0.000  1.00  0.00     0.000 C 
BRANCH   6   7
ATOM      7  C   UNL     1       9.093   5.250   0.000  1.00  0.00     0.000 C 
BRANCH   7   8
ATOM      8  C   UNL     1      10.392   6.000   0.000  1.00  0.00     0.000 C 
BRANCH   8   9
ATOM      9  C   UNL     1      11.691   6.750   0.000  1.00  0.00     0.000 C 
BRANCH   9  10
ATOM     10  C   UNL     1      13.336   7.073   0.109  1.00  0.00     0.000 C 
BRANCH  10  11
ATOM     11  C   UNL     1      13.948   8.647  -0.098  1.00  0.00     0.001 C 
BRANCH  11  12
ATOM     12  C   UNL     1      15.588   9.000   0.000  1.00  0.00     0.008 C 
BRANCH  12  13
ATOM     13  C   UNL     1      16.887   9.750   0.000  1.00  0.00    -0.017 C 
BRANCH  13  14
ATOM     14  C   UNL     1      18.186  10.500   0.000  1.00  0.00     0.009 C 
BRANCH  14  15
ATOM     15  C   UNL     1      19.486  11.250   0.000  1.00  0.00     0.009 C 
BRANCH  15  16
ATOM     16  C   UNL     1      20.785  12.000   0.000  1.00  0.00    -0.017 C 
BRANCH  16  17
ATOM     17  C   UNL     1      22.084  12.750   0.000  1.00  0.00     0.008 C 
BRANCH  17  18
ATOM     18  C   UNL     1      23.371  13.405   0.830  1.00  0.00     0.001 C 
BRANCH  18  19
ATOM     19  C   UNL     1      24.580  14.220  -0.018  1.00  0.00     0.000 C 
BRANCH  19  20
ATOM     20  C   UNL     1      25.895  14.929   0.736  1.00  0.00     0.003 C 
BRANCH  20  21
ATOM     21  C   UNL     1      27.280  15.750   0.000  1.00  0.00    -0.017 C 
ATOM     22  C   UNL     1      26.530  17.049   0.000  1.00  0.00     0.007 C 
ATOM     23  C   UNL     1      28.030  14.451   0.000  1.00  0.00     0.007 C 
ENDBRANCH  20  21
ENDBRANCH  19  20
ENDBRANCH  18  19
ENDBRANCH  17  18
ENDBRANCH  16  17
ENDBRANCH  15  16
ENDBRANCH  14  15
ENDBRANCH  13  14
ENDBRANCH  12  13
ENDBRANCH  11  12
ENDBRANCH  10  11
ENDBRANCH   9  10
ENDBRANCH   8   9
ENDBRANCH   7   8
ENDBRANCH   6   7
ENDBRANCH   5   6
ENDBRANCH   4   5
ENDBRANCH   3   4
ENDBRANCH   2   3
ENDBRANCH   1   2
BRANCH   1  24
ATOM     24  C   UNL     1       0.139   0.220  -0.102  1.00  0.00     0.305 C 
ATOM     25  O   UNL     1       0.817  -0.732   0.250  1.00  0.00    -0.252 OA
BRANCH  24  26
ATOM     26  O   UNL     1      -1.280  -0.008  -0.285  1.00  0.00    -0.462 OA
BRANCH  26  27
ATOM     27  C   UNL     1      -1.994  -1.276  -0.064  1.00  0.00     0.281 C 
BRANCH  27  28
ATOM     28  C   UNL     1      -3.639  -1.522  -0.333  1.00  0.00     0.251 C 
BRANCH  28  29
ATOM     29  C   UNL     1      -4.114  -3.098  -0.053  1.00  0.00     0.281 C 
BRANCH  29  30
ATOM     30  O   UNL     1      -5.435  -3.728   0.107  1.00  0.00    -0.462 OA
BRANCH  30  31
ATOM     31  C   UNL     1      -6.598  -4.040  -0.653  1.00  0.00     0.305 C 
ATOM     32  O   UNL     1      -6.884  -3.306  -1.584  1.00  0.00    -0.252 OA
BRANCH  31  33
ATOM     33  C   UNL     1      -7.535  -5.380  -0.480  1.00  0.00     0.123 C 
BRANCH  33  34
ATOM     34  C   UNL     1      -9.093  -5.250   0.000  1.00  0.00     0.012 C 
BRANCH  34  35
ATOM     35  C   UNL     1     -10.392  -6.000   0.000  1.00  0.00     0.001 C 
BRANCH  35  36
ATOM     36  C   UNL     1     -11.691  -6.750   0.000  1.00  0.00     0.000 C 
BRANCH  36  37
ATOM     37  C   UNL     1     -13.323  -7.097  -0.197  1.00  0.00     0.000 C 
BRANCH  37  38
ATOM     38  C   UNL     1     -13.962  -8.624   0.195  1.00  0.00     0.001 C 
BRANCH  38  39
ATOM     39  C   UNL     1     -15.588  -9.000   0.000  1.00  0.00     0.008 C 
BRANCH  39  40
ATOM     40  C   UNL     1     -16.887  -9.750   0.000  1.00  0.00    -0.017 C 
BRANCH  40  41
ATOM     41  C   UNL     1     -18.186 -10.500   0.000  1.00  0.00     0.009 C 
BRANCH  41  42
ATOM     42  C   UNL     1     -19.486 -11.250   0.000  1.00  0.00     0.009 C 
BRANCH  42  43
ATOM     43  C   UNL     1     -20.785 -12.000   0.000  1.00  0.00    -0.017 C 
BRANCH  43  44
ATOM     44  C   UNL     1     -22.084 -12.750   0.000  1.00  0.00     0.011 C 
BRANCH  44  45
ATOM     45  C   UNL     1     -23.383 -13.500   0.000  1.00  0.00    -0.017 C 
ATOM     46  C   UNL     1     -24.682 -14.250   0.000  1.00  0.00     0.007 C 
ATOM     47  C   UNL     1     -24.133 -12.201   0.000  1.00  0.00     0.007 C 
ENDBRANCH  44  45
ENDBRANCH  43  44
ENDBRANCH  42  43
ENDBRANCH  41  42
ENDBRANCH  40  41
ENDBRANCH  39  40
ENDBRANCH  38  39
ENDBRANCH  37  38
ENDBRANCH  36  37
ENDBRANCH  35  36
ENDBRANCH  34  35
ENDBRANCH  33  34
ENDBRANCH  31  33
ENDBRANCH  30  31
ENDBRANCH  29  30
ENDBRANCH  28  29
BRANCH  28  48
ATOM     48  O   UNL     1      -4.397  -0.632   0.431  1.00  0.00    -0.455 OA
BRANCH  48  49
ATOM     49  C   UNL     1      -5.730  -0.373   0.221  1.00  0.00     0.306 C 
ATOM     50  O   UNL     1      -6.310  -0.863  -0.734  1.00  0.00    -0.252 OA
BRANCH  49  51
ATOM     51  C   UNL     1      -6.514   0.522   1.158  1.00  0.00     0.123 C 
BRANCH  51  52
ATOM     52  C   UNL     1      -7.170   1.737   0.441  1.00  0.00     0.012 C 
BRANCH  52  53
ATOM     53  C   UNL     1      -7.830   2.697   1.462  1.00  0.00     0.001 C 
BRANCH  53  54
ATOM     54  C   UNL     1      -8.133   4.122   0.930  1.00  0.00     0.000 C 
BRANCH  54  55
ATOM     55  C   UNL     1      -9.555   4.603   0.427  1.00  0.00     0.000 C 
BRANCH  55  56
ATOM     56  C   UNL     1      -9.348   6.093   0.000  1.00  0.00     0.000 C 
BRANCH  56  57
ATOM     57  C   UNL     1     -10.098   7.392   0.000  1.00  0.00     0.000 C 
BRANCH  57  58
ATOM     58  C   UNL     1     -10.848   8.691   0.000  1.00  0.00     0.000 C 
BRANCH  58  59
ATOM     59  C   UNL     1     -12.169   9.652  -0.511  1.00  0.00     0.003 C 
BRANCH  59  60
ATOM     60  C   UNL     1     -12.348  11.289   0.000  1.00  0.00    -0.017 C 
ATOM     61  C   UNL     1     -13.098  12.588   0.000  1.00  0.00     0.007 C 
ATOM     62  C   UNL     1     -11.049  12.039   0.000  1.00  0.00     0.007 C 
ENDBRANCH  59  60
ENDBRANCH  58  59
ENDBRANCH  57  58
ENDBRANCH  56  57
ENDBRANCH  55  56
ENDBRANCH  54  55
ENDBRANCH  53  54
ENDBRANCH  52  53
ENDBRANCH  51  52
ENDBRANCH  49  51
ENDBRANCH  48  49
ENDBRANCH  28  48
ENDBRANCH  27  28
ENDBRANCH  26  27
ENDBRANCH  24  26
ENDBRANCH   1  24
TORSDOF 52
