REMARK SMILES CC(=O)C1=CC[C@H]2[C@H]3CC[C@H]4C[C@@H](OC(=O)CCN5CCCCC5)CC[C@]4(C)[C@@H]3CC[C@]12C
REMARK SMILES IDX 15 1 16 2 14 3 13 4 4 5 5 6 32 7 6 8 31 9 7 10 30 11 8 12
REMARK SMILES IDX 29 13 9 14 27 15 10 16 26 17 11 18 25 19 12 20 33 21 28 22
REMARK SMILES IDX 2 23 3 24 1 25 17 26 18 27 19 28 20 29 24 30 21 31 23 32
REMARK SMILES IDX 22 33
REMARK H PARENT
ROOT
ATOM      1  C   UNL     1       3.632   1.453  -1.438  1.00  0.00     0.307 C 
ATOM      2  O   UNL     1       3.118   2.385  -2.042  1.00  0.00    -0.252 OA
ENDROOT
BRANCH   1   3
ATOM      3  O   UNL     1       2.861   0.512  -0.821  1.00  0.00    -0.462 OA
BRANCH   3   4
ATOM      4  C   UNL     1       1.474   0.526  -0.798  1.00  0.00     0.176 C 
ATOM      5  C   UNL     1      -6.987   0.448  -0.287  1.00  0.00    -0.003 C 
ATOM      6  C   UNL     1      -6.900   1.783  -0.451  1.00  0.00    -0.019 C 
ATOM      7  C   UNL     1      -5.643  -0.105   0.167  1.00  0.00    -0.001 C 
ATOM      8  C   UNL     1      -5.521   2.304  -0.180  1.00  0.00     0.032 C 
ATOM      9  C   UNL     1      -5.138  -1.434  -0.512  1.00  0.00     0.012 C 
ATOM     10  C   UNL     1      -4.739   1.015  -0.326  1.00  0.00     0.007 C 
ATOM     11  C   UNL     1      -3.602  -1.455  -0.864  1.00  0.00     0.005 C 
ATOM     12  C   UNL     1      -3.252   0.901   0.078  1.00  0.00    -0.003 C 
ATOM     13  C   UNL     1      -2.775  -0.577   0.103  1.00  0.00    -0.001 C 
ATOM     14  C   UNL     1      -2.797   1.579   1.413  1.00  0.00     0.004 C 
ATOM     15  C   UNL     1      -1.190  -0.639   0.001  1.00  0.00    -0.026 C 
ATOM     16  C   UNL     1      -1.350   1.143   1.845  1.00  0.00     0.004 C 
ATOM     17  C   UNL     1      -0.648  -0.737  -1.456  1.00  0.00     0.011 C 
ATOM     18  C   UNL     1      -0.574   0.704   0.594  1.00  0.00    -0.001 C 
ATOM     19  C   UNL     1       0.906  -0.725  -1.498  1.00  0.00     0.046 C 
ATOM     20  C   UNL     1       0.961   0.650   0.660  1.00  0.00     0.049 C 
ATOM     21  C   UNL     1      -5.705  -0.226   1.716  1.00  0.00     0.017 C 
ATOM     22  C   UNL     1      -0.760  -1.916   0.792  1.00  0.00     0.012 C 
BRANCH   5  23
ATOM     23  C   UNL     1      -8.282  -0.286  -0.406  1.00  0.00     0.156 C 
ATOM     24  O   UNL     1      -9.290   0.332  -0.719  1.00  0.00    -0.295 OA
ATOM     25  C   UNL     1      -8.402  -1.762  -0.161  1.00  0.00     0.093 C 
ENDBRANCH   5  23
ENDBRANCH   3   4
ENDBRANCH   1   3
BRANCH   1  26
ATOM     26  C   UNL     1       5.133   1.388  -1.393  1.00  0.00     0.138 C 
BRANCH  26  27
ATOM     27  C   UNL     1       5.669   0.172  -0.625  1.00  0.00     0.096 C 
BRANCH  27  28
ATOM     28  N   UNL     1       7.147   0.162  -0.653  1.00  0.00    -0.303 NA
ATOM     29  C   UNL     1       7.767   1.161   0.274  1.00  0.00     0.084 C 
ATOM     30  C   UNL     1       7.676  -1.224  -0.522  1.00  0.00     0.084 C 
ATOM     31  C   UNL     1       8.334   0.487   1.524  1.00  0.00     0.016 C 
ATOM     32  C   UNL     1       9.173  -1.187  -0.220  1.00  0.00     0.016 C 
ATOM     33  C   UNL     1       9.431  -0.527   1.148  1.00  0.00     0.003 C 
ENDBRANCH  27  28
ENDBRANCH  26  27
ENDBRANCH   1  26
TORSDOF 6
