REMARK SMILES CCCCCCC=CCCCCCCCCCC(=O)OC[C@H](CO)OC(=O)CCCCCCCCCCCCCCCCCCC
REMARK SMILES IDX 25 1 22 2 21 3 20 4 18 5 19 6 17 7 16 8 15 9 14 10 13 11
REMARK SMILES IDX 12 12 11 13 10 14 9 15 8 16 7 17 6 18 5 19 4 20 3 21 2 22
REMARK SMILES IDX 1 23 23 24 24 25 26 27 27 28 28 29 29 30 30 31 31 32 32 33
REMARK SMILES IDX 33 34 34 35 35 36 36 37 37 38 38 39 39 40 40 41 41 42 42 43
REMARK SMILES IDX 43 44 44 45 45 46 46 47
REMARK H PARENT 24 26
ROOT
ATOM      1  O   UNL     1       0.802   0.445   1.398  1.00  0.00    -0.456 OA
ENDROOT
BRANCH   1   2
ATOM      2  C   UNL     1       1.498  -0.225   0.410  1.00  0.00     0.239 C 
BRANCH   2   3
ATOM      3  C   UNL     1       3.015  -0.144   0.692  1.00  0.00     0.280 C 
BRANCH   3   4
ATOM      4  O   UNL     1       3.514   1.148   0.601  1.00  0.00    -0.462 OA
BRANCH   4   5
ATOM      5  C   UNL     1       3.230   2.182   1.437  1.00  0.00     0.305 C 
ATOM      6  O   UNL     1       2.602   1.994   2.469  1.00  0.00    -0.252 OA
BRANCH   5   7
ATOM      7  C   UNL     1       3.694   3.587   1.135  1.00  0.00     0.123 C 
BRANCH   7   8
ATOM      8  C   UNL     1       4.576   3.745  -0.116  1.00  0.00     0.012 C 
BRANCH   8   9
ATOM      9  C   UNL     1       3.862   3.423  -1.443  1.00  0.00     0.001 C 
BRANCH   9  10
ATOM     10  C   UNL     1       4.738   3.717  -2.680  1.00  0.00     0.000 C 
BRANCH  10  11
ATOM     11  C   UNL     1       6.108   3.010  -2.695  1.00  0.00     0.000 C 
BRANCH  11  12
ATOM     12  C   UNL     1       6.005   1.481  -2.613  1.00  0.00     0.000 C 
BRANCH  12  13
ATOM     13  C   UNL     1       7.402   0.851  -2.553  1.00  0.00     0.000 C 
BRANCH  13  14
ATOM     14  C   UNL     1       7.378  -0.693  -2.473  1.00  0.00     0.004 C 
BRANCH  14  15
ATOM     15  C   UNL     1       6.589  -1.289  -1.285  1.00  0.00     0.027 C 
BRANCH  15  16
ATOM     16  C   UNL     1       7.111  -1.036   0.114  1.00  0.00    -0.031 C 
ATOM     17  C   UNL     1       8.265  -0.423   0.422  1.00  0.00    -0.031 C 
BRANCH  17  18
ATOM     18  C   UNL     1       8.720  -0.265   1.850  1.00  0.00     0.027 C 
BRANCH  18  19
ATOM     19  C   UNL     1      10.061  -0.982   2.059  1.00  0.00     0.004 C 
BRANCH  19  20
ATOM     20  C   UNL     1       9.940  -2.497   1.801  1.00  0.00     0.000 C 
BRANCH  20  21
ATOM     21  C   UNL     1      11.268  -3.252   1.974  1.00  0.00    -0.000 C 
BRANCH  21  22
ATOM     22  C   UNL     1      12.404  -2.796   1.036  1.00  0.00    -0.003 C 
ATOM     23  C   UNL     1      12.051  -2.913  -0.448  1.00  0.00     0.004 C 
ENDBRANCH  21  22
ENDBRANCH  20  21
ENDBRANCH  19  20
ENDBRANCH  18  19
ENDBRANCH  17  18
ENDBRANCH  15  16
ENDBRANCH  14  15
ENDBRANCH  13  14
ENDBRANCH  12  13
ENDBRANCH  11  12
ENDBRANCH  10  11
ENDBRANCH   9  10
ENDBRANCH   8   9
ENDBRANCH   7   8
ENDBRANCH   5   7
ENDBRANCH   4   5
ENDBRANCH   3   4
ENDBRANCH   2   3
BRANCH   2  24
ATOM     24  C   UNL     1       1.148   0.381  -0.957  1.00  0.00     0.205 C 
BRANCH  24  25
ATOM     25  O   UNL     1      -0.228   0.281  -1.200  1.00  0.00    -0.392 OA
ATOM     26  H   UNL     1      -0.415  -0.673  -1.398  1.00  0.00     0.210 HD
ENDBRANCH  24  25
ENDBRANCH   2  24
ENDBRANCH   1   2
BRANCH   1  27
ATOM     27  C   UNL     1      -0.168  -0.072   2.193  1.00  0.00     0.306 C 
ATOM     28  O   UNL     1      -0.606  -1.200   2.007  1.00  0.00    -0.252 OA
BRANCH  27  29
ATOM     29  C   UNL     1      -0.654   0.734   3.361  1.00  0.00     0.123 C 
BRANCH  29  30
ATOM     30  C   UNL     1      -1.012   2.195   3.034  1.00  0.00     0.012 C 
BRANCH  30  31
ATOM     31  C   UNL     1      -2.382   2.539   2.411  1.00  0.00     0.001 C 
BRANCH  31  32
ATOM     32  C   UNL     1      -2.664   2.167   0.944  1.00  0.00     0.000 C 
BRANCH  32  33
ATOM     33  C   UNL     1      -3.136   0.725   0.732  1.00  0.00     0.000 C 
BRANCH  33  34
ATOM     34  C   UNL     1      -3.606   0.506  -0.711  1.00  0.00     0.000 C 
BRANCH  34  35
ATOM     35  C   UNL     1      -4.114  -0.931  -0.908  1.00  0.00     0.000 C 
BRANCH  35  36
ATOM     36  C   UNL     1      -4.645  -1.197  -2.328  1.00  0.00     0.000 C 
BRANCH  36  37
ATOM     37  C   UNL     1      -5.755  -0.263  -2.871  1.00  0.00     0.000 C 
BRANCH  37  38
ATOM     38  C   UNL     1      -7.163  -0.334  -2.233  1.00  0.00     0.000 C 
BRANCH  38  39
ATOM     39  C   UNL     1      -7.263   0.225  -0.806  1.00  0.00    -0.000 C 
BRANCH  39  40
ATOM     40  C   UNL     1      -8.677   0.568  -0.297  1.00  0.00    -0.000 C 
BRANCH  40  41
ATOM     41  C   UNL     1      -9.670  -0.587  -0.074  1.00  0.00    -0.000 C 
BRANCH  41  42
ATOM     42  C   UNL     1     -10.357  -1.103  -1.354  1.00  0.00    -0.000 C 
BRANCH  42  43
ATOM     43  C   UNL     1     -11.404  -2.213  -1.120  1.00  0.00    -0.000 C 
BRANCH  43  44
ATOM     44  C   UNL     1     -12.811  -1.786  -0.630  1.00  0.00    -0.000 C 
BRANCH  44  45
ATOM     45  C   UNL     1     -12.944  -1.154   0.765  1.00  0.00    -0.000 C 
BRANCH  45  46
ATOM     46  C   UNL     1     -12.364  -2.038   1.879  1.00  0.00    -0.003 C 
ATOM     47  C   UNL     1     -12.530  -1.378   3.244  1.00  0.00     0.004 C 
ENDBRANCH  45  46
ENDBRANCH  44  45
ENDBRANCH  43  44
ENDBRANCH  42  43
ENDBRANCH  41  42
ENDBRANCH  40  41
ENDBRANCH  39  40
ENDBRANCH  38  39
ENDBRANCH  37  38
ENDBRANCH  36  37
ENDBRANCH  35  36
ENDBRANCH  34  35
ENDBRANCH  33  34
ENDBRANCH  32  33
ENDBRANCH  31  32
ENDBRANCH  30  31
ENDBRANCH  29  30
ENDBRANCH  27  29
ENDBRANCH   1  27
TORSDOF 40
