REMARK SMILES CO[C@@H]1[C@@H](O)[C@@H](O)[C@@H]2O[C@@]1(C)n1c3ccccc3c3c4c(c5c6ccccc6n2c5c31)C(=O)NC4
REMARK SMILES IDX 3 1 4 2 6 3 8 4 9 5 10 6 11 7 12 8 13 9 14 10 15 11 16 12
REMARK SMILES IDX 17 13 18 14 19 15 20 16 35 17 34 18 32 19 33 20 21 21 22 22
REMARK SMILES IDX 23 23 24 24 25 25 26 26 27 27 28 28 29 29 30 30 31 31 2 33
REMARK SMILES IDX 1 34 5 35 7 37
REMARK H PARENT 34 32 5 36 7 38
ROOT
ATOM      1  C   UNL     1      -2.850   0.293  -0.128  1.00  0.00     0.202 C 
ATOM      2  C   UNL     1      -2.296  -0.592  -1.267  1.00  0.00     0.181 C 
ATOM      3  C   UNL     1      -2.086  -2.002  -0.689  1.00  0.00     0.196 C 
ATOM      4  C   UNL     1      -1.183  -1.992   0.573  1.00  0.00     0.254 C 
ATOM      5  O   UNL     1      -1.564  -1.043   1.543  1.00  0.00    -0.326 OA
ATOM      6  C   UNL     1      -1.865   0.279   1.083  1.00  0.00     0.174 C 
ATOM      7  C   UNL     1      -2.539   0.880   2.343  1.00  0.00     0.071 C 
ATOM      8  N   UNL     1      -0.627   1.051   0.748  1.00  0.00    -0.307 N 
ATOM      9  C   UNL     1      -0.466   2.416   0.644  1.00  0.00     0.052 A 
ATOM     10  C   UNL     1      -1.419   3.448   0.751  1.00  0.00     0.027 A 
ATOM     11  C   UNL     1      -0.994   4.782   0.633  1.00  0.00     0.002 A 
ATOM     12  C   UNL     1       0.358   5.088   0.402  1.00  0.00     0.001 A 
ATOM     13  C   UNL     1       1.300   4.062   0.268  1.00  0.00     0.011 A 
ATOM     14  C   UNL     1       0.859   2.743   0.389  1.00  0.00     0.008 A 
ATOM     15  C   UNL     1       1.538   1.560   0.263  1.00  0.00     0.016 A 
ATOM     16  C   UNL     1       2.878   1.274  -0.039  1.00  0.00    -0.005 A 
ATOM     17  C   UNL     1       4.030   2.203  -0.282  1.00  0.00     0.153 C 
ATOM     18  N   UNL     1       5.118   1.293  -0.560  1.00  0.00    -0.348 N 
ATOM     19  C   UNL     1       4.703   0.012  -0.505  1.00  0.00     0.252 C 
ATOM     20  O   UNL     1       5.443  -0.932  -0.713  1.00  0.00    -0.269 OA
ATOM     21  C   UNL     1       3.286  -0.047  -0.179  1.00  0.00     0.055 A 
ATOM     22  C   UNL     1       2.342  -1.088  -0.036  1.00  0.00     0.023 A 
ATOM     23  C   UNL     1       2.397  -2.468  -0.160  1.00  0.00     0.008 A 
ATOM     24  C   UNL     1       3.439  -3.353  -0.456  1.00  0.00     0.011 A 
ATOM     25  C   UNL     1       3.151  -4.726  -0.523  1.00  0.00     0.001 A 
ATOM     26  C   UNL     1       1.843  -5.194  -0.300  1.00  0.00     0.002 A 
ATOM     27  C   UNL     1       0.806  -4.295  -0.008  1.00  0.00     0.027 A 
ATOM     28  C   UNL     1       1.108  -2.928   0.059  1.00  0.00     0.052 A 
ATOM     29  N   UNL     1       0.255  -1.901   0.312  1.00  0.00    -0.309 N 
ATOM     30  C   UNL     1       1.011  -0.786   0.274  1.00  0.00     0.077 A 
ATOM     31  C   UNL     1       0.606   0.548   0.454  1.00  0.00     0.077 A 
ATOM     32  H   UNL     1       6.082   1.584  -0.778  1.00  0.00     0.164 HD
ENDROOT
BRANCH   1  33
ATOM     33  O   UNL     1      -4.113  -0.217   0.285  1.00  0.00    -0.374 OA
ATOM     34  C   UNL     1      -5.165   0.520  -0.299  1.00  0.00     0.195 C 
ENDBRANCH   1  33
BRANCH   2  35
ATOM     35  O   UNL     1      -1.101  -0.055  -1.772  1.00  0.00    -0.387 OA
ATOM     36  H   UNL     1      -0.936  -0.480  -2.654  1.00  0.00     0.211 HD
ENDBRANCH   2  35
BRANCH   3  37
ATOM     37  O   UNL     1      -1.657  -2.928  -1.656  1.00  0.00    -0.386 OA
ATOM     38  H   UNL     1      -0.754  -2.658  -1.962  1.00  0.00     0.211 HD
ENDBRANCH   3  37
TORSDOF 3
