REMARK SMILES O=c1c(O[C@H]2O[C@@H](CO)[C@@H](O[C@H]3O[C@@H](CO)[C@@H](O)[C@@H](O)[C@H]3O)[C@@H](O)[C@@H]2O)c(-c2ccc(O)c(O)c2)oc2cc(O)cc(O)c12
REMARK SMILES IDX 5 1 6 2 7 3 10 4 23 5 25 6 4 7 3 8 1 9 2 10 44 11 27 12
REMARK SMILES IDX 42 13 37 14 36 15 41 16 38 17 39 18 28 19 29 20 35 21 30 22
REMARK SMILES IDX 33 23 31 24 34 25 32 27 43 29 40 31 26 33 8 35 9 36 24 38
REMARK SMILES IDX 11 40 12 41 13 42 21 43 14 44 19 45 17 46 22 47 15 49 16 50
REMARK SMILES IDX 20 52 18 54
REMARK H PARENT 34 26 32 28 43 30 40 32 26 34 9 37 24 39 22 48 16 51 20 53
REMARK H PARENT 18 55
ROOT
ATOM      1  C   UNL     1       0.897   1.237   0.725  1.00  0.00     0.339 C 
ATOM      2  O   UNL     1       0.366   1.070  -0.599  1.00  0.00    -0.332 OA
ATOM      3  C   UNL     1      -0.923   1.623  -0.766  1.00  0.00     0.180 C 
ATOM      4  C   UNL     1      -1.979   0.898   0.131  1.00  0.00     0.184 C 
ATOM      5  C   UNL     1      -1.404   0.624   1.560  1.00  0.00     0.181 C 
ATOM      6  C   UNL     1      -0.182   1.522   1.829  1.00  0.00     0.214 C 
ENDROOT
BRANCH   1   7
ATOM      7  O   UNL     1       1.564   0.064   1.062  1.00  0.00    -0.454 OA
BRANCH   7   8
ATOM      8  C   UNL     1       2.849   0.011   1.500  1.00  0.00     0.214 A 
ATOM      9  O   UNL     1       2.093  -0.384   3.599  1.00  0.00    -0.285 OA
ATOM     10  C   UNL     1       3.057  -0.213   2.871  1.00  0.00     0.239 A 
ATOM     11  C   UNL     1       4.364  -0.233   3.396  1.00  0.00     0.111 A 
ATOM     12  C   UNL     1       3.983   0.195   0.659  1.00  0.00     0.180 A 
ATOM     13  C   UNL     1       4.649  -0.453   4.767  1.00  0.00     0.134 A 
ATOM     14  C   UNL     1       5.429  -0.015   2.500  1.00  0.00     0.146 A 
ATOM     15  O   UNL     1       5.196   0.187   1.211  1.00  0.00    -0.452 OA
ATOM     16  C   UNL     1       5.983  -0.457   5.208  1.00  0.00     0.093 A 
ATOM     17  C   UNL     1       6.751  -0.022   2.956  1.00  0.00     0.094 A 
ATOM     18  C   UNL     1       7.031  -0.244   4.309  1.00  0.00     0.123 A 
BRANCH  12  19
ATOM     19  C   UNL     1       3.949   0.364  -0.826  1.00  0.00     0.025 A 
ATOM     20  C   UNL     1       5.067   0.936  -1.466  1.00  0.00     0.016 A 
ATOM     21  C   UNL     1       2.876  -0.070  -1.629  1.00  0.00     0.062 A 
ATOM     22  C   UNL     1       5.098   1.100  -2.851  1.00  0.00     0.051 A 
ATOM     23  C   UNL     1       2.905   0.089  -3.021  1.00  0.00     0.158 A 
ATOM     24  C   UNL     1       4.019   0.683  -3.636  1.00  0.00     0.157 A 
BRANCH  23  25
ATOM     25  O   UNL     1       1.857  -0.346  -3.752  1.00  0.00    -0.504 OA
ATOM     26  H   UNL     1       1.818  -0.262  -4.715  1.00  0.00     0.293 HD
ENDBRANCH  23  25
BRANCH  24  27
ATOM     27  O   UNL     1       4.051   0.838  -4.977  1.00  0.00    -0.504 OA
ATOM     28  H   UNL     1       4.806   1.239  -5.432  1.00  0.00     0.293 HD
ENDBRANCH  24  27
ENDBRANCH  12  19
BRANCH  13  29
ATOM     29  O   UNL     1       3.655  -0.661   5.657  1.00  0.00    -0.507 OA
ATOM     30  H   UNL     1       3.825  -0.812   6.598  1.00  0.00     0.293 HD
ENDBRANCH  13  29
BRANCH  18  31
ATOM     31  O   UNL     1       8.303  -0.257   4.757  1.00  0.00    -0.508 OA
ATOM     32  H   UNL     1       9.058  -0.120   4.167  1.00  0.00     0.293 HD
ENDBRANCH  18  31
ENDBRANCH   7   8
ENDBRANCH   1   7
BRANCH   6  33
ATOM     33  O   UNL     1      -0.561   2.876   1.803  1.00  0.00    -0.384 OA
ATOM     34  H   UNL     1      -1.113   3.036   2.613  1.00  0.00     0.211 HD
ENDBRANCH   6  33
BRANCH   3  35
ATOM     35  C   UNL     1      -1.313   1.645  -2.257  1.00  0.00     0.191 C 
BRANCH  35  36
ATOM     36  O   UNL     1      -1.407   0.355  -2.799  1.00  0.00    -0.394 OA
ATOM     37  H   UNL     1      -0.489  -0.016  -2.817  1.00  0.00     0.210 HD
ENDBRANCH  35  36
ENDBRANCH   3  35
BRANCH   5  38
ATOM     38  O   UNL     1      -1.046  -0.729   1.748  1.00  0.00    -0.387 OA
ATOM     39  H   UNL     1      -0.572  -1.060   0.943  1.00  0.00     0.211 HD
ENDBRANCH   5  38
BRANCH   4  40
ATOM     40  O   UNL     1      -2.370  -0.334  -0.452  1.00  0.00    -0.341 OA
BRANCH  40  41
ATOM     41  C   UNL     1      -3.765  -0.563  -0.400  1.00  0.00     0.282 C 
ATOM     42  O   UNL     1      -4.358  -0.147  -1.616  1.00  0.00    -0.341 OA
ATOM     43  C   UNL     1      -4.021  -2.084  -0.146  1.00  0.00     0.202 C 
ATOM     44  C   UNL     1      -5.792  -0.158  -1.552  1.00  0.00     0.178 C 
ATOM     45  C   UNL     1      -5.393  -2.544  -0.722  1.00  0.00     0.179 C 
ATOM     46  C   UNL     1      -6.356  -1.342  -0.675  1.00  0.00     0.177 C 
BRANCH  43  47
ATOM     47  O   UNL     1      -2.984  -2.927  -0.592  1.00  0.00    -0.385 OA
ATOM     48  H   UNL     1      -2.671  -2.599  -1.474  1.00  0.00     0.211 HD
ENDBRANCH  43  47
BRANCH  44  49
ATOM     49  C   UNL     1      -6.304  -0.162  -3.007  1.00  0.00     0.191 C 
BRANCH  49  50
ATOM     50  O   UNL     1      -7.696   0.006  -3.040  1.00  0.00    -0.394 OA
ATOM     51  H   UNL     1      -7.991  -0.271  -3.946  1.00  0.00     0.210 HD
ENDBRANCH  49  50
ENDBRANCH  44  49
BRANCH  45  52
ATOM     52  O   UNL     1      -5.293  -3.047  -2.036  1.00  0.00    -0.387 OA
ATOM     53  H   UNL     1      -4.624  -2.519  -2.541  1.00  0.00     0.211 HD
ENDBRANCH  45  52
BRANCH  46  54
ATOM     54  O   UNL     1      -7.687  -1.681  -0.980  1.00  0.00    -0.387 OA
ATOM     55  H   UNL     1      -7.678  -2.269  -1.780  1.00  0.00     0.211 HD
ENDBRANCH  46  54
ENDBRANCH  40  41
ENDBRANCH   4  40
TORSDOF 18
