REMARK SMILES C[C@]12CC[C@H]3[C@@H](CC[C@]4(O)C[C@H](O)CC[C@]34/C=N/Cc3ccncc3)[C@]1(O)CC[C@@H]2C1=CC(=O)OC1
REMARK SMILES IDX 1 1 2 2 3 3 4 4 5 5 6 6 7 7 8 8 9 9 11 10 12 11 14 12 15 13
REMARK SMILES IDX 16 14 26 15 28 16 29 17 30 18 27 19 31 21 32 22 36 23 33 24
REMARK SMILES IDX 35 25 34 26 17 27 18 28 19 29 20 30 21 31 25 32 22 33 24 34
REMARK SMILES IDX 23 35 10 36 13 38
REMARK H PARENT 27 20 10 37 13 39
ROOT
ATOM      1  C   UNL     1       3.268   0.140   1.402  1.00  0.00     0.015 C 
ATOM      2  C   UNL     1       2.791   0.624  -0.021  1.00  0.00     0.003 C 
ATOM      3  C   UNL     1       1.587   1.591   0.163  1.00  0.00     0.010 C 
ATOM      4  C   UNL     1       0.328   0.843   0.694  1.00  0.00     0.006 C 
ATOM      5  C   UNL     1      -0.082  -0.359  -0.226  1.00  0.00     0.009 C 
ATOM      6  C   UNL     1       1.179  -1.305  -0.348  1.00  0.00     0.026 C 
ATOM      7  C   UNL     1       0.793  -2.584  -1.055  1.00  0.00     0.010 C 
ATOM      8  C   UNL     1      -0.162  -3.393  -0.145  1.00  0.00     0.037 C 
ATOM      9  C   UNL     1      -1.088  -2.530   0.813  1.00  0.00     0.078 C 
ATOM     10  C   UNL     1      -2.403  -3.313   1.176  1.00  0.00     0.068 C 
ATOM     11  C   UNL     1      -3.375  -3.506  -0.016  1.00  0.00     0.117 C 
ATOM     12  C   UNL     1      -3.648  -2.146  -0.696  1.00  0.00     0.033 C 
ATOM     13  C   UNL     1      -2.333  -1.433  -1.091  1.00  0.00     0.019 C 
ATOM     14  C   UNL     1      -1.431  -1.138   0.166  1.00  0.00     0.037 C 
ATOM     15  C   UNL     1       2.337  -0.509  -0.997  1.00  0.00     0.074 C 
ATOM     16  C   UNL     1       3.657  -1.232  -1.250  1.00  0.00     0.037 C 
ATOM     17  C   UNL     1       4.631  -0.070  -1.507  1.00  0.00     0.012 C 
ATOM     18  C   UNL     1       4.027   1.185  -0.785  1.00  0.00     0.028 C 
ENDROOT
BRANCH  15  19
ATOM     19  O   UNL     1       1.901   0.051  -2.225  1.00  0.00    -0.389 OA
ATOM     20  H   UNL     1       1.785  -0.688  -2.877  1.00  0.00     0.211 HD
ENDBRANCH  15  19
BRANCH  18  21
ATOM     21  C   UNL     1       5.006   2.042   0.019  1.00  0.00    -0.022 C 
ATOM     22  C   UNL     1       6.289   1.773   0.251  1.00  0.00     0.096 C 
ATOM     23  C   UNL     1       4.652   3.353   0.690  1.00  0.00     0.265 C 
ATOM     24  C   UNL     1       6.786   2.857   1.056  1.00  0.00     0.331 C 
ATOM     25  O   UNL     1       5.827   3.763   1.293  1.00  0.00    -0.458 OA
ATOM     26  O   UNL     1       7.925   2.950   1.483  1.00  0.00    -0.247 OA
ENDBRANCH  18  21
BRANCH  14  27
ATOM     27  C   UNL     1      -2.274  -0.268   1.106  1.00  0.00     0.088 C 
ATOM     28  N   UNL     1      -2.887   0.770   0.654  1.00  0.00    -0.292 NA
BRANCH  28  29
ATOM     29  C   UNL     1      -3.827   1.519   1.451  1.00  0.00     0.177 C 
BRANCH  29  30
ATOM     30  C   UNL     1      -4.606   2.432   0.547  1.00  0.00    -0.024 A 
ATOM     31  C   UNL     1      -5.932   2.124   0.215  1.00  0.00     0.026 A 
ATOM     32  C   UNL     1      -4.014   3.581   0.001  1.00  0.00     0.026 A 
ATOM     33  C   UNL     1      -6.640   2.957  -0.653  1.00  0.00     0.111 A 
ATOM     34  C   UNL     1      -4.765   4.400  -0.852  1.00  0.00     0.111 A 
ATOM     35  N   UNL     1      -6.048   4.070  -1.160  1.00  0.00    -0.265 NA
ENDBRANCH  29  30
ENDBRANCH  28  29
ENDBRANCH  14  27
BRANCH   9  36
ATOM     36  O   UNL     1      -0.380  -2.261   2.006  1.00  0.00    -0.389 OA
ATOM     37  H   UNL     1      -0.233  -3.119   2.482  1.00  0.00     0.211 HD
ENDBRANCH   9  36
BRANCH  11  38
ATOM     38  O   UNL     1      -2.866  -4.455  -0.917  1.00  0.00    -0.393 OA
ATOM     39  H   UNL     1      -3.294  -4.324  -1.802  1.00  0.00     0.210 HD
ENDBRANCH  11  38
TORSDOF 7
