REMARK SMILES C/C=C(\C)C(=O)O[C@@H]1C[C@@H]2C[C@H](OC(=O)[C@H]3[C@H](c4ccccc4)[C@@H](C(=O)O)[C@]3(C)C(=O)O[C@@H]3C[C@@H]4C[C@@H](O)C[C@H]3N4C)C[C@H]1N2C
REMARK SMILES IDX 14 1 15 2 13 3 12 4 8 5 9 6 44 7 10 8 43 9 45 10 11 11 46 12
REMARK SMILES IDX 7 13 5 14 6 15 3 16 2 17 1 18 4 19 16 20 17 21 28 22 24 23
REMARK SMILES IDX 29 24 18 25 19 26 23 27 20 28 22 29 21 30 30 31 31 32 32 33
REMARK SMILES IDX 33 34 34 35 40 36 35 37 39 38 41 39 36 40 37 41 42 42 38 43
REMARK SMILES IDX 25 45 26 46 27 47
REMARK H PARENT 38 44 27 48
ROOT
ATOM      1  C   UNL     1       0.339  -1.980  -0.056  1.00  0.00     0.311 C 
ATOM      2  O   UNL     1       0.735  -3.136  -0.139  1.00  0.00    -0.252 OA
ENDROOT
BRANCH   1   3
ATOM      3  O   UNL     1       1.193  -0.940  -0.292  1.00  0.00    -0.462 OA
BRANCH   3   4
ATOM      4  C   UNL     1       2.548  -1.117  -0.550  1.00  0.00     0.179 C 
ATOM      5  C   UNL     1       5.641   0.631  -0.717  1.00  0.00     0.195 C 
ATOM      6  C   UNL     1       4.907   0.675  -2.042  1.00  0.00     0.066 C 
ATOM      7  C   UNL     1       4.997  -0.572  -0.037  1.00  0.00     0.101 C 
ATOM      8  C   UNL     1       4.426  -0.802  -2.240  1.00  0.00     0.064 C 
ATOM      9  C   UNL     1       3.486  -0.301   0.374  1.00  0.00     0.068 C 
ATOM     10  N   UNL     1       5.018  -1.582  -1.129  1.00  0.00    -0.296 NA
ATOM     11  C   UNL     1       2.880  -0.888  -2.045  1.00  0.00     0.064 C 
ATOM     12  C   UNL     1       6.328  -2.177  -1.446  1.00  0.00     0.106 C 
BRANCH   5  13
ATOM     13  O   UNL     1       5.613   1.822  -0.000  1.00  0.00    -0.457 OA
BRANCH  13  14
ATOM     14  C   UNL     1       6.738   2.502   0.381  1.00  0.00     0.333 C 
ATOM     15  O   UNL     1       7.847   2.053   0.119  1.00  0.00    -0.247 OA
BRANCH  14  16
ATOM     16  C   UNL     1       6.632   3.792   1.120  1.00  0.00     0.030 C 
ATOM     17  C   UNL     1       7.764   4.439   1.499  1.00  0.00    -0.020 C 
ATOM     18  C   UNL     1       7.795   5.741   2.246  1.00  0.00     0.036 C 
ATOM     19  C   UNL     1       5.252   4.329   1.417  1.00  0.00     0.052 C 
ENDBRANCH  14  16
ENDBRANCH  13  14
ENDBRANCH   5  13
ENDBRANCH   3   4
ENDBRANCH   1   3
BRANCH   1  20
ATOM     20  C   UNL     1      -1.118  -1.737   0.274  1.00  0.00     0.125 C 
ATOM     21  C   UNL     1      -1.917  -2.998   0.678  1.00  0.00     0.050 C 
ATOM     22  C   UNL     1      -1.521  -1.112   1.636  1.00  0.00     0.093 C 
ATOM     23  C   UNL     1      -2.699  -2.141   1.675  1.00  0.00     0.125 C 
ATOM     24  C   UNL     1      -0.420  -1.339   2.711  1.00  0.00     0.025 C 
BRANCH  21  25
ATOM     25  C   UNL     1      -2.660  -3.731  -0.420  1.00  0.00    -0.043 A 
ATOM     26  C   UNL     1      -2.452  -5.111  -0.593  1.00  0.00     0.004 A 
ATOM     27  C   UNL     1      -3.549  -3.062  -1.285  1.00  0.00     0.004 A 
ATOM     28  C   UNL     1      -3.114  -5.805  -1.611  1.00  0.00     0.000 A 
ATOM     29  C   UNL     1      -4.207  -3.761  -2.301  1.00  0.00     0.000 A 
ATOM     30  C   UNL     1      -3.990  -5.131  -2.464  1.00  0.00     0.000 A 
ENDBRANCH  21  25
BRANCH  22  31
ATOM     31  C   UNL     1      -1.994   0.332   1.583  1.00  0.00     0.313 C 
ATOM     32  O   UNL     1      -1.464   1.183   2.285  1.00  0.00    -0.252 OA
BRANCH  31  33
ATOM     33  O   UNL     1      -3.079   0.641   0.821  1.00  0.00    -0.460 OA
BRANCH  33  34
ATOM     34  C   UNL     1      -3.764   1.844   0.833  1.00  0.00     0.195 C 
ATOM     35  C   UNL     1      -5.171   1.664   1.396  1.00  0.00     0.066 C 
ATOM     36  C   UNL     1      -3.986   2.450  -0.589  1.00  0.00     0.100 C 
ATOM     37  C   UNL     1      -6.072   1.968   0.204  1.00  0.00     0.063 C 
ATOM     38  C   UNL     1      -3.996   1.374  -1.730  1.00  0.00     0.054 C 
ATOM     39  N   UNL     1      -5.343   3.031  -0.539  1.00  0.00    -0.296 NA
ATOM     40  C   UNL     1      -6.200   0.675  -0.679  1.00  0.00     0.051 C 
ATOM     41  C   UNL     1      -5.422   0.813  -1.995  1.00  0.00     0.117 C 
ATOM     42  C   UNL     1      -5.383   4.356   0.104  1.00  0.00     0.106 C 
BRANCH  41  43
ATOM     43  O   UNL     1      -6.169   1.645  -2.864  1.00  0.00    -0.393 OA
ATOM     44  H   UNL     1      -5.810   2.568  -2.873  1.00  0.00     0.210 HD
ENDBRANCH  41  43
ENDBRANCH  33  34
ENDBRANCH  31  33
ENDBRANCH  22  31
BRANCH  23  45
ATOM     45  C   UNL     1      -3.144  -2.813   2.954  1.00  0.00     0.308 C 
ATOM     46  O   UNL     1      -2.764  -2.408   4.042  1.00  0.00    -0.252 OA
BRANCH  45  47
ATOM     47  O   UNL     1      -3.993  -3.861   2.906  1.00  0.00    -0.481 OA
ATOM     48  H   UNL     1      -4.309  -4.218   2.066  1.00  0.00     0.296 HD
ENDBRANCH  45  47
ENDBRANCH  23  45
ENDBRANCH   1  20
TORSDOF 13
