REMARK SMILES CC(=O)O[C@@H](C)[C@@H](/C=C/[C@@H]1O[C@H]1[C@H]1CC=CC(=O)O1)OC(C)=O
REMARK SMILES IDX 5 1 6 2 4 3 2 4 3 5 1 6 7 7 8 8 9 9 10 10 11 11 12 12 13 13
REMARK SMILES IDX 14 14 19 15 15 16 17 17 16 18 18 19 20 20 21 21 23 22 22 23
REMARK H PARENT
ROOT
ATOM      1  C   UNL     1      -3.037  -0.127  -1.061  1.00  0.00     0.218 C 
ATOM      2  C   UNL     1      -2.801  -0.116  -2.578  1.00  0.00     0.057 C 
ENDROOT
BRANCH   1   3
ATOM      3  O   UNL     1      -2.597   1.063  -0.501  1.00  0.00    -0.459 OA
BRANCH   3   4
ATOM      4  C   UNL     1      -3.387   1.980   0.120  1.00  0.00     0.303 C 
ATOM      5  O   UNL     1      -4.589   1.796   0.253  1.00  0.00    -0.253 OA
ATOM      6  C   UNL     1      -2.772   3.239   0.639  1.00  0.00     0.139 C 
ENDBRANCH   3   4
ENDBRANCH   1   3
BRANCH   1   7
ATOM      7  C   UNL     1      -2.386  -1.347  -0.364  1.00  0.00     0.240 C 
BRANCH   7   8
ATOM      8  C   UNL     1      -0.873  -1.485  -0.429  1.00  0.00     0.020 C 
ATOM      9  C   UNL     1      -0.001  -0.547  -0.839  1.00  0.00     0.007 C 
BRANCH   9  10
ATOM     10  C   UNL     1       1.469  -0.839  -0.903  1.00  0.00     0.174 C 
ATOM     11  O   UNL     1       1.983  -1.390   0.274  1.00  0.00    -0.361 OA
ATOM     12  C   UNL     1       2.296  -0.031   0.043  1.00  0.00     0.193 C 
BRANCH  12  13
ATOM     13  C   UNL     1       3.800   0.080  -0.252  1.00  0.00     0.212 C 
ATOM     14  C   UNL     1       4.232   1.554  -0.328  1.00  0.00     0.076 C 
ATOM     15  O   UNL     1       4.539  -0.561   0.733  1.00  0.00    -0.456 OA
ATOM     16  C   UNL     1       5.731   1.627  -0.516  1.00  0.00    -0.016 C 
ATOM     17  C   UNL     1       5.891  -0.421   0.780  1.00  0.00     0.330 C 
ATOM     18  C   UNL     1       6.524   0.699   0.047  1.00  0.00     0.089 C 
ATOM     19  O   UNL     1       6.570  -1.212   1.414  1.00  0.00    -0.247 OA
ENDBRANCH  12  13
ENDBRANCH   9  10
ENDBRANCH   7   8
BRANCH   7  20
ATOM     20  O   UNL     1      -2.761  -1.346   0.969  1.00  0.00    -0.454 OA
BRANCH  20  21
ATOM     21  C   UNL     1      -3.540  -2.276   1.582  1.00  0.00     0.303 C 
ATOM     22  O   UNL     1      -3.963  -3.248   0.974  1.00  0.00    -0.253 OA
ATOM     23  C   UNL     1      -3.893  -2.102   3.025  1.00  0.00     0.139 C 
ENDBRANCH  20  21
ENDBRANCH   7  20
ENDBRANCH   1   7
TORSDOF 8
