REMARK SMILES CNCC[C@]1(C)C(=O)[C@H]2c3cc[nH]c3[C@H]3CC[C@@]2(C3)[C@@]2(C)[C@H]3[C@H](O)[C@@H]4Cn5cc(Cc6cc(C7CCCCC7)cc(C7CCOCC7)c6)c6[nH]cc(c65)CC[C@@](C)(C[C@@H](O)[C@H]5OC5(C)C)C5=C4[C@](C)(CC5=O)[C@@]3(C)CC3(CCCC3)[C@H]21
REMARK SMILES IDX 27 1 28 2 29 3 49 4 53 5 52 6 51 7 50 8 26 10 25 11 5 12
REMARK SMILES IDX 7 13 81 14 8 15 9 16 76 17 20 18 10 19 18 20 75 21 77 22
REMARK SMILES IDX 80 23 22 24 14 25 11 26 17 27 19 28 73 29 78 30 79 31 23 32
REMARK SMILES IDX 13 33 15 34 12 35 16 36 68 37 67 38 70 39 66 40 71 41 72 42
REMARK SMILES IDX 6 43 21 44 74 45 69 47 4 49 3 50 2 51 1 52 24 54 30 56 31 57
REMARK SMILES IDX 32 58 48 59 33 60 41 61 40 62 34 63 35 64 39 65 36 66 38 67
REMARK SMILES IDX 37 68 42 69 43 70 47 71 44 72 46 73 45 74 54 75 55 76 56 77
REMARK SMILES IDX 57 78 58 80 59 81 60 82 61 84 62 85 63 86 64 87 65 88
REMARK H PARENT 50 9 13 46 2 53 24 55 60 83
REMARK Flexibility Score:  127.900
ROOT
ATOM      1  N   UNL     1       1.111   0.925  -1.758  1.00  0.00    -0.345 N 
ATOM      2  C   UNL     1       1.319  -0.381  -2.134  1.00  0.00     0.092 A 
ATOM      3  C   UNL     1       2.700  -0.644  -2.280  1.00  0.00    -0.002 A 
ATOM      4  C   UNL     1       3.293   0.553  -1.979  1.00  0.00     0.067 A 
ATOM      5  C   UNL     1       2.364   1.434  -1.675  1.00  0.00     0.070 A 
ATOM      6  C   UNL     1       2.994   2.615  -1.359  1.00  0.00    -0.006 A 
ATOM      7  C   UNL     1       4.358   2.352  -1.519  1.00  0.00     0.088 A 
ATOM      8  N   UNL     1       4.535   1.063  -1.914  1.00  0.00    -0.359 N 
ATOM      9  H   UNL     1       5.441   0.586  -2.106  1.00  0.00     0.166 HD
ENDROOT
BRANCH   1  10
ATOM     10  C   UNL     1      -0.204   1.622  -1.663  1.00  0.00     0.133 C 
BRANCH  10  11
ATOM     11  C   UNL     1      -1.154   1.366  -0.414  1.00  0.00     0.065 C 
ATOM     12  C   UNL     1      -5.356  -3.319   1.327  1.00  0.00     0.032 C 
ATOM     13  C   UNL     1      -5.895  -3.008  -0.064  1.00  0.00     0.147 C 
ATOM     14  C   UNL     1      -4.326  -2.100   1.726  1.00  0.00     0.015 C 
ATOM     15  O   UNL     1      -7.096  -2.887  -0.273  1.00  0.00    -0.298 OA
ATOM     16  C   UNL     1      -4.915  -2.869  -1.195  1.00  0.00     0.095 C 
ATOM     17  C   UNL     1      -4.937  -0.780   2.509  1.00  0.00    -0.025 C 
ATOM     18  C   UNL     1      -3.215  -1.755   0.529  1.00  0.00    -0.016 C 
ATOM     19  C   UNL     1      -5.567  -2.808  -2.555  1.00  0.00    -0.016 A 
ATOM     20  C   UNL     1      -3.939  -1.624  -0.939  1.00  0.00    -0.009 C 
ATOM     21  C   UNL     1      -3.724   0.081   3.027  1.00  0.00     0.015 C 
ATOM     22  C   UNL     1      -5.726  -1.080   3.847  1.00  0.00     0.007 C 
ATOM     23  C   UNL     1      -6.070   0.010   1.814  1.00  0.00     0.007 C 
ATOM     24  C   UNL     1      -2.193  -0.560   1.077  1.00  0.00     0.032 C 
ATOM     25  C   UNL     1      -5.133  -1.960  -3.526  1.00  0.00     0.022 A 
ATOM     26  C   UNL     1      -6.575  -3.574  -3.108  1.00  0.00     0.024 A 
ATOM     27  C   UNL     1      -4.758  -0.343  -1.101  1.00  0.00     0.009 C 
ATOM     28  C   UNL     1      -3.035  -1.559  -2.221  1.00  0.00     0.018 C 
ATOM     29  C   UNL     1      -2.568   0.582   2.128  1.00  0.00    -0.017 C 
ATOM     30  C   UNL     1      -6.434   0.220   4.229  1.00  0.00     0.001 C 
ATOM     31  C   UNL     1      -6.711   0.902   2.890  1.00  0.00     0.001 C 
ATOM     32  C   UNL     1      -0.986  -0.086   0.173  1.00  0.00     0.127 C 
ATOM     33  N   UNL     1      -5.831  -2.137  -4.660  1.00  0.00    -0.365 N 
ATOM     34  C   UNL     1      -4.004  -1.002  -3.292  1.00  0.00     0.037 C 
ATOM     35  C   UNL     1      -6.723  -3.119  -4.409  1.00  0.00     0.083 A 
ATOM     36  C   UNL     1      -4.532   0.193  -2.526  1.00  0.00     0.010 C 
ATOM     37  C   UNL     1      -2.724   2.101   1.550  1.00  0.00     0.003 C 
ATOM     38  C   UNL     1      -1.447   2.429   0.747  1.00  0.00    -0.049 C 
ATOM     39  C   UNL     1      -2.801   3.162   2.702  1.00  0.00     0.092 C 
ATOM     40  C   UNL     1      -0.887   3.619   1.222  1.00  0.00     0.001 CG0
ATOM     41  C   UNL     1      -1.698   4.070   2.376  1.00  0.00     0.160 C 
ATOM     42  O   UNL     1      -1.502   5.079   3.031  1.00  0.00    -0.294 OA
ATOM     43  C   UNL     1      -6.583  -3.558   2.255  1.00  0.00     0.020 C 
ATOM     44  C   UNL     1      -2.224  -2.984   0.338  1.00  0.00     0.013 C 
ATOM     45  C   UNL     1      -1.323   0.666   3.144  1.00  0.00     0.013 C 
ATOM     46  H   UNL     1      -5.708  -1.622  -5.560  1.00  0.00     0.166 HD
ATOM     47  C   UNL     1      -3.899   2.563   0.625  1.00  0.00     0.017 C 
ATOM     48  G   UNL     1       0.330   4.464   0.713  1.00  0.00     0.000 G0
BRANCH  12  49
ATOM     49  C   UNL     1      -4.689  -4.764   1.299  1.00  0.00     0.030 C 
BRANCH  49  50
ATOM     50  C   UNL     1      -4.039  -5.264   2.618  1.00  0.00     0.081 C 
BRANCH  50  51
ATOM     51  N   UNL     1      -3.352  -6.556   2.455  1.00  0.00    -0.320 NA
ATOM     52  C   UNL     1      -4.252  -7.670   2.155  1.00  0.00     0.101 C 
ATOM     53  H   UNL     1      -2.616  -6.487   1.713  1.00  0.00     0.122 HD
ENDBRANCH  50  51
ENDBRANCH  49  50
ENDBRANCH  12  49
BRANCH  32  54
ATOM     54  O   UNL     1       0.219  -0.252   0.893  1.00  0.00    -0.392 OA
ATOM     55  H   UNL     1       0.796   0.542   0.800  1.00  0.00     0.210 HD
ENDBRANCH  32  54
ENDBRANCH  10  11
ENDBRANCH   1  10
BRANCH   3  56
ATOM     56  C   UNL     1       3.379  -1.909  -2.735  1.00  0.00     0.074 C 
BRANCH  56  57
ATOM     57  C   UNL     1       4.668  -2.125  -1.974  1.00  0.00    -0.043 A 
ATOM     58  C   UNL     1       4.659  -2.363  -0.590  1.00  0.00     0.008 A 
ATOM     59  C   UNL     1       5.896  -2.022  -2.651  1.00  0.00     0.008 A 
ATOM     60  C   UNL     1       5.864  -2.459   0.141  1.00  0.00    -0.044 A 
ATOM     61  C   UNL     1       7.103  -2.106  -1.946  1.00  0.00    -0.044 A 
ATOM     62  C   UNL     1       7.069  -2.311  -0.562  1.00  0.00     0.008 A 
BRANCH  60  63
ATOM     63  C   UNL     1       5.800  -2.672   1.661  1.00  0.00     0.019 C 
ATOM     64  C   UNL     1       6.142  -1.392   2.459  1.00  0.00     0.008 C 
ATOM     65  C   UNL     1       6.606  -3.875   2.228  1.00  0.00     0.008 C 
ATOM     66  C   UNL     1       7.650  -1.110   2.519  1.00  0.00     0.001 C 
ATOM     67  C   UNL     1       8.123  -3.614   2.374  1.00  0.00     0.001 C 
ATOM     68  C   UNL     1       8.379  -2.308   3.152  1.00  0.00     0.000 C 
ENDBRANCH  60  63
BRANCH  61  69
ATOM     69  C   UNL     1       8.437  -1.951  -2.659  1.00  0.00     0.024 C 
ATOM     70  C   UNL     1       9.213  -0.734  -2.117  1.00  0.00     0.037 C 
ATOM     71  C   UNL     1       9.307  -3.211  -2.497  1.00  0.00     0.037 C 
ATOM     72  C   UNL     1      10.592  -0.672  -2.787  1.00  0.00     0.160 C 
ATOM     73  C   UNL     1      10.680  -2.965  -3.139  1.00  0.00     0.160 C 
ATOM     74  O   UNL     1      11.325  -1.858  -2.531  1.00  0.00    -0.381 OA
ENDBRANCH  61  69
ENDBRANCH  56  57
ENDBRANCH   3  56
BRANCH   6  75
ATOM     75  C   UNL     1       2.331   3.862  -0.903  1.00  0.00     0.040 C 
BRANCH  75  76
ATOM     76  C   UNL     1       1.480   3.497   0.331  1.00  0.00     0.016 C 
BRANCH  76  77
ATOM     77  C   UNL     1       0.330   4.464   0.713  1.00  0.00    -0.001 CG0
ATOM     78  C   UNL     1       0.985   5.368   1.802  1.00  0.00     0.017 C 
ATOM     79  G   UNL     1      -0.887   3.619   1.222  1.00  0.00     0.000 G0
BRANCH  77  80
ATOM     80  C   UNL     1      -0.148   5.359  -0.491  1.00  0.00     0.046 C 
BRANCH  80  81
ATOM     81  C   UNL     1      -1.328   6.353  -0.287  1.00  0.00     0.147 C 
BRANCH  81  82
ATOM     82  O   UNL     1      -1.119   7.255   0.763  1.00  0.00    -0.390 OA
ATOM     83  H   UNL     1      -0.179   7.564   0.704  1.00  0.00     0.211 HD
ENDBRANCH  81  82
BRANCH  81  84
ATOM     84  C   UNL     1      -1.592   7.064  -1.643  1.00  0.00     0.179 C 
ATOM     85  O   UNL     1      -2.474   8.176  -1.575  1.00  0.00    -0.364 OA
ATOM     86  C   UNL     1      -1.150   8.453  -1.976  1.00  0.00     0.092 C 
ATOM     87  C   UNL     1      -0.976   8.730  -3.471  1.00  0.00     0.045 C 
ATOM     88  C   UNL     1      -0.465   9.445  -1.025  1.00  0.00     0.045 C 
ENDBRANCH  81  84
ENDBRANCH  80  81
ENDBRANCH  77  80
ENDBRANCH  76  77
ENDBRANCH  75  76
ENDBRANCH   6  75
TORSDOF 12
