REMARK SMILES CC1(C)CC[C@]2(C(=O)O[C@@H]3O[C@H](CO[C@@H]4O[C@H](CO)[C@@H](O)[C@H](O)[C@H]4O[C@@H]4O[C@H](CO)[C@@H](O)[C@H](O)[C@H]4O)[C@@H](O)[C@H](O)[C@H]3O)CC[C@]3(C)C(=CC[C@@H]4[C@@]5(C)CC[C@H](O[C@@H]6OC[C@@H](O)[C@H](O)[C@H]6O)[C@](C)(C(=O)O)[C@@H]5CC[C@]43C)[C@@H]2C1
REMARK SMILES IDX 10 1 11 2 12 3 37 4 39 5 41 6 9 7 7 8 8 9 6 10 2 11 4 12
REMARK SMILES IDX 77 13 5 14 76 15 47 16 43 17 45 18 48 19 44 20 74 21 49 22
REMARK SMILES IDX 73 23 50 24 72 25 51 26 71 27 53 28 66 29 54 30 55 31 1 32
REMARK SMILES IDX 3 33 46 34 75 35 52 36 67 37 68 38 69 39 70 40 56 42 57 43
REMARK SMILES IDX 58 44 64 45 59 46 62 47 60 48 65 49 63 51 61 53 42 55 13 57
REMARK SMILES IDX 14 58 15 59 16 60 24 61 17 62 22 63 20 64 25 65 26 66 27 67
REMARK SMILES IDX 35 68 28 69 33 70 31 71 36 72 29 74 30 75 34 77 32 79 18 81
REMARK SMILES IDX 19 82 23 84 21 86 40 88 38 90
REMARK H PARENT 70 41 65 50 63 52 61 54 42 56 36 73 30 76 34 78 32 80 19 83
REMARK H PARENT 23 85 21 87 40 89 38 91
ROOT
ATOM      1  C   UNL     1      -3.655   1.508  -0.931  1.00  0.00     0.342 C 
ATOM      2  O   UNL     1      -4.414   0.371  -0.566  1.00  0.00    -0.332 OA
ATOM      3  C   UNL     1      -5.622   0.790   0.092  1.00  0.00     0.180 C 
ATOM      4  C   UNL     1      -6.382   1.917  -0.740  1.00  0.00     0.177 C 
ATOM      5  C   UNL     1      -5.826   1.997  -2.178  1.00  0.00     0.180 C 
ATOM      6  C   UNL     1      -4.279   2.173  -2.179  1.00  0.00     0.214 C 
ENDROOT
BRANCH   1   7
ATOM      7  O   UNL     1      -2.336   1.159  -1.191  1.00  0.00    -0.432 OA
BRANCH   7   8
ATOM      8  C   UNL     1      -1.273   1.608  -0.472  1.00  0.00     0.315 C 
ATOM      9  O   UNL     1      -1.476   2.080   0.639  1.00  0.00    -0.252 OA
BRANCH   8  10
ATOM     10  C   UNL     1       0.169   1.582  -1.046  1.00  0.00     0.075 C 
ATOM     11  C   UNL     1       0.068   0.019  -3.698  1.00  0.00    -0.035 C 
ATOM     12  C   UNL     1      -0.489   1.462  -3.575  1.00  0.00     0.007 C 
ATOM     13  C   UNL     1      -0.058  -0.678  -2.315  1.00  0.00     0.015 C 
ATOM     14  C   UNL     1       0.197   2.267  -2.456  1.00  0.00     0.020 C 
ATOM     15  C   UNL     1       0.676   0.076  -1.158  1.00  0.00     0.033 C 
ATOM     16  C   UNL     1       2.217  -0.141  -1.033  1.00  0.00    -0.063 C 
ATOM     17  C   UNL     1       1.082   2.462  -0.104  1.00  0.00     0.020 C 
ATOM     18  C   UNL     1       3.029   0.788  -0.129  1.00  0.00    -0.006 C 
ATOM     19  C   UNL     1       2.825  -1.271  -1.506  1.00  0.00    -0.027 C 
ATOM     20  C   UNL     1       2.053   1.650   0.744  1.00  0.00     0.013 C 
ATOM     21  C   UNL     1       4.030  -0.082   0.799  1.00  0.00    -0.020 C 
ATOM     22  C   UNL     1       4.238  -1.739  -1.153  1.00  0.00     0.032 C 
ATOM     23  C   UNL     1       4.838   0.849   1.748  1.00  0.00     0.008 C 
ATOM     24  C   UNL     1       5.034  -0.828  -0.173  1.00  0.00     0.006 C 
ATOM     25  C   UNL     1       6.030   0.166   2.421  1.00  0.00     0.006 C 
ATOM     26  C   UNL     1       6.374  -1.450   0.446  1.00  0.00    -0.025 C 
ATOM     27  C   UNL     1       7.034  -0.325   1.343  1.00  0.00     0.015 C 
ATOM     28  C   UNL     1       7.371  -1.761  -0.722  1.00  0.00     0.010 C 
ATOM     29  C   UNL     1       8.500  -0.633   1.865  1.00  0.00     0.095 C 
ATOM     30  C   UNL     1       8.797  -2.110  -0.244  1.00  0.00     0.034 C 
ATOM     31  C   UNL     1       9.384  -0.963   0.605  1.00  0.00     0.139 C 
ATOM     32  C   UNL     1       1.525   0.024  -4.219  1.00  0.00     0.011 C 
ATOM     33  C   UNL     1      -0.789  -0.750  -4.727  1.00  0.00     0.011 C 
ATOM     34  C   UNL     1       3.801   1.758  -1.109  1.00  0.00     0.017 C 
ATOM     35  C   UNL     1       3.206  -1.073   1.689  1.00  0.00     0.012 C 
ATOM     36  C   UNL     1       6.125  -2.785   1.216  1.00  0.00     0.012 C 
ATOM     37  C   UNL     1       9.107   0.642   2.508  1.00  0.00     0.027 C 
BRANCH  29  38
ATOM     38  C   UNL     1       8.560  -1.745   2.929  1.00  0.00     0.312 C 
ATOM     39  O   UNL     1       9.209  -2.760   2.730  1.00  0.00    -0.252 OA
BRANCH  38  40
ATOM     40  O   UNL     1       7.963  -1.610   4.135  1.00  0.00    -0.481 OA
ATOM     41  H   UNL     1       7.508  -0.808   4.418  1.00  0.00     0.296 HD
ENDBRANCH  38  40
ENDBRANCH  29  38
BRANCH  31  42
ATOM     42  O   UNL     1      10.711  -1.294   1.014  1.00  0.00    -0.345 OA
BRANCH  42  43
ATOM     43  C   UNL     1      11.704  -0.448   0.446  1.00  0.00     0.281 C 
ATOM     44  O   UNL     1      12.081  -0.984  -0.817  1.00  0.00    -0.347 OA
ATOM     45  C   UNL     1      12.923  -0.422   1.401  1.00  0.00     0.202 C 
ATOM     46  C   UNL     1      13.055  -0.165  -1.446  1.00  0.00     0.198 C 
ATOM     47  C   UNL     1      14.056   0.416   0.775  1.00  0.00     0.179 C 
ATOM     48  C   UNL     1      14.360  -0.129  -0.628  1.00  0.00     0.171 C 
BRANCH  45  49
ATOM     49  O   UNL     1      12.578   0.078   2.669  1.00  0.00    -0.385 OA
ATOM     50  H   UNL     1      12.366   1.044   2.564  1.00  0.00     0.211 HD
ENDBRANCH  45  49
BRANCH  47  51
ATOM     51  O   UNL     1      15.203   0.422   1.586  1.00  0.00    -0.387 OA
ATOM     52  H   UNL     1      15.485  -0.521   1.716  1.00  0.00     0.211 HD
ENDBRANCH  47  51
BRANCH  48  53
ATOM     53  O   UNL     1      15.344   0.640  -1.272  1.00  0.00    -0.388 OA
ATOM     54  H   UNL     1      14.997   1.566  -1.356  1.00  0.00     0.211 HD
ENDBRANCH  48  53
ENDBRANCH  42  43
ENDBRANCH  31  42
ENDBRANCH   8  10
ENDBRANCH   7   8
ENDBRANCH   1   7
BRANCH   6  55
ATOM     55  O   UNL     1      -3.885   3.522  -2.254  1.00  0.00    -0.384 OA
ATOM     56  H   UNL     1      -4.340   4.017  -1.526  1.00  0.00     0.211 HD
ENDBRANCH   6  55
BRANCH   3  57
ATOM     57  C   UNL     1      -6.501  -0.463   0.351  1.00  0.00     0.198 C 
BRANCH  57  58
ATOM     58  O   UNL     1      -7.185  -0.460   1.599  1.00  0.00    -0.347 OA
BRANCH  58  59
ATOM     59  C   UNL     1      -8.175   0.539   1.739  1.00  0.00     0.282 C 
ATOM     60  O   UNL     1      -7.708   1.549   2.613  1.00  0.00    -0.341 OA
ATOM     61  C   UNL     1      -9.478  -0.105   2.280  1.00  0.00     0.209 C 
ATOM     62  C   UNL     1      -8.566   2.699   2.620  1.00  0.00     0.178 C 
ATOM     63  C   UNL     1     -10.366   0.961   3.002  1.00  0.00     0.180 C 
ATOM     64  C   UNL     1     -10.091   2.355   2.409  1.00  0.00     0.177 C 
BRANCH  61  65
ATOM     65  O   UNL     1     -10.195  -0.610   1.161  1.00  0.00    -0.338 OA
BRANCH  65  66
ATOM     66  C   UNL     1     -10.280  -2.025   1.102  1.00  0.00     0.282 C 
ATOM     67  O   UNL     1      -9.387  -2.458   0.064  1.00  0.00    -0.341 OA
ATOM     68  C   UNL     1     -11.786  -2.372   0.865  1.00  0.00     0.202 C 
ATOM     69  C   UNL     1      -9.890  -3.557  -0.670  1.00  0.00     0.178 C 
ATOM     70  C   UNL     1     -12.089  -2.206  -0.635  1.00  0.00     0.179 C 
ATOM     71  C   UNL     1     -11.174  -3.162  -1.467  1.00  0.00     0.177 C 
BRANCH  68  72
ATOM     72  O   UNL     1     -12.050  -3.691   1.272  1.00  0.00    -0.385 OA
ATOM     73  H   UNL     1     -13.037  -3.782   1.326  1.00  0.00     0.211 HD
ENDBRANCH  68  72
BRANCH  69  74
ATOM     74  C   UNL     1      -8.801  -4.125  -1.589  1.00  0.00     0.191 C 
BRANCH  74  75
ATOM     75  O   UNL     1      -8.366  -3.157  -2.508  1.00  0.00    -0.394 OA
ATOM     76  H   UNL     1      -8.809  -3.357  -3.374  1.00  0.00     0.210 HD
ENDBRANCH  74  75
ENDBRANCH  69  74
BRANCH  70  77
ATOM     77  O   UNL     1     -11.912  -0.856  -1.008  1.00  0.00    -0.387 OA
ATOM     78  H   UNL     1     -10.956  -0.693  -1.220  1.00  0.00     0.211 HD
ENDBRANCH  70  77
BRANCH  71  79
ATOM     79  O   UNL     1     -11.860  -4.324  -1.864  1.00  0.00    -0.387 OA
ATOM     80  H   UNL     1     -12.205  -4.769  -1.047  1.00  0.00     0.211 HD
ENDBRANCH  71  79
ENDBRANCH  65  66
ENDBRANCH  61  65
BRANCH  62  81
ATOM     81  C   UNL     1      -8.331   3.446   3.950  1.00  0.00     0.191 C 
BRANCH  81  82
ATOM     82  O   UNL     1      -9.076   4.634   3.999  1.00  0.00    -0.394 OA
ATOM     83  H   UNL     1      -8.566   5.315   3.489  1.00  0.00     0.210 HD
ENDBRANCH  81  82
ENDBRANCH  62  81
BRANCH  63  84
ATOM     84  O   UNL     1     -10.155   0.983   4.397  1.00  0.00    -0.387 OA
ATOM     85  H   UNL     1      -9.229   0.690   4.600  1.00  0.00     0.211 HD
ENDBRANCH  63  84
BRANCH  64  86
ATOM     86  O   UNL     1     -10.406   2.320   1.038  1.00  0.00    -0.387 OA
ATOM     87  H   UNL     1     -10.288   3.242   0.690  1.00  0.00     0.211 HD
ENDBRANCH  64  86
ENDBRANCH  58  59
ENDBRANCH  57  58
ENDBRANCH   3  57
BRANCH   5  88
ATOM     88  O   UNL     1      -6.202   0.830  -2.881  1.00  0.00    -0.387 OA
ATOM     89  H   UNL     1      -5.611   0.078  -2.624  1.00  0.00     0.211 HD
ENDBRANCH   5  88
BRANCH   4  90
ATOM     90  O   UNL     1      -6.341   3.182  -0.119  1.00  0.00    -0.387 OA
ATOM     91  H   UNL     1      -5.507   3.279   0.402  1.00  0.00     0.211 HD
ENDBRANCH   4  90
TORSDOF 27
