REMARK SMILES C[C@H]1CCCCN1CCN1C(=O)[C@@H]2[C@H](C(=O)Nc3cc(Cl)cc(Cl)c3)[C@@H]3C=C[C@]2(O3)[C@H]1C(=O)NC1CCCCC1
REMARK SMILES IDX 10 1 11 2 12 3 13 4 14 5 26 6 27 7 28 8 29 9 30 10 31 11
REMARK SMILES IDX 9 12 8 13 7 14 2 15 3 16 4 17 6 18 5 19 1 20 32 21 33 22
REMARK SMILES IDX 34 23 35 25 36 26 40 27 37 28 39 29 38 30 15 31 16 32 17 33
REMARK SMILES IDX 18 35 19 36 25 37 20 38 23 39 22 40 21 41 24 42
REMARK H PARENT 34 24 17 34
ROOT
ATOM      1  N   UNL     1      -4.918  -1.626   0.083  1.00  0.00    -0.326 N 
ATOM      2  C   UNL     1      -4.584  -0.299   0.230  1.00  0.00     0.230 C 
ATOM      3  O   UNL     1      -5.303   0.515   0.790  1.00  0.00    -0.274 OA
ATOM      4  C   UNL     1      -3.100  -0.100  -0.030  1.00  0.00     0.133 C 
ATOM      5  C   UNL     1      -2.067   0.879  -0.659  1.00  0.00     0.127 C 
ATOM      6  C   UNL     1      -1.555   0.055  -1.871  1.00  0.00     0.155 C 
ATOM      7  C   UNL     1      -2.606   0.060  -2.921  1.00  0.00     0.004 C 
ATOM      8  C   UNL     1      -3.569  -0.737  -2.406  1.00  0.00     0.010 C 
ATOM      9  C   UNL     1      -2.986  -1.196  -1.088  1.00  0.00     0.129 C 
ATOM     10  O   UNL     1      -1.618  -1.275  -1.388  1.00  0.00    -0.359 OA
ATOM     11  C   UNL     1      -3.781  -2.342  -0.499  1.00  0.00     0.211 C 
ENDROOT
BRANCH   1  12
ATOM     12  C   UNL     1      -6.127  -2.293   0.607  1.00  0.00     0.136 C 
BRANCH  12  13
ATOM     13  C   UNL     1      -6.973  -3.086  -0.468  1.00  0.00     0.106 C 
BRANCH  13  14
ATOM     14  N   UNL     1      -7.645  -4.351   0.036  1.00  0.00    -0.299 NA
ATOM     15  C   UNL     1      -6.824  -5.637   0.000  1.00  0.00     0.053 C 
ATOM     16  C   UNL     1      -7.229  -6.656   1.109  1.00  0.00     0.019 C 
ATOM     17  C   UNL     1      -8.754  -6.714   1.129  1.00  0.00     0.003 C 
ATOM     18  C   UNL     1      -8.386  -4.166   1.293  1.00  0.00     0.085 C 
ATOM     19  C   UNL     1      -9.349  -5.347   1.542  1.00  0.00     0.016 C 
ATOM     20  C   UNL     1      -5.382  -5.223   0.000  1.00  0.00     0.024 C 
ENDBRANCH  13  14
ENDBRANCH  12  13
ENDBRANCH   1  12
BRANCH  11  21
ATOM     21  C   UNL     1      -2.948  -3.098   0.530  1.00  0.00     0.246 C 
ATOM     22  O   UNL     1      -3.247  -3.072   1.716  1.00  0.00    -0.273 OA
ATOM     23  N   UNL     1      -1.913  -3.869   0.087  1.00  0.00    -0.351 N 
ATOM     24  H   UNL     1      -1.708  -3.880  -0.924  1.00  0.00     0.163 HD
BRANCH  23  25
ATOM     25  C   UNL     1      -1.125  -4.750   0.934  1.00  0.00     0.082 C 
ATOM     26  C   UNL     1      -1.335  -6.206   0.467  1.00  0.00     0.025 C 
ATOM     27  C   UNL     1       0.367  -4.378   0.834  1.00  0.00     0.025 C 
ATOM     28  C   UNL     1      -0.475  -7.176   1.288  1.00  0.00     0.002 C 
ATOM     29  C   UNL     1       1.224  -5.355   1.656  1.00  0.00     0.002 C 
ATOM     30  C   UNL     1       1.006  -6.796   1.173  1.00  0.00     0.000 C 
ENDBRANCH  23  25
ENDBRANCH  11  21
BRANCH   5  31
ATOM     31  C   UNL     1      -2.372   2.337  -0.909  1.00  0.00     0.231 C 
ATOM     32  O   UNL     1      -2.249   2.773  -2.043  1.00  0.00    -0.274 OA
ATOM     33  N   UNL     1      -2.693   3.159   0.132  1.00  0.00    -0.326 N 
ATOM     34  H   UNL     1      -2.864   2.714   1.048  1.00  0.00     0.169 HD
BRANCH  33  35
ATOM     35  C   UNL     1      -2.756   4.595   0.082  1.00  0.00     0.044 A 
ATOM     36  C   UNL     1      -2.145   5.363  -0.941  1.00  0.00     0.046 A 
ATOM     37  C   UNL     1      -3.394   5.279   1.133  1.00  0.00     0.046 A 
ATOM     38  C   UNL     1      -2.190   6.760  -0.909  1.00  0.00     0.044 A 
ATOM     39  C   UNL     1      -3.445   6.678   1.153  1.00  0.00     0.044 A 
ATOM     40  C   UNL     1      -2.843   7.417   0.133  1.00  0.00     0.041 A 
ATOM     41  Cl  UNL     1      -1.402   7.690  -2.174  1.00  0.00    -0.084 Cl
ATOM     42  Cl  UNL     1      -4.257   7.509   2.467  1.00  0.00    -0.084 Cl
ENDBRANCH  33  35
ENDBRANCH   5  31
TORSDOF 7
