REMARK SMILES Cc1ccccc1-c1nc2n(n1)C1(CCCCC1)[C@@H]1CCCC[C@@H]1N2C(=O)C(C)C
REMARK SMILES IDX 8 1 12 2 11 3 10 4 9 5 25 6 24 7 23 8 22 9 21 10 20 11 19 12
REMARK SMILES IDX 13 13 14 14 15 15 16 16 17 17 18 18 7 19 2 20 3 21 4 22 6 23
REMARK SMILES IDX 5 24 1 25 26 26 27 27 28 28 29 29 30 30
REMARK H PARENT
ROOT
ATOM      1  C   UNL     1       2.448  -0.271  -0.683  1.00  0.00     0.183 A 
ATOM      2  N   UNL     1       1.540  -1.234  -0.435  1.00  0.00    -0.149 NA
ATOM      3  N   UNL     1       0.396  -0.623  -0.179  1.00  0.00    -0.224 N 
ATOM      4  C   UNL     1       0.616   0.700  -0.252  1.00  0.00     0.231 A 
ATOM      5  N   UNL     1       1.895   0.958  -0.586  1.00  0.00    -0.191 NA
ATOM      6  N   UNL     1      -0.353   1.696   0.120  1.00  0.00    -0.277 N 
ATOM      7  C   UNL     1      -1.546   1.254   0.879  1.00  0.00     0.099 C 
ATOM      8  C   UNL     1      -2.883   1.579   0.136  1.00  0.00     0.026 C 
ATOM      9  C   UNL     1      -4.091   1.155   0.975  1.00  0.00     0.002 C 
ATOM     10  C   UNL     1      -4.043  -0.340   1.272  1.00  0.00     0.001 C 
ATOM     11  C   UNL     1      -2.772  -0.675   2.059  1.00  0.00     0.008 C 
ATOM     12  C   UNL     1      -1.463  -0.270   1.325  1.00  0.00     0.040 C 
ATOM     13  C   UNL     1      -0.856  -1.266   0.242  1.00  0.00     0.071 C 
ATOM     14  C   UNL     1      -0.506  -2.653   0.933  1.00  0.00     0.031 C 
ATOM     15  C   UNL     1      -0.284  -3.760  -0.107  1.00  0.00     0.003 C 
ATOM     16  C   UNL     1      -1.593  -4.054  -0.875  1.00  0.00     0.000 C 
ATOM     17  C   UNL     1      -2.522  -2.826  -0.967  1.00  0.00     0.003 C 
ATOM     18  C   UNL     1      -1.698  -1.541  -1.062  1.00  0.00     0.031 C 
ENDROOT
BRANCH   1  19
ATOM     19  C   UNL     1       3.902  -0.503  -0.919  1.00  0.00     0.024 A 
ATOM     20  C   UNL     1       4.500  -1.798  -0.933  1.00  0.00    -0.040 A 
ATOM     21  C   UNL     1       5.889  -1.913  -1.130  1.00  0.00     0.004 A 
ATOM     22  C   UNL     1       6.683  -0.781  -1.308  1.00  0.00     0.000 A 
ATOM     23  C   UNL     1       4.730   0.624  -1.104  1.00  0.00     0.012 A 
ATOM     24  C   UNL     1       6.104   0.484  -1.296  1.00  0.00     0.001 A 
ATOM     25  C   UNL     1       3.706  -3.063  -0.733  1.00  0.00     0.045 C 
ENDBRANCH   1  19
BRANCH   6  26
ATOM     26  C   UNL     1      -0.095   3.026  -0.186  1.00  0.00     0.232 C 
ATOM     27  O   UNL     1       0.872   3.309  -0.883  1.00  0.00    -0.274 OA
BRANCH  26  28
ATOM     28  C   UNL     1      -0.933   4.209   0.291  1.00  0.00     0.073 C 
ATOM     29  C   UNL     1      -0.045   5.202   1.053  1.00  0.00     0.018 C 
ATOM     30  C   UNL     1      -1.584   4.911  -0.912  1.00  0.00     0.018 C 
ENDBRANCH  26  28
ENDBRANCH   6  26
TORSDOF 3
