REMARK SMILES C=C[C@](CC[C@@H](C)[C@H]1CC[C@@H]2[C@@H]3CC(=O)C4=CC(=O)CC[C@]4(C)[C@@H]3CC[C@@]21C)(OO)C(C)C
REMARK SMILES IDX 4 1 3 2 2 3 1 4 29 5 30 6 31 8 32 9 33 10 5 11 6 12 7 13
REMARK SMILES IDX 8 14 9 15 27 16 10 17 26 18 11 19 25 20 12 21 24 22 13 23
REMARK SMILES IDX 22 24 14 25 21 26 16 27 15 28 20 29 17 30 18 31 19 32 28 33
REMARK SMILES IDX 23 34
REMARK H PARENT 30 7
ROOT
ATOM      1  C   UNL     1      -4.414   0.930   0.007  1.00  0.00     0.044 C 
ENDROOT
BRANCH   1   2
ATOM      2  C   UNL     1      -5.738   0.109   0.255  1.00  0.00     0.123 C 
BRANCH   2   3
ATOM      3  C   UNL     1      -5.643  -0.615   1.604  1.00  0.00     0.004 C 
ATOM      4  C   UNL     1      -6.509  -0.467   2.615  1.00  0.00     0.007 C 
ENDBRANCH   2   3
BRANCH   2   5
ATOM      5  O   UNL     1      -6.865   0.980   0.210  1.00  0.00    -0.228 OA
BRANCH   5   6
ATOM      6  O   UNL     1      -6.660   1.998   1.030  1.00  0.00    -0.251 OA
ATOM      7  H   UNL     1      -6.594   2.791   0.438  1.00  0.00     0.255 HD
ENDBRANCH   5   6
ENDBRANCH   2   5
BRANCH   2   8
ATOM      8  C   UNL     1      -5.967  -0.983  -0.856  1.00  0.00     0.022 C 
ATOM      9  C   UNL     1      -7.282  -1.758  -0.628  1.00  0.00     0.011 C 
ATOM     10  C   UNL     1      -5.995  -0.388  -2.278  1.00  0.00     0.011 C 
ENDBRANCH   2   8
ENDBRANCH   1   2
BRANCH   1  11
ATOM     11  C   UNL     1      -3.111   0.098  -0.059  1.00  0.00     0.007 C 
BRANCH  11  12
ATOM     12  C   UNL     1      -1.826   0.903  -0.429  1.00  0.00    -0.010 C 
ATOM     13  C   UNL     1      -1.634   2.085   0.540  1.00  0.00     0.008 C 
BRANCH  12  14
ATOM     14  C   UNL     1      -0.584  -0.066  -0.417  1.00  0.00    -0.002 C 
ATOM     15  C   UNL     1      -0.716  -1.284  -1.355  1.00  0.00     0.005 C 
ATOM     16  C   UNL     1       0.852   0.469  -0.779  1.00  0.00    -0.026 C 
ATOM     17  C   UNL     1       0.609  -1.988  -1.129  1.00  0.00     0.005 C 
ATOM     18  C   UNL     1       1.566   1.155   0.416  1.00  0.00     0.007 C 
ATOM     19  C   UNL     1       1.619  -0.845  -1.208  1.00  0.00    -0.001 C 
ATOM     20  C   UNL     1       3.084   1.352   0.212  1.00  0.00     0.005 C 
ATOM     21  C   UNL     1       2.994  -1.120  -0.517  1.00  0.00     0.004 C 
ATOM     22  C   UNL     1       3.819   0.188  -0.541  1.00  0.00     0.003 C 
ATOM     23  C   UNL     1       2.925  -1.774   0.896  1.00  0.00     0.085 C 
ATOM     24  C   UNL     1       5.288  -0.046  -0.029  1.00  0.00    -0.000 C 
ATOM     25  C   UNL     1       4.127  -1.522   1.786  1.00  0.00     0.159 C 
ATOM     26  C   UNL     1       6.105   1.292  -0.123  1.00  0.00     0.020 C 
ATOM     27  C   UNL     1       5.220  -0.570   1.410  1.00  0.00     0.005 C 
ATOM     28  O   UNL     1       4.127  -2.034   2.896  1.00  0.00    -0.295 OA
ATOM     29  C   UNL     1       7.443   1.196   0.612  1.00  0.00     0.081 C 
ATOM     30  C   UNL     1       6.097  -0.144   2.353  1.00  0.00     0.055 C 
ATOM     31  C   UNL     1       7.171   0.823   2.039  1.00  0.00     0.156 C 
ATOM     32  O   UNL     1       7.799   1.351   2.943  1.00  0.00    -0.295 OA
ATOM     33  C   UNL     1       0.809   1.456  -1.982  1.00  0.00     0.012 C 
ATOM     34  C   UNL     1       6.009  -1.134  -0.879  1.00  0.00     0.017 C 
ENDBRANCH  12  14
ENDBRANCH  11  12
ENDBRANCH   1  11
TORSDOF 8
