REMARK SMILES CC1=CC[C@@H](Br)C(C)(C)[C@]12CC[C@]1(C)O[C@@H]1C2
REMARK SMILES IDX 1 1 2 2 3 3 4 4 5 5 6 6 7 7 8 8 9 9 10 10 11 11 12 12 13 13
REMARK SMILES IDX 14 14 15 15 16 16 17 17
REMARK H PARENT
ROOT
ATOM      1  C   UNL     1      -0.132   2.482  -1.455  1.00  0.00     0.040 C 
ATOM      2  C   UNL     1      -0.939   1.456  -0.675  1.00  0.00    -0.070 C 
ATOM      3  C   UNL     1      -2.257   1.722  -0.504  1.00  0.00    -0.026 C 
ATOM      4  C   UNL     1      -3.211   0.865   0.273  1.00  0.00     0.043 C 
ATOM      5  C   UNL     1      -2.507  -0.208   1.105  1.00  0.00     0.067 C 
ATOM      6  Br  UNL     1      -3.886  -1.386   1.838  1.00  0.00    -0.088 Br
ATOM      7  C   UNL     1      -1.383  -0.923   0.289  1.00  0.00    -0.013 C 
ATOM      8  C   UNL     1      -2.020  -1.590  -0.971  1.00  0.00     0.013 C 
ATOM      9  C   UNL     1      -0.790  -2.070   1.157  1.00  0.00     0.013 C 
ATOM     10  C   UNL     1      -0.258   0.170  -0.115  1.00  0.00    -0.000 C 
ATOM     11  C   UNL     1       0.613   0.622   1.119  1.00  0.00     0.015 C 
ATOM     12  C   UNL     1       1.949  -0.128   1.259  1.00  0.00     0.039 C 
ATOM     13  C   UNL     1       2.806   0.032  -0.017  1.00  0.00     0.092 C 
ATOM     14  C   UNL     1       4.282  -0.357   0.026  1.00  0.00     0.045 C 
ATOM     15  O   UNL     1       2.544   1.229  -0.715  1.00  0.00    -0.366 OA
ATOM     16  C   UNL     1       2.138   0.017  -1.337  1.00  0.00     0.151 C 
ATOM     17  C   UNL     1       0.673  -0.450  -1.232  1.00  0.00     0.047 C 
ENDROOT
TORSDOF 0
