REMARK SMILES C[C@@H]1O[C@H](O[C@H]2[C@H](O)[C@@H](OC[C@@H]3O[C@@H](Oc4c(-c5ccc(O)c(O)c5)oc5cc(O)cc(O)c5c4=O)[C@H](O)[C@H](O)[C@H]3O)O[C@H](C)[C@H]2O)[C@H](O)[C@@H](O)[C@H]1O
REMARK SMILES IDX 11 1 10 2 9 3 6 4 7 5 46 6 44 7 43 8 45 9 5 10 4 11 2 12
REMARK SMILES IDX 3 13 52 14 50 15 48 16 1 17 53 18 51 20 49 22 8 24 47 26
REMARK SMILES IDX 12 28 13 29 41 30 14 31 39 32 37 33 42 34 15 36 16 37 17 38
REMARK SMILES IDX 35 39 26 40 34 41 36 42 27 43 32 44 28 45 31 46 29 47 18 48
REMARK SMILES IDX 19 49 25 50 20 51 23 52 21 53 24 54 22 56 33 58 30 60 40 62
REMARK SMILES IDX 38 64
REMARK H PARENT 53 19 51 21 49 23 8 25 47 27 42 35 24 55 22 57 33 59 30 61
REMARK H PARENT 40 63 38 65
ROOT
ATOM      1  C   UNL     1      -0.071   1.213   1.064  1.00  0.00     0.198 C 
ENDROOT
BRANCH   1   2
ATOM      2  O   UNL     1       0.625   0.778  -0.091  1.00  0.00    -0.347 OA
BRANCH   2   3
ATOM      3  C   UNL     1       1.733  -0.050   0.236  1.00  0.00     0.281 C 
ATOM      4  C   UNL     1       4.254  -0.184   0.307  1.00  0.00     0.186 C 
ATOM      5  C   UNL     1       3.045   0.697  -0.073  1.00  0.00     0.202 C 
ATOM      6  C   UNL     1       3.964  -1.674  -0.013  1.00  0.00     0.175 C 
ATOM      7  C   UNL     1       2.796  -1.832  -1.019  1.00  0.00     0.150 C 
ATOM      8  O   UNL     1       1.588  -1.262  -0.509  1.00  0.00    -0.344 OA
ATOM      9  C   UNL     1       2.519  -3.312  -1.293  1.00  0.00     0.041 C 
BRANCH   4  10
ATOM     10  O   UNL     1       5.394   0.303  -0.393  1.00  0.00    -0.341 OA
BRANCH  10  11
ATOM     11  C   UNL     1       6.404   0.755   0.497  1.00  0.00     0.282 C 
ATOM     12  C   UNL     1       8.540  -0.077   1.093  1.00  0.00     0.150 C 
ATOM     13  O   UNL     1       7.182  -0.393   0.871  1.00  0.00    -0.344 OA
ATOM     14  C   UNL     1       9.233   0.373  -0.231  1.00  0.00     0.174 C 
ATOM     15  C   UNL     1       8.272   1.227  -1.106  1.00  0.00     0.179 C 
ATOM     16  C   UNL     1       7.222   1.891  -0.203  1.00  0.00     0.202 C 
ATOM     17  C   UNL     1       9.261  -1.278   1.704  1.00  0.00     0.041 C 
BRANCH  14  18
ATOM     18  O   UNL     1      10.424   1.059   0.079  1.00  0.00    -0.388 OA
ATOM     19  H   UNL     1      10.182   1.870   0.597  1.00  0.00     0.211 HD
ENDBRANCH  14  18
BRANCH  15  20
ATOM     20  O   UNL     1       8.972   2.137  -1.921  1.00  0.00    -0.387 OA
ATOM     21  H   UNL     1       9.241   2.906  -1.355  1.00  0.00     0.211 HD
ENDBRANCH  15  20
BRANCH  16  22
ATOM     22  O   UNL     1       6.378   2.781  -0.892  1.00  0.00    -0.385 OA
ATOM     23  H   UNL     1       6.070   2.332  -1.722  1.00  0.00     0.211 HD
ENDBRANCH  16  22
ENDBRANCH  10  11
ENDBRANCH   4  10
BRANCH   5  24
ATOM     24  O   UNL     1       3.118   1.950   0.559  1.00  0.00    -0.385 OA
ATOM     25  H   UNL     1       3.076   1.794   1.538  1.00  0.00     0.211 HD
ENDBRANCH   5  24
BRANCH   6  26
ATOM     26  O   UNL     1       5.131  -2.362  -0.391  1.00  0.00    -0.388 OA
ATOM     27  H   UNL     1       5.348  -2.084  -1.319  1.00  0.00     0.211 HD
ENDBRANCH   6  26
ENDBRANCH   2   3
ENDBRANCH   1   2
BRANCH   1  28
ATOM     28  C   UNL     1      -0.912   0.088   1.700  1.00  0.00     0.180 C 
ATOM     29  O   UNL     1      -1.804  -0.496   0.737  1.00  0.00    -0.332 OA
ATOM     30  C   UNL     1      -1.584   0.588   3.025  1.00  0.00     0.177 C 
ATOM     31  C   UNL     1      -3.157  -0.164   0.973  1.00  0.00     0.339 C 
ATOM     32  C   UNL     1      -2.573  -0.500   3.458  1.00  0.00     0.180 C 
ATOM     33  C   UNL     1      -3.643  -0.694   2.354  1.00  0.00     0.214 C 
BRANCH  30  34
ATOM     34  O   UNL     1      -0.621   0.848   4.018  1.00  0.00    -0.387 OA
ATOM     35  H   UNL     1      -0.156  -0.005   4.222  1.00  0.00     0.211 HD
ENDBRANCH  30  34
BRANCH  31  36
ATOM     36  O   UNL     1      -3.963  -0.725  -0.002  1.00  0.00    -0.454 OA
BRANCH  36  37
ATOM     37  C   UNL     1      -4.724  -0.021  -0.873  1.00  0.00     0.214 A 
ATOM     38  C   UNL     1      -6.130  -0.205  -0.916  1.00  0.00     0.180 A 
ATOM     39  C   UNL     1      -4.133   0.929  -1.727  1.00  0.00     0.239 A 
ATOM     40  O   UNL     1      -6.850   0.552  -1.742  1.00  0.00    -0.452 OA
ATOM     41  C   UNL     1      -4.941   1.684  -2.601  1.00  0.00     0.111 A 
ATOM     42  O   UNL     1      -2.923   1.085  -1.706  1.00  0.00    -0.285 OA
ATOM     43  C   UNL     1      -6.334   1.457  -2.563  1.00  0.00     0.146 A 
ATOM     44  C   UNL     1      -4.424   2.652  -3.499  1.00  0.00     0.134 A 
ATOM     45  C   UNL     1      -7.191   2.182  -3.396  1.00  0.00     0.094 A 
ATOM     46  C   UNL     1      -5.301   3.368  -4.329  1.00  0.00     0.093 A 
ATOM     47  C   UNL     1      -6.678   3.139  -4.280  1.00  0.00     0.123 A 
BRANCH  38  48
ATOM     48  C   UNL     1      -6.888  -1.170  -0.048  1.00  0.00     0.025 A 
ATOM     49  C   UNL     1      -8.275  -0.976   0.113  1.00  0.00     0.016 A 
ATOM     50  C   UNL     1      -6.295  -2.267   0.618  1.00  0.00     0.062 A 
ATOM     51  C   UNL     1      -9.032  -1.822   0.926  1.00  0.00     0.051 A 
ATOM     52  C   UNL     1      -7.051  -3.119   1.430  1.00  0.00     0.158 A 
ATOM     53  C   UNL     1      -8.427  -2.893   1.592  1.00  0.00     0.157 A 
BRANCH  52  54
ATOM     54  O   UNL     1      -6.435  -4.151   2.046  1.00  0.00    -0.504 OA
ATOM     55  H   UNL     1      -6.902  -4.774   2.619  1.00  0.00     0.293 HD
ENDBRANCH  52  54
BRANCH  53  56
ATOM     56  O   UNL     1      -9.158  -3.706   2.383  1.00  0.00    -0.504 OA
ATOM     57  H   UNL     1     -10.107  -3.574   2.521  1.00  0.00     0.293 HD
ENDBRANCH  53  56
ENDBRANCH  38  48
BRANCH  44  58
ATOM     58  O   UNL     1      -3.097   2.894  -3.567  1.00  0.00    -0.507 OA
ATOM     59  H   UNL     1      -2.720   3.545  -4.176  1.00  0.00     0.293 HD
ENDBRANCH  44  58
BRANCH  47  60
ATOM     60  O   UNL     1      -7.498   3.843  -5.086  1.00  0.00    -0.508 OA
ATOM     61  H   UNL     1      -8.458   3.716  -5.081  1.00  0.00     0.293 HD
ENDBRANCH  47  60
ENDBRANCH  36  37
ENDBRANCH  31  36
BRANCH  32  62
ATOM     62  O   UNL     1      -3.146  -0.277   4.723  1.00  0.00    -0.387 OA
ATOM     63  H   UNL     1      -3.441   0.670   4.758  1.00  0.00     0.211 HD
ENDBRANCH  32  62
BRANCH  33  64
ATOM     64  O   UNL     1      -4.869  -0.086   2.683  1.00  0.00    -0.384 OA
ATOM     65  H   UNL     1      -4.711   0.892   2.752  1.00  0.00     0.211 HD
ENDBRANCH  33  64
ENDBRANCH   1  28
TORSDOF 20
