REMARK SMILES CO[C@@H]1[C@@H](O)[C@@H](O)[C@H](O[C@@H]2[C@@H](O)[C@@H](O)[C@H](O[C@H]3[C@@H](O)[C@@H](O)[C@H](C)O[C@H]3CO)O[C@H]2CO[C@@H]2O[C@H](CO)[C@@H](OC)[C@H](O)[C@H]2O)O[C@H]1CO
REMARK SMILES IDX 29 1 28 2 15 3 13 4 11 5 10 6 30 7 31 8 32 9 37 10 34 11
REMARK SMILES IDX 40 12 33 13 42 14 38 15 39 16 35 17 36 18 41 20 43 22 9 24
REMARK SMILES IDX 8 25 44 26 6 27 45 28 4 29 3 30 7 31 46 33 47 34 5 36 2 38
REMARK SMILES IDX 1 39 16 40 17 41 25 42 18 43 24 44 20 45 22 46 23 47 26 48
REMARK SMILES IDX 27 49 19 51 21 53 12 55 14 57
REMARK H PARENT 36 19 41 21 43 23 7 32 47 35 5 37 27 50 19 52 21 54 12 56
REMARK H PARENT 14 58
ROOT
ATOM      1  C   UNL     1      -0.432   0.738  -0.127  1.00  0.00     0.179 C 
ATOM      2  O   UNL     1      -1.548  -0.058   0.275  1.00  0.00    -0.341 OA
ATOM      3  C   UNL     1      -2.298  -0.573  -0.828  1.00  0.00     0.282 C 
ATOM      4  C   UNL     1      -2.823   0.580  -1.723  1.00  0.00     0.202 C 
ATOM      5  C   UNL     1      -1.672   1.460  -2.229  1.00  0.00     0.180 C 
ATOM      6  C   UNL     1      -0.867   1.935  -1.015  1.00  0.00     0.184 C 
ENDROOT
BRANCH   1   7
ATOM      7  C   UNL     1       0.725  -0.082  -0.740  1.00  0.00     0.198 C 
BRANCH   7   8
ATOM      8  O   UNL     1       1.250  -1.001   0.200  1.00  0.00    -0.347 OA
BRANCH   8   9
ATOM      9  C   UNL     1       2.563  -1.402  -0.177  1.00  0.00     0.282 C 
ATOM     10  C   UNL     1       5.052  -2.779   0.318  1.00  0.00     0.180 C 
ATOM     11  C   UNL     1       3.897  -3.275  -0.595  1.00  0.00     0.178 C 
ATOM     12  C   UNL     1       5.003  -1.240   0.392  1.00  0.00     0.180 C 
ATOM     13  O   UNL     1       2.646  -2.816  -0.097  1.00  0.00    -0.341 OA
ATOM     14  C   UNL     1       3.589  -0.772   0.790  1.00  0.00     0.202 C 
BRANCH  10  15
ATOM     15  O   UNL     1       6.300  -3.175  -0.232  1.00  0.00    -0.376 OA
ATOM     16  C   UNL     1       7.133  -3.739   0.755  1.00  0.00     0.195 C 
ENDBRANCH  10  15
BRANCH  11  17
ATOM     17  C   UNL     1       3.840  -4.809  -0.665  1.00  0.00     0.191 C 
BRANCH  17  18
ATOM     18  O   UNL     1       5.013  -5.346  -1.216  1.00  0.00    -0.394 OA
ATOM     19  H   UNL     1       4.970  -5.179  -2.193  1.00  0.00     0.210 HD
ENDBRANCH  17  18
ENDBRANCH  11  17
BRANCH  12  20
ATOM     20  O   UNL     1       5.974  -0.735   1.274  1.00  0.00    -0.387 OA
ATOM     21  H   UNL     1       5.761  -1.079   2.181  1.00  0.00     0.211 HD
ENDBRANCH  12  20
BRANCH  14  22
ATOM     22  O   UNL     1       3.504   0.632   0.790  1.00  0.00    -0.385 OA
ATOM     23  H   UNL     1       3.737   0.950  -0.121  1.00  0.00     0.211 HD
ENDBRANCH  14  22
ENDBRANCH   8   9
ENDBRANCH   7   8
ENDBRANCH   1   7
BRANCH   6  24
ATOM     24  O   UNL     1      -1.687   2.811  -0.245  1.00  0.00    -0.341 OA
BRANCH  24  25
ATOM     25  C   UNL     1      -1.029   4.035   0.034  1.00  0.00     0.282 C 
ATOM     26  O   UNL     1      -0.086   3.852   1.074  1.00  0.00    -0.341 OA
ATOM     27  C   UNL     1      -2.076   5.110   0.425  1.00  0.00     0.202 C 
ATOM     28  C   UNL     1       0.696   5.024   1.337  1.00  0.00     0.178 C 
ATOM     29  C   UNL     1      -1.393   6.349   1.077  1.00  0.00     0.180 C 
ATOM     30  C   UNL     1       0.114   6.362   0.760  1.00  0.00     0.180 C 
BRANCH  27  31
ATOM     31  O   UNL     1      -2.844   5.454  -0.705  1.00  0.00    -0.385 OA
ATOM     32  H   UNL     1      -2.230   5.835  -1.386  1.00  0.00     0.211 HD
ENDBRANCH  27  31
BRANCH  28  33
ATOM     33  C   UNL     1       2.152   4.786   0.918  1.00  0.00     0.191 C 
BRANCH  33  34
ATOM     34  O   UNL     1       2.256   4.625  -0.472  1.00  0.00    -0.394 OA
ATOM     35  H   UNL     1       2.105   3.662  -0.659  1.00  0.00     0.210 HD
ENDBRANCH  33  34
ENDBRANCH  28  33
BRANCH  29  36
ATOM     36  O   UNL     1      -2.043   7.552   0.749  1.00  0.00    -0.387 OA
ATOM     37  H   UNL     1      -1.763   7.806  -0.169  1.00  0.00     0.211 HD
ENDBRANCH  29  36
BRANCH  30  38
ATOM     38  O   UNL     1       0.737   7.468   1.398  1.00  0.00    -0.376 OA
ATOM     39  C   UNL     1       1.445   8.255   0.463  1.00  0.00     0.195 C 
ENDBRANCH  30  38
ENDBRANCH  24  25
ENDBRANCH   6  24
BRANCH   3  40
ATOM     40  O   UNL     1      -3.448  -1.255  -0.361  1.00  0.00    -0.341 OA
BRANCH  40  41
ATOM     41  C   UNL     1      -3.154  -2.384   0.447  1.00  0.00     0.184 C 
ATOM     42  C   UNL     1      -2.890  -3.678  -0.385  1.00  0.00     0.176 C 
ATOM     43  C   UNL     1      -4.325  -2.588   1.419  1.00  0.00     0.177 C 
ATOM     44  O   UNL     1      -2.655  -4.794   0.472  1.00  0.00    -0.367 OA
ATOM     45  C   UNL     1      -4.023  -3.843   2.272  1.00  0.00     0.174 C 
ATOM     46  C   UNL     1      -3.741  -5.063   1.354  1.00  0.00     0.147 C 
ATOM     47  C   UNL     1      -3.378  -6.289   2.196  1.00  0.00     0.041 C 
BRANCH  42  48
ATOM     48  C   UNL     1      -3.917  -4.024  -1.490  1.00  0.00     0.190 C 
BRANCH  48  49
ATOM     49  O   UNL     1      -3.977  -3.009  -2.455  1.00  0.00    -0.394 OA
ATOM     50  H   UNL     1      -4.787  -2.469  -2.261  1.00  0.00     0.210 HD
ENDBRANCH  48  49
ENDBRANCH  42  48
BRANCH  43  51
ATOM     51  O   UNL     1      -5.537  -2.647   0.694  1.00  0.00    -0.387 OA
ATOM     52  H   UNL     1      -6.035  -3.475   0.903  1.00  0.00     0.211 HD
ENDBRANCH  43  51
BRANCH  45  53
ATOM     53  O   UNL     1      -5.048  -4.078   3.211  1.00  0.00    -0.388 OA
ATOM     54  H   UNL     1      -5.776  -4.587   2.771  1.00  0.00     0.211 HD
ENDBRANCH  45  53
ENDBRANCH  40  41
ENDBRANCH   3  40
BRANCH   5  55
ATOM     55  O   UNL     1      -0.846   0.746  -3.114  1.00  0.00    -0.387 OA
ATOM     56  H   UNL     1      -1.225   0.856  -4.025  1.00  0.00     0.211 HD
ENDBRANCH   5  55
BRANCH   4  57
ATOM     57  O   UNL     1      -3.601   0.099  -2.791  1.00  0.00    -0.385 OA
ATOM     58  H   UNL     1      -3.057  -0.566  -3.288  1.00  0.00     0.211 HD
ENDBRANCH   4  57
TORSDOF 23
