REMARK SMILES C[C@]12CC[C@H](OS(=O)(=O)O)C[C@@H]1CC[C@@H]1[C@@H]2CC[C@]2(C)[C@@H](OS(=O)(=O)O)CC[C@@H]12
REMARK SMILES IDX 1 1 2 2 3 3 4 4 5 5 11 6 12 7 13 8 14 9 15 10 16 11 17 12
REMARK SMILES IDX 18 13 19 14 20 15 21 16 27 17 28 18 29 19 6 20 7 21 8 22
REMARK SMILES IDX 9 23 10 24 22 26 23 27 24 28 25 29 26 30
REMARK H PARENT 10 25 26 31
ROOT
ATOM      1  C   UNL     1      -1.589   1.971  -0.315  1.00  0.00     0.012 C 
ATOM      2  C   UNL     1      -1.510   0.409  -0.398  1.00  0.00    -0.026 C 
ATOM      3  C   UNL     1      -2.183  -0.067  -1.725  1.00  0.00     0.010 C 
ATOM      4  C   UNL     1      -3.689   0.263  -1.772  1.00  0.00     0.034 C 
ATOM      5  C   UNL     1      -4.433  -0.355  -0.580  1.00  0.00     0.142 C 
ATOM      6  C   UNL     1      -3.795   0.063   0.758  1.00  0.00     0.038 C 
ATOM      7  C   UNL     1      -2.288  -0.286   0.779  1.00  0.00    -0.002 C 
ATOM      8  C   UNL     1      -1.661   0.029   2.151  1.00  0.00     0.004 C 
ATOM      9  C   UNL     1      -0.199  -0.431   2.187  1.00  0.00     0.004 C 
ATOM     10  C   UNL     1       0.625   0.251   1.077  1.00  0.00    -0.004 C 
ATOM     11  C   UNL     1      -0.000  -0.071  -0.331  1.00  0.00    -0.001 C 
ATOM     12  C   UNL     1       0.893   0.477  -1.496  1.00  0.00     0.005 C 
ATOM     13  C   UNL     1       2.366   0.030  -1.366  1.00  0.00     0.010 C 
ATOM     14  C   UNL     1       2.943   0.452   0.005  1.00  0.00    -0.002 C 
ATOM     15  C   UNL     1       3.027   2.014   0.103  1.00  0.00     0.014 C 
ATOM     16  C   UNL     1       4.312  -0.166   0.346  1.00  0.00     0.148 C 
ATOM     17  C   UNL     1       4.381  -0.077   1.888  1.00  0.00     0.034 C 
ATOM     18  C   UNL     1       2.913   0.012   2.368  1.00  0.00     0.007 C 
ATOM     19  C   UNL     1       2.095  -0.222   1.100  1.00  0.00     0.001 C 
ENDROOT
BRANCH   5  20
ATOM     20  O   UNL     1      -5.773   0.095  -0.608  1.00  0.00    -0.245 OA
BRANCH  20  21
ATOM     21  S   UNL     1      -6.858  -1.246  -0.515  1.00  0.00     0.397 S 
ATOM     22  O   UNL     1      -8.282  -0.707  -0.311  1.00  0.00    -0.169 OA
ATOM     23  O   UNL     1      -6.931  -1.948  -1.879  1.00  0.00    -0.169 OA
BRANCH  21  24
ATOM     24  O   UNL     1      -6.534  -2.401   0.714  1.00  0.00    -0.264 OA
ATOM     25  H   UNL     1      -6.856  -1.978   1.550  1.00  0.00     0.236 HD
ENDBRANCH  21  24
ENDBRANCH  20  21
ENDBRANCH   5  20
BRANCH  16  26
ATOM     26  O   UNL     1       5.407   0.494  -0.257  1.00  0.00    -0.244 OA
BRANCH  26  27
ATOM     27  S   UNL     1       6.175  -0.539  -1.413  1.00  0.00     0.397 S 
ATOM     28  O   UNL     1       5.449  -0.467  -2.765  1.00  0.00    -0.169 OA
ATOM     29  O   UNL     1       7.556   0.055  -1.725  1.00  0.00    -0.169 OA
BRANCH  27  30
ATOM     30  O   UNL     1       6.418  -2.178  -0.954  1.00  0.00    -0.264 OA
ATOM     31  H   UNL     1       5.640  -2.666  -1.325  1.00  0.00     0.236 HD
ENDBRANCH  27  30
ENDBRANCH  26  27
ENDBRANCH  16  26
TORSDOF 6
