REMARK SMILES COc1cc(O)c(C2=C[C@@H]3c4c(CC(O)=CC(C)=O)ccc(O)c4C(=O)O[C@@H]3C3=C2[C@@H](c2ccc4c(c2)C(=O)c2c(O)cc(C)c(-c5c(O)cc(OC)c(C(C)=O)c5O)c2C4=O)c2cccc(O)c2C3=O)c(O)c1C(C)=O
REMARK SMILES IDX 8 1 9 2 10 3 11 4 12 5 20 6 21 7 22 8 24 9 25 10 26 11 27 12
REMARK SMILES IDX 28 13 29 14 30 15 31 16 63 17 64 18 65 19 66 20 67 21 69 22
REMARK SMILES IDX 70 23 71 24 7 25 3 26 4 27 74 28 5 29 72 30 2 31 1 32 75 33
REMARK SMILES IDX 77 34 76 35 6 36 73 38 32 40 33 41 37 42 34 43 36 44 35 45
REMARK SMILES IDX 38 46 61 47 40 48 39 49 62 50 60 51 41 52 46 53 43 54 44 55
REMARK SMILES IDX 45 56 42 57 47 59 48 60 58 61 50 62 54 63 51 64 49 65 59 67
REMARK SMILES IDX 55 69 57 70 56 71 52 72 53 73 13 74 14 75 16 76 15 77 17 79
REMARK SMILES IDX 19 80 18 81 23 82 68 84
REMARK H PARENT 6 37 73 39 42 58 49 66 59 68 15 78 23 83 68 85
ROOT
ATOM      1  C   UNL     1      -3.140  -1.067   0.826  1.00  0.00    -0.009 C 
ATOM      2  C   UNL     1      -4.252  -0.544   0.257  1.00  0.00    -0.005 C 
ATOM      3  C   UNL     1      -4.630   0.909   0.462  1.00  0.00     0.090 C 
ATOM      4  C   UNL     1      -5.560   1.333  -0.670  1.00  0.00    -0.015 A 
ATOM      5  C   UNL     1      -6.973   1.319  -0.549  1.00  0.00    -0.035 A 
ATOM      6  C   UNL     1      -7.761   1.609  -1.675  1.00  0.00     0.008 A 
ATOM      7  C   UNL     1      -7.170   1.925  -2.896  1.00  0.00     0.047 A 
ATOM      8  C   UNL     1      -5.779   1.969  -3.024  1.00  0.00     0.130 A 
ATOM      9  C   UNL     1      -4.967   1.680  -1.911  1.00  0.00     0.106 A 
ATOM     10  C   UNL     1      -3.479   1.738  -1.971  1.00  0.00     0.342 C 
ATOM     11  O   UNL     1      -2.891   1.885  -3.029  1.00  0.00    -0.246 OA
ATOM     12  O   UNL     1      -2.764   1.621  -0.822  1.00  0.00    -0.453 OA
ATOM     13  C   UNL     1      -3.346   1.735   0.433  1.00  0.00     0.222 C 
ATOM     14  C   UNL     1      -2.366   1.195   1.469  1.00  0.00     0.046 C 
ATOM     15  C   UNL     1      -2.226  -0.160   1.613  1.00  0.00    -0.017 C 
ATOM     16  C   UNL     1      -1.003  -0.682   2.369  1.00  0.00     0.081 C 
ATOM     17  C   UNL     1      -0.702   0.176   3.584  1.00  0.00    -0.021 A 
ATOM     18  C   UNL     1      -0.153  -0.395   4.744  1.00  0.00     0.006 A 
ATOM     19  C   UNL     1       0.279   0.417   5.789  1.00  0.00     0.004 A 
ATOM     20  C   UNL     1       0.178   1.805   5.686  1.00  0.00     0.047 A 
ATOM     21  C   UNL     1      -0.388   2.395   4.545  1.00  0.00     0.127 A 
ATOM     22  C   UNL     1      -0.847   1.576   3.490  1.00  0.00     0.068 A 
ATOM     23  C   UNL     1      -1.549   2.126   2.298  1.00  0.00     0.197 C 
ATOM     24  O   UNL     1      -1.605   3.332   2.102  1.00  0.00    -0.289 OA
ENDROOT
BRANCH   1  25
ATOM     25  C   UNL     1      -2.856  -2.509   0.593  1.00  0.00     0.066 A 
ATOM     26  C   UNL     1      -2.432  -5.264   0.092  1.00  0.00     0.137 A 
ATOM     27  C   UNL     1      -2.598  -4.790   1.408  1.00  0.00     0.094 A 
ATOM     28  C   UNL     1      -2.479  -4.348  -0.976  1.00  0.00     0.102 A 
ATOM     29  C   UNL     1      -2.829  -3.430   1.659  1.00  0.00     0.130 A 
ATOM     30  C   UNL     1      -2.676  -2.979  -0.732  1.00  0.00     0.141 A 
BRANCH  26  31
ATOM     31  O   UNL     1      -2.189  -6.576  -0.175  1.00  0.00    -0.496 OA
ATOM     32  C   UNL     1      -1.944  -7.561   0.762  1.00  0.00     0.278 C 
ENDBRANCH  26  31
BRANCH  28  33
ATOM     33  C   UNL     1      -2.340  -4.801  -2.379  1.00  0.00     0.167 C 
ATOM     34  O   UNL     1      -1.488  -4.303  -3.100  1.00  0.00    -0.294 OA
ATOM     35  C   UNL     1      -3.356  -5.723  -2.981  1.00  0.00     0.094 C 
ENDBRANCH  28  33
BRANCH  29  36
ATOM     36  O   UNL     1      -3.047  -3.012   2.926  1.00  0.00    -0.507 OA
ATOM     37  H   UNL     1      -3.037  -3.618   3.681  1.00  0.00     0.293 HD
ENDBRANCH  29  36
BRANCH  30  38
ATOM     38  O   UNL     1      -2.691  -2.139  -1.795  1.00  0.00    -0.506 OA
ATOM     39  H   UNL     1      -2.769  -1.179  -1.739  1.00  0.00     0.293 HD
ENDBRANCH  30  38
ENDBRANCH   1  25
BRANCH  16  40
ATOM     40  C   UNL     1       0.252  -0.619   1.478  1.00  0.00    -0.035 A 
ATOM     41  C   UNL     1       1.483  -1.050   2.007  1.00  0.00     0.005 A 
ATOM     42  C   UNL     1       0.243  -0.115   0.157  1.00  0.00     0.017 A 
ATOM     43  C   UNL     1       2.660  -0.926   1.276  1.00  0.00     0.013 A 
ATOM     44  C   UNL     1       1.429   0.017  -0.585  1.00  0.00     0.034 A 
ATOM     45  C   UNL     1       2.646  -0.371  -0.013  1.00  0.00     0.034 A 
ATOM     46  C   UNL     1       1.402   0.592  -1.951  1.00  0.00     0.198 C 
ATOM     47  C   UNL     1       3.910  -0.174  -0.753  1.00  0.00     0.195 C 
ATOM     48  C   UNL     1       2.674   0.842  -2.694  1.00  0.00     0.076 A 
ATOM     49  O   UNL     1       0.326   0.893  -2.450  1.00  0.00    -0.288 OA
ATOM     50  O   UNL     1       4.950  -0.543  -0.230  1.00  0.00    -0.289 OA
ATOM     51  C   UNL     1       3.915   0.487  -2.104  1.00  0.00     0.046 A 
ATOM     52  C   UNL     1       2.656   1.450  -3.970  1.00  0.00     0.127 A 
ATOM     53  C   UNL     1       5.127   0.776  -2.799  1.00  0.00     0.004 A 
ATOM     54  C   UNL     1       3.852   1.710  -4.641  1.00  0.00     0.051 A 
ATOM     55  C   UNL     1       5.085   1.391  -4.072  1.00  0.00    -0.039 A 
ATOM     56  C   UNL     1       6.325   1.741  -4.858  1.00  0.00     0.045 C 
BRANCH  52  57
ATOM     57  O   UNL     1       1.487   1.796  -4.553  1.00  0.00    -0.507 OA
ATOM     58  H   UNL     1       1.443   2.220  -5.422  1.00  0.00     0.293 HD
ENDBRANCH  52  57
BRANCH  53  59
ATOM     59  C   UNL     1       6.441   0.484  -2.168  1.00  0.00     0.067 A 
ATOM     60  C   UNL     1       7.086  -0.732  -2.409  1.00  0.00     0.130 A 
ATOM     61  C   UNL     1       7.001   1.439  -1.294  1.00  0.00     0.141 A 
ATOM     62  C   UNL     1       8.287  -1.000  -1.776  1.00  0.00     0.094 A 
ATOM     63  C   UNL     1       8.254   1.180  -0.623  1.00  0.00     0.102 A 
ATOM     64  C   UNL     1       8.882  -0.081  -0.889  1.00  0.00     0.137 A 
BRANCH  60  65
ATOM     65  O   UNL     1       6.566  -1.668  -3.234  1.00  0.00    -0.507 OA
ATOM     66  H   UNL     1       5.728  -1.560  -3.704  1.00  0.00     0.293 HD
ENDBRANCH  60  65
BRANCH  61  67
ATOM     67  O   UNL     1       6.273   2.577  -1.148  1.00  0.00    -0.506 OA
ATOM     68  H   UNL     1       6.453   3.361  -0.627  1.00  0.00     0.293 HD
ENDBRANCH  61  67
BRANCH  63  69
ATOM     69  C   UNL     1       8.867   2.206   0.339  1.00  0.00     0.167 C 
ATOM     70  O   UNL     1       8.274   3.244   0.564  1.00  0.00    -0.294 OA
ATOM     71  C   UNL     1      10.175   2.105   1.095  1.00  0.00     0.094 C 
ENDBRANCH  63  69
BRANCH  64  72
ATOM     72  O   UNL     1      10.049  -0.408  -0.283  1.00  0.00    -0.496 OA
ATOM     73  C   UNL     1      10.753  -1.589  -0.403  1.00  0.00     0.278 C 
ENDBRANCH  64  72
ENDBRANCH  53  59
ENDBRANCH  16  40
BRANCH   5  74
ATOM     74  C   UNL     1      -7.664   0.997   0.760  1.00  0.00     0.110 C 
BRANCH  74  75
ATOM     75  C   UNL     1      -7.535   2.070   1.841  1.00  0.00     0.100 C 
ATOM     76  C   UNL     1      -6.925   3.265   1.617  1.00  0.00     0.088 C 
BRANCH  75  77
ATOM     77  O   UNL     1      -8.079   1.791   3.042  1.00  0.00    -0.512 OA
ATOM     78  H   UNL     1      -8.520   0.948   3.221  1.00  0.00     0.293 HD
ENDBRANCH  75  77
BRANCH  76  79
ATOM     79  C   UNL     1      -6.741   4.411   2.559  1.00  0.00     0.155 C 
ATOM     80  O   UNL     1      -6.151   5.389   2.128  1.00  0.00    -0.295 OA
ATOM     81  C   UNL     1      -7.218   4.487   3.985  1.00  0.00     0.093 C 
ENDBRANCH  76  79
ENDBRANCH  74  75
ENDBRANCH   5  74
BRANCH   8  82
ATOM     82  O   UNL     1      -5.225   2.296  -4.211  1.00  0.00    -0.507 OA
ATOM     83  H   UNL     1      -5.758   2.504  -4.991  1.00  0.00     0.293 HD
ENDBRANCH   8  82
BRANCH  21  84
ATOM     84  O   UNL     1      -0.499   3.738   4.469  1.00  0.00    -0.507 OA
ATOM     85  H   UNL     1      -0.178   4.323   5.170  1.00  0.00     0.293 HD
ENDBRANCH  21  84
TORSDOF 18
