REMARK SMILES OC[C@H]1O[C@@H](Oc2cc(O)cc([C@H]3[C@@H](c4ccc(O)cc4)[C@H](c4ccc(O)cc4)[C@@H]3c3cc(O)cc(O[C@@H]4O[C@H](CO)[C@@H](O)[C@H](O)[C@H]4O)c3)c2)[C@H](O)[C@@H](O)[C@@H]1O
REMARK SMILES IDX 13 1 14 2 22 3 30 4 12 5 7 6 8 7 50 8 9 9 11 10 6 11 5 12
REMARK SMILES IDX 3 13 4 14 55 15 53 16 51 17 2 18 1 19 56 21 54 23 52 25
REMARK SMILES IDX 10 27 15 29 16 30 21 31 17 32 20 33 18 34 19 35 31 37 32 38
REMARK SMILES IDX 49 39 33 40 36 41 35 42 34 43 37 45 38 46 39 47 47 48 40 49
REMARK SMILES IDX 45 50 43 51 48 52 41 54 42 55 46 57 44 59 23 61 24 62 29 63
REMARK SMILES IDX 25 64 28 65 26 66 27 67
REMARK H PARENT 1 20 56 22 54 24 52 26 10 28 19 36 34 44 48 53 42 56 46 58
REMARK H PARENT 44 60 27 68
ROOT
ATOM      1  C   UNL     1       0.179  -1.111  -1.801  1.00  0.00     0.036 C 
ATOM      2  C   UNL     1       0.359  -2.560  -1.277  1.00  0.00     0.035 C 
ATOM      3  C   UNL     1      -0.092  -2.100   0.114  1.00  0.00     0.035 C 
ATOM      4  C   UNL     1      -0.615  -0.774  -0.504  1.00  0.00     0.036 C 
ENDROOT
BRANCH   1   5
ATOM      5  C   UNL     1       1.462  -0.327  -2.058  1.00  0.00    -0.036 A 
ATOM      6  C   UNL     1       3.525   0.809  -1.373  1.00  0.00     0.127 A 
ATOM      7  C   UNL     1       3.829   1.040  -2.734  1.00  0.00     0.092 A 
ATOM      8  C   UNL     1       2.334   0.134  -1.051  1.00  0.00     0.050 A 
ATOM      9  C   UNL     1       2.962   0.605  -3.737  1.00  0.00     0.119 A 
ATOM     10  C   UNL     1       1.792  -0.070  -3.400  1.00  0.00     0.050 A 
BRANCH   6  11
ATOM     11  O   UNL     1       4.334   1.190  -0.344  1.00  0.00    -0.462 OA
BRANCH  11  12
ATOM     12  C   UNL     1       5.561   1.838  -0.385  1.00  0.00     0.339 C 
ATOM     13  C   UNL     1       7.878   1.502  -0.123  1.00  0.00     0.179 C 
ATOM     14  O   UNL     1       6.562   0.995   0.150  1.00  0.00    -0.332 OA
ATOM     15  C   UNL     1       7.973   3.075  -0.094  1.00  0.00     0.177 C 
ATOM     16  C   UNL     1       6.910   3.631   0.874  1.00  0.00     0.180 C 
ATOM     17  C   UNL     1       5.483   3.152   0.435  1.00  0.00     0.214 C 
BRANCH  13  18
ATOM     18  C   UNL     1       8.853   0.870   0.884  1.00  0.00     0.191 C 
BRANCH  18  19
ATOM     19  O   UNL     1       8.801  -0.526   0.769  1.00  0.00    -0.394 OA
ATOM     20  H   UNL     1       9.504  -0.879   1.375  1.00  0.00     0.210 HD
ENDBRANCH  18  19
ENDBRANCH  13  18
BRANCH  15  21
ATOM     21  O   UNL     1       7.727   3.601  -1.375  1.00  0.00    -0.387 OA
ATOM     22  H   UNL     1       8.532   3.413  -1.924  1.00  0.00     0.211 HD
ENDBRANCH  15  21
BRANCH  16  23
ATOM     23  O   UNL     1       7.216   3.228   2.191  1.00  0.00    -0.387 OA
ATOM     24  H   UNL     1       6.767   2.366   2.389  1.00  0.00     0.211 HD
ENDBRANCH  16  23
BRANCH  17  25
ATOM     25  O   UNL     1       4.799   4.134  -0.305  1.00  0.00    -0.384 OA
ATOM     26  H   UNL     1       5.354   4.368  -1.093  1.00  0.00     0.211 HD
ENDBRANCH  17  25
ENDBRANCH  11  12
ENDBRANCH   6  11
BRANCH   9  27
ATOM     27  O   UNL     1       3.248   0.818  -5.040  1.00  0.00    -0.508 OA
ATOM     28  H   UNL     1       4.053   1.272  -5.323  1.00  0.00     0.293 HD
ENDBRANCH   9  27
ENDBRANCH   1   5
BRANCH   2  29
ATOM     29  C   UNL     1       1.681  -3.310  -1.431  1.00  0.00    -0.043 A 
ATOM     30  C   UNL     1       2.853  -2.960  -0.727  1.00  0.00     0.008 A 
ATOM     31  C   UNL     1       1.738  -4.408  -2.310  1.00  0.00     0.008 A 
ATOM     32  C   UNL     1       4.039  -3.673  -0.910  1.00  0.00     0.046 A 
ATOM     33  C   UNL     1       2.929  -5.118  -2.495  1.00  0.00     0.046 A 
ATOM     34  C   UNL     1       4.083  -4.752  -1.798  1.00  0.00     0.115 A 
BRANCH  34  35
ATOM     35  O   UNL     1       5.224  -5.445  -1.987  1.00  0.00    -0.508 OA
ATOM     36  H   UNL     1       6.044  -5.220  -1.523  1.00  0.00     0.293 HD
ENDBRANCH  34  35
ENDBRANCH   2  29
BRANCH   4  37
ATOM     37  C   UNL     1      -2.143  -0.735  -0.680  1.00  0.00    -0.036 A 
ATOM     38  C   UNL     1      -2.839  -1.588  -1.562  1.00  0.00     0.050 A 
ATOM     39  C   UNL     1      -2.894   0.171   0.099  1.00  0.00     0.050 A 
ATOM     40  C   UNL     1      -4.230  -1.534  -1.666  1.00  0.00     0.119 A 
ATOM     41  C   UNL     1      -4.297   0.227   0.018  1.00  0.00     0.127 A 
ATOM     42  C   UNL     1      -4.955  -0.638  -0.884  1.00  0.00     0.092 A 
BRANCH  40  43
ATOM     43  O   UNL     1      -4.888  -2.347  -2.518  1.00  0.00    -0.508 OA
ATOM     44  H   UNL     1      -4.428  -2.984  -3.083  1.00  0.00     0.293 HD
ENDBRANCH  40  43
BRANCH  41  45
ATOM     45  O   UNL     1      -4.951   1.110   0.831  1.00  0.00    -0.462 OA
BRANCH  45  46
ATOM     46  C   UNL     1      -6.320   1.324   0.960  1.00  0.00     0.339 C 
ATOM     47  O   UNL     1      -6.574   2.694   0.624  1.00  0.00    -0.332 OA
ATOM     48  C   UNL     1      -6.751   0.925   2.416  1.00  0.00     0.214 C 
ATOM     49  C   UNL     1      -7.739   3.180   1.259  1.00  0.00     0.179 C 
ATOM     50  C   UNL     1      -6.604   2.153   3.329  1.00  0.00     0.180 C 
ATOM     51  C   UNL     1      -7.493   3.323   2.791  1.00  0.00     0.177 C 
BRANCH  48  52
ATOM     52  O   UNL     1      -8.091   0.501   2.438  1.00  0.00    -0.384 OA
ATOM     53  H   UNL     1      -8.113  -0.404   2.031  1.00  0.00     0.211 HD
ENDBRANCH  48  52
BRANCH  49  54
ATOM     54  C   UNL     1      -8.169   4.512   0.636  1.00  0.00     0.191 C 
BRANCH  54  55
ATOM     55  O   UNL     1      -8.422   4.354  -0.734  1.00  0.00    -0.394 OA
ATOM     56  H   UNL     1      -7.543   4.395  -1.193  1.00  0.00     0.210 HD
ENDBRANCH  54  55
ENDBRANCH  49  54
BRANCH  50  57
ATOM     57  O   UNL     1      -5.243   2.522   3.402  1.00  0.00    -0.387 OA
ATOM     58  H   UNL     1      -5.010   3.076   2.613  1.00  0.00     0.211 HD
ENDBRANCH  50  57
BRANCH  51  59
ATOM     59  O   UNL     1      -8.725   3.403   3.467  1.00  0.00    -0.387 OA
ATOM     60  H   UNL     1      -9.197   2.538   3.352  1.00  0.00     0.211 HD
ENDBRANCH  51  59
ENDBRANCH  45  46
ENDBRANCH  41  45
ENDBRANCH   4  37
BRANCH   3  61
ATOM     61  C   UNL     1      -1.087  -2.915   0.927  1.00  0.00    -0.043 A 
ATOM     62  C   UNL     1      -1.558  -4.178   0.517  1.00  0.00     0.008 A 
ATOM     63  C   UNL     1      -1.572  -2.367   2.127  1.00  0.00     0.008 A 
ATOM     64  C   UNL     1      -2.507  -4.861   1.286  1.00  0.00     0.046 A 
ATOM     65  C   UNL     1      -2.515  -3.055   2.894  1.00  0.00     0.046 A 
ATOM     66  C   UNL     1      -2.991  -4.300   2.475  1.00  0.00     0.115 A 
BRANCH  66  67
ATOM     67  O   UNL     1      -3.912  -4.945   3.220  1.00  0.00    -0.508 OA
ATOM     68  H   UNL     1      -4.276  -5.803   2.958  1.00  0.00     0.293 HD
ENDBRANCH  66  67
ENDBRANCH   3  61
TORSDOF 22
