REMARK SMILES C=C1[C@H](COc2ccc3ccc(=O)oc3c2)CC[C@H]2C(C)(C)[C@@H](O)CC[C@]12C
REMARK SMILES IDX 1 1 2 2 3 3 17 4 18 5 19 6 20 7 21 8 22 9 23 10 25 11 26 12
REMARK SMILES IDX 27 13 28 14 4 15 5 16 6 17 7 18 16 19 8 20 15 21 9 22 14 23
REMARK SMILES IDX 10 24 12 25 11 26 13 27 24 28
REMARK H PARENT 24 29
ROOT
ATOM      1  C   UNL     1       0.509  -0.282  -1.945  1.00  0.00     0.009 C 
ATOM      2  C   UNL     1      -0.349   0.327  -1.136  1.00  0.00    -0.065 C 
ATOM      3  C   UNL     1      -0.020   1.638  -0.624  1.00  0.00     0.053 C 
ATOM      4  C   UNL     1      -1.201   2.561  -0.451  1.00  0.00     0.012 C 
ATOM      5  C   UNL     1      -2.505   1.895  -0.915  1.00  0.00     0.006 C 
ATOM      6  C   UNL     1      -2.564   0.564  -0.230  1.00  0.00     0.007 C 
ATOM      7  C   UNL     1      -3.953   0.063   0.034  1.00  0.00    -0.006 C 
ATOM      8  C   UNL     1      -4.899   0.155  -1.111  1.00  0.00     0.014 C 
ATOM      9  C   UNL     1      -4.516   1.002   1.120  1.00  0.00     0.014 C 
ATOM     10  C   UNL     1      -3.853  -1.288   0.681  1.00  0.00     0.120 C 
ATOM     11  C   UNL     1      -2.459  -1.579   1.216  1.00  0.00     0.033 C 
ATOM     12  C   UNL     1      -1.380  -1.499   0.192  1.00  0.00     0.014 C 
ATOM     13  C   UNL     1      -1.625  -0.419  -0.843  1.00  0.00    -0.008 C 
ATOM     14  C   UNL     1      -2.050  -1.017  -2.141  1.00  0.00     0.016 C 
ENDROOT
BRANCH   3  15
ATOM     15  C   UNL     1       0.797   1.527   0.651  1.00  0.00     0.237 C 
BRANCH  15  16
ATOM     16  O   UNL     1       1.916   0.895   0.497  1.00  0.00    -0.493 OA
BRANCH  16  17
ATOM     17  C   UNL     1       3.025   0.269   0.344  1.00  0.00     0.123 A 
ATOM     18  C   UNL     1       3.195  -1.075  -0.036  1.00  0.00     0.047 A 
ATOM     19  C   UNL     1       4.236   0.956   0.568  1.00  0.00     0.094 A 
ATOM     20  C   UNL     1       4.426  -1.662  -0.177  1.00  0.00     0.016 A 
ATOM     21  C   UNL     1       5.466   0.369   0.427  1.00  0.00     0.142 A 
ATOM     22  C   UNL     1       5.572  -0.940   0.055  1.00  0.00     0.018 A 
ATOM     23  O   UNL     1       6.546   1.081   0.655  1.00  0.00    -0.423 OA
ATOM     24  C   UNL     1       6.825  -1.476  -0.070  1.00  0.00     0.019 A 
ATOM     25  C   UNL     1       7.747   0.599   0.543  1.00  0.00     0.336 A 
ATOM     26  C   UNL     1       7.946  -0.731   0.168  1.00  0.00     0.094 A 
ATOM     27  O   UNL     1       8.723   1.341   0.778  1.00  0.00    -0.246 OA
ENDBRANCH  16  17
ENDBRANCH  15  16
ENDBRANCH   3  15
BRANCH  10  28
ATOM     28  O   UNL     1      -4.331  -2.327  -0.125  1.00  0.00    -0.393 OA
ATOM     29  H   UNL     1      -3.770  -2.410  -0.912  1.00  0.00     0.210 HD
ENDBRANCH  10  28
TORSDOF 4
