REMARK SMILES C[C@@H]1O[C@H](OC[C@H]2O[C@H](Oc3c(-c4ccc(O)c(O)c4)oc4cc(O[C@@H]5O[C@H](C)[C@H](O)[C@H](O)[C@@H]5O)cc(O)c4c3=O)[C@@H](O[C@H]3O[C@H](C)[C@H](O)[C@H](O)[C@@H]3O)[C@@H](OC(=O)/C=C/c3ccc(O)cc3)[C@H]2O)[C@H](O)[C@H](O)[C@H]1O
REMARK SMILES IDX 42 1 9 2 8 3 7 4 67 5 54 6 43 7 44 8 46 9 45 10 48 11 50 12
REMARK SMILES IDX 52 13 47 14 49 15 51 17 53 19 10 21 11 22 12 23 40 24 21 25
REMARK SMILES IDX 39 26 41 27 22 28 37 29 23 30 36 31 24 32 13 33 14 34 20 35
REMARK SMILES IDX 15 36 18 37 16 38 19 39 17 41 38 43 25 45 26 46 27 47 34 48
REMARK SMILES IDX 28 49 32 50 30 51 29 52 35 53 33 55 31 57 55 59 56 60 57 61
REMARK SMILES IDX 58 62 59 63 60 64 61 65 66 66 62 67 65 68 63 69 64 70 68 72
REMARK SMILES IDX 6 74 5 75 4 76 3 77 69 78 2 79 71 80 73 81 1 82 70 83 72 85
REMARK SMILES IDX 74 87
REMARK H PARENT 49 16 51 18 53 20 19 40 17 42 38 44 35 54 33 56 31 58 64 71
REMARK H PARENT 68 73 70 84 72 86 74 88
ROOT
ATOM      1  C   UNL     1      -4.097  -1.851   0.751  1.00  0.00     0.234 C 
ATOM      2  C   UNL     1      -2.661  -2.133   0.086  1.00  0.00     0.341 C 
ATOM      3  O   UNL     1      -2.214  -3.535   0.005  1.00  0.00    -0.332 OA
ATOM      4  C   UNL     1      -3.110  -4.607   0.372  1.00  0.00     0.181 C 
ATOM      5  C   UNL     1      -4.557  -4.248  -0.046  1.00  0.00     0.189 C 
ATOM      6  C   UNL     1      -5.086  -3.076   0.785  1.00  0.00     0.243 C 
ENDROOT
BRANCH   1   7
ATOM      7  O   UNL     1      -4.572  -0.463   0.798  1.00  0.00    -0.336 OA
BRANCH   7   8
ATOM      8  C   UNL     1      -5.644   0.038  -0.049  1.00  0.00     0.282 C 
ATOM      9  C   UNL     1      -7.548   1.655   0.000  1.00  0.00     0.150 C 
ATOM     10  O   UNL     1      -6.425   1.026   0.696  1.00  0.00    -0.344 OA
ATOM     11  C   UNL     1      -7.045   2.248  -1.351  1.00  0.00     0.174 C 
ATOM     12  C   UNL     1      -6.203   1.259  -2.189  1.00  0.00     0.179 C 
ATOM     13  C   UNL     1      -5.062   0.699  -1.312  1.00  0.00     0.202 C 
ATOM     14  C   UNL     1      -8.697   0.691   0.000  1.00  0.00     0.041 C 
BRANCH  11  15
ATOM     15  O   UNL     1      -8.078   2.845  -2.095  1.00  0.00    -0.388 OA
ATOM     16  H   UNL     1      -8.641   2.121  -2.471  1.00  0.00     0.211 HD
ENDBRANCH  11  15
BRANCH  12  17
ATOM     17  O   UNL     1      -6.985   0.201  -2.686  1.00  0.00    -0.387 OA
ATOM     18  H   UNL     1      -7.307   0.469  -3.586  1.00  0.00     0.211 HD
ENDBRANCH  12  17
BRANCH  13  19
ATOM     19  O   UNL     1      -4.318  -0.238  -2.045  1.00  0.00    -0.385 OA
ATOM     20  H   UNL     1      -3.702   0.279  -2.627  1.00  0.00     0.211 HD
ENDBRANCH  13  19
ENDBRANCH   7   8
ENDBRANCH   1   7
BRANCH   2  21
ATOM     21  O   UNL     1      -1.696  -1.429   0.831  1.00  0.00    -0.454 OA
BRANCH  21  22
ATOM     22  C   UNL     1      -0.689  -0.568   0.461  1.00  0.00     0.214 A 
ATOM     23  C   UNL     1       0.649  -1.026   0.277  1.00  0.00     0.180 A 
ATOM     24  C   UNL     1      -0.912   0.834   0.375  1.00  0.00     0.239 A 
ATOM     25  O   UNL     1       1.610  -0.149  -0.016  1.00  0.00    -0.452 OA
ATOM     26  C   UNL     1       0.181   1.729   0.135  1.00  0.00     0.111 A 
ATOM     27  O   UNL     1      -2.034   1.267   0.573  1.00  0.00    -0.285 OA
ATOM     28  C   UNL     1       1.449   1.163  -0.078  1.00  0.00     0.146 A 
ATOM     29  C   UNL     1       0.081   3.151   0.139  1.00  0.00     0.134 A 
ATOM     30  C   UNL     1       2.581   1.974  -0.288  1.00  0.00     0.094 A 
ATOM     31  C   UNL     1       1.242   3.958  -0.034  1.00  0.00     0.093 A 
ATOM     32  C   UNL     1       2.508   3.375  -0.246  1.00  0.00     0.130 A 
BRANCH  23  33
ATOM     33  C   UNL     1       1.139  -2.420   0.521  1.00  0.00     0.025 A 
ATOM     34  C   UNL     1       0.453  -3.361   1.317  1.00  0.00     0.016 A 
ATOM     35  C   UNL     1       2.407  -2.781   0.015  1.00  0.00     0.062 A 
ATOM     36  C   UNL     1       1.018  -4.607   1.596  1.00  0.00     0.051 A 
ATOM     37  C   UNL     1       2.973  -4.029   0.290  1.00  0.00     0.158 A 
ATOM     38  C   UNL     1       2.280  -4.944   1.096  1.00  0.00     0.157 A 
BRANCH  37  39
ATOM     39  O   UNL     1       4.192  -4.318  -0.213  1.00  0.00    -0.504 OA
ATOM     40  H   UNL     1       4.638  -5.163  -0.056  1.00  0.00     0.293 HD
ENDBRANCH  37  39
BRANCH  38  41
ATOM     41  O   UNL     1       2.840  -6.130   1.406  1.00  0.00    -0.504 OA
ATOM     42  H   UNL     1       2.403  -6.766   1.990  1.00  0.00     0.293 HD
ENDBRANCH  38  41
ENDBRANCH  23  33
BRANCH  29  43
ATOM     43  O   UNL     1      -1.115   3.744   0.341  1.00  0.00    -0.507 OA
ATOM     44  H   UNL     1      -1.218   4.706   0.362  1.00  0.00     0.293 HD
ENDBRANCH  29  43
BRANCH  32  45
ATOM     45  O   UNL     1       3.682   4.084  -0.388  1.00  0.00    -0.462 OA
BRANCH  45  46
ATOM     46  C   UNL     1       4.077   5.279   0.229  1.00  0.00     0.339 C 
ATOM     47  O   UNL     1       3.267   6.365  -0.210  1.00  0.00    -0.335 OA
ATOM     48  C   UNL     1       5.600   5.556  -0.063  1.00  0.00     0.214 C 
ATOM     49  C   UNL     1       3.889   7.638   0.000  1.00  0.00     0.151 C 
ATOM     50  C   UNL     1       5.711   6.443  -1.324  1.00  0.00     0.180 C 
ATOM     51  C   UNL     1       5.006   7.820  -1.057  1.00  0.00     0.174 C 
ATOM     52  C   UNL     1       2.740   8.602   0.000  1.00  0.00     0.042 C 
BRANCH  48  53
ATOM     53  O   UNL     1       6.321   4.361  -0.209  1.00  0.00    -0.384 OA
ATOM     54  H   UNL     1       6.373   3.952   0.694  1.00  0.00     0.211 HD
ENDBRANCH  48  53
BRANCH  50  55
ATOM     55  O   UNL     1       5.079   5.785  -2.396  1.00  0.00    -0.387 OA
ATOM     56  H   UNL     1       5.726   5.118  -2.745  1.00  0.00     0.211 HD
ENDBRANCH  50  55
BRANCH  51  57
ATOM     57  O   UNL     1       4.495   8.340  -2.258  1.00  0.00    -0.388 OA
ATOM     58  H   UNL     1       5.270   8.715  -2.752  1.00  0.00     0.211 HD
ENDBRANCH  51  57
ENDBRANCH  45  46
ENDBRANCH  32  45
ENDBRANCH  21  22
ENDBRANCH   2  21
BRANCH   6  59
ATOM     59  O   UNL     1      -6.401  -2.850   0.426  1.00  0.00    -0.453 OA
BRANCH  59  60
ATOM     60  C   UNL     1      -7.376  -2.471   1.296  1.00  0.00     0.331 C 
ATOM     61  O   UNL     1      -7.096  -1.844   2.307  1.00  0.00    -0.247 OA
BRANCH  60  62
ATOM     62  C   UNL     1      -8.781  -2.871   1.062  1.00  0.00     0.094 C 
ATOM     63  C   UNL     1      -9.123  -3.695   0.053  1.00  0.00     0.015 C 
BRANCH  63  64
ATOM     64  C   UNL     1     -10.501  -4.208  -0.197  1.00  0.00    -0.025 A 
ATOM     65  C   UNL     1     -11.624  -3.818   0.564  1.00  0.00     0.012 A 
ATOM     66  C   UNL     1     -10.682  -5.146  -1.229  1.00  0.00     0.012 A 
ATOM     67  C   UNL     1     -12.886  -4.359   0.295  1.00  0.00     0.047 A 
ATOM     68  C   UNL     1     -11.944  -5.685  -1.494  1.00  0.00     0.047 A 
ATOM     69  C   UNL     1     -13.050  -5.296  -0.733  1.00  0.00     0.115 A 
BRANCH  69  70
ATOM     70  O   UNL     1     -14.259  -5.829  -0.997  1.00  0.00    -0.508 OA
ATOM     71  H   UNL     1     -15.049  -5.591  -0.490  1.00  0.00     0.293 HD
ENDBRANCH  69  70
ENDBRANCH  63  64
ENDBRANCH  60  62
ENDBRANCH  59  60
ENDBRANCH   6  59
BRANCH   5  72
ATOM     72  O   UNL     1      -4.608  -3.928  -1.415  1.00  0.00    -0.386 OA
ATOM     73  H   UNL     1      -4.825  -4.764  -1.904  1.00  0.00     0.211 HD
ENDBRANCH   5  72
BRANCH   4  74
ATOM     74  C   UNL     1      -2.749  -6.050  -0.267  1.00  0.00     0.198 C 
BRANCH  74  75
ATOM     75  O   UNL     1      -1.552  -6.741   0.185  1.00  0.00    -0.347 OA
BRANCH  75  76
ATOM     76  C   UNL     1      -1.671  -8.209   0.185  1.00  0.00     0.281 C 
ATOM     77  O   UNL     1      -0.634  -8.881  -0.577  1.00  0.00    -0.344 OA
ATOM     78  C   UNL     1      -1.873  -8.751   1.612  1.00  0.00     0.202 C 
ATOM     79  C   UNL     1       0.399  -9.744   0.000  1.00  0.00     0.150 C 
ATOM     80  C   UNL     1      -1.444 -10.232   1.680  1.00  0.00     0.179 C 
ATOM     81  C   UNL     1       0.070 -10.279   1.416  1.00  0.00     0.174 C 
ATOM     82  C   UNL     1       1.548  -8.780   0.000  1.00  0.00     0.041 C 
BRANCH  78  83
ATOM     83  O   UNL     1      -1.127  -7.982   2.524  1.00  0.00    -0.385 OA
ATOM     84  H   UNL     1      -1.553  -8.100   3.413  1.00  0.00     0.211 HD
ENDBRANCH  78  83
BRANCH  80  85
ATOM     85  O   UNL     1      -1.711 -10.750   2.957  1.00  0.00    -0.387 OA
ATOM     86  H   UNL     1      -2.666 -11.024   2.958  1.00  0.00     0.211 HD
ENDBRANCH  80  85
BRANCH  81  87
ATOM     87  O   UNL     1       0.572 -11.585   1.546  1.00  0.00    -0.388 OA
ATOM     88  H   UNL     1       0.733 -11.742   2.513  1.00  0.00     0.211 HD
ENDBRANCH  81  87
ENDBRANCH  75  76
ENDBRANCH  74  75
ENDBRANCH   4  74
TORSDOF 28
