REMARK SMILES CCCC[C]CC[C]CCCCCCCCCCCCC(=O)OC[C@H](COC(=O)CCCCCCC)OC(=O)CCCCCCCCCCCCCCC
REMARK SMILES IDX 21 1 22 2 20 3 19 4 18 5 17 6 16 7 15 8 14 9 13 10 12 11
REMARK SMILES IDX 11 12 10 13 9 14 8 15 7 16 6 17 5 18 4 19 3 20 2 21 1 22
REMARK SMILES IDX 23 23 24 24 25 25 26 26 27 27 28 28 29 29 30 30 31 31 32 32
REMARK SMILES IDX 33 33 34 34 35 35 36 36 37 37 38 38 39 39 40 40 41 41 42 42
REMARK SMILES IDX 43 43 44 44 45 45 46 46 47 47 48 48 49 49 50 50 51 51 52 52
REMARK SMILES IDX 53 53 54 54
REMARK H PARENT
ROOT
ATOM      1  C   UNL     1       0.373  -0.248  -0.024  1.00  0.00     0.305 C 
ATOM      2  O   UNL     1       1.130  -1.140  -0.372  1.00  0.00    -0.252 OA
ENDROOT
BRANCH   1   3
ATOM      3  C   UNL     1       1.071   1.233   0.173  1.00  0.00     0.123 C 
BRANCH   3   4
ATOM      4  C   UNL     1       2.725   1.489  -0.012  1.00  0.00     0.012 C 
BRANCH   4   5
ATOM      5  C   UNL     1       3.527   2.971   0.114  1.00  0.00     0.001 C 
BRANCH   5   6
ATOM      6  C   UNL     1       5.196   3.000   0.000  1.00  0.00     0.000 C 
BRANCH   6   7
ATOM      7  C   UNL     1       6.495   3.750   0.000  1.00  0.00     0.000 C 
BRANCH   7   8
ATOM      8  C   UNL     1       7.794   4.500   0.000  1.00  0.00     0.000 C 
BRANCH   8   9
ATOM      9  C   UNL     1       9.093   5.250   0.000  1.00  0.00     0.000 C 
BRANCH   9  10
ATOM     10  C   UNL     1      10.392   6.000   0.000  1.00  0.00     0.000 C 
BRANCH  10  11
ATOM     11  C   UNL     1      11.691   6.750   0.000  1.00  0.00     0.000 C 
BRANCH  11  12
ATOM     12  C   UNL     1      13.342   7.063   0.007  1.00  0.00     0.000 C 
BRANCH  12  13
ATOM     13  C   UNL     1      13.944   8.654  -0.015  1.00  0.00     0.001 C 
BRANCH  13  14
ATOM     14  C   UNL     1      15.588   9.000   0.000  1.00  0.00     0.008 C 
BRANCH  14  15
ATOM     15  C   UNL     1      16.887   9.750   0.000  1.00  0.00    -0.017 C 
BRANCH  15  16
ATOM     16  C   UNL     1      18.186  10.500   0.000  1.00  0.00     0.009 C 
BRANCH  16  17
ATOM     17  C   UNL     1      19.486  11.250   0.000  1.00  0.00     0.009 C 
BRANCH  17  18
ATOM     18  C   UNL     1      20.785  12.000   0.000  1.00  0.00    -0.017 C 
BRANCH  18  19
ATOM     19  C   UNL     1      22.084  12.750   0.000  1.00  0.00     0.008 C 
BRANCH  19  20
ATOM     20  C   UNL     1      23.699  12.956   0.563  1.00  0.00     0.000 C 
BRANCH  20  21
ATOM     21  C   UNL     1      24.682  14.250   0.000  1.00  0.00    -0.003 C 
ATOM     22  C   UNL     1      25.981  15.000   0.000  1.00  0.00     0.004 C 
ENDBRANCH  20  21
ENDBRANCH  19  20
ENDBRANCH  18  19
ENDBRANCH  17  18
ENDBRANCH  16  17
ENDBRANCH  15  16
ENDBRANCH  14  15
ENDBRANCH  13  14
ENDBRANCH  12  13
ENDBRANCH  11  12
ENDBRANCH  10  11
ENDBRANCH   9  10
ENDBRANCH   8   9
ENDBRANCH   7   8
ENDBRANCH   6   7
ENDBRANCH   5   6
ENDBRANCH   4   5
ENDBRANCH   3   4
ENDBRANCH   1   3
BRANCH   1  23
ATOM     23  O   UNL     1      -1.022  -0.604   0.171  1.00  0.00    -0.462 OA
BRANCH  23  24
ATOM     24  C   UNL     1      -1.667  -1.896  -0.136  1.00  0.00     0.281 C 
BRANCH  24  25
ATOM     25  C   UNL     1      -3.263  -2.279   0.250  1.00  0.00     0.251 C 
BRANCH  25  26
ATOM     26  C   UNL     1      -3.714  -3.858  -0.177  1.00  0.00     0.281 C 
BRANCH  26  27
ATOM     27  O   UNL     1      -4.979  -4.567   0.130  1.00  0.00    -0.462 OA
BRANCH  27  28
ATOM     28  C   UNL     1      -5.196  -6.000   0.000  1.00  0.00     0.305 C 
ATOM     29  O   UNL     1      -4.181  -6.671  -0.186  1.00  0.00    -0.252 OA
BRANCH  28  30
ATOM     30  C   UNL     1      -6.495  -6.750   0.000  1.00  0.00     0.123 C 
BRANCH  30  31
ATOM     31  C   UNL     1      -7.794  -7.500   0.000  1.00  0.00     0.012 C 
BRANCH  31  32
ATOM     32  C   UNL     1      -9.093  -8.250   0.000  1.00  0.00     0.001 C 
BRANCH  32  33
ATOM     33  C   UNL     1     -10.392  -9.000   0.000  1.00  0.00     0.000 C 
BRANCH  33  34
ATOM     34  C   UNL     1     -11.691  -9.750   0.000  1.00  0.00    -0.000 C 
BRANCH  34  35
ATOM     35  C   UNL     1     -12.969  -8.895   0.223  1.00  0.00    -0.003 C 
ATOM     36  C   UNL     1     -14.217  -9.773   0.243  1.00  0.00     0.004 C 
ENDBRANCH  34  35
ENDBRANCH  33  34
ENDBRANCH  32  33
ENDBRANCH  31  32
ENDBRANCH  30  31
ENDBRANCH  28  30
ENDBRANCH  27  28
ENDBRANCH  26  27
ENDBRANCH  25  26
BRANCH  25  37
ATOM     37  O   UNL     1      -4.090  -1.241  -0.241  1.00  0.00    -0.455 OA
BRANCH  37  38
ATOM     38  C   UNL     1      -5.375  -0.911   0.147  1.00  0.00     0.306 C 
ATOM     39  O   UNL     1      -6.173  -1.789   0.437  1.00  0.00    -0.252 OA
BRANCH  38  40
ATOM     40  C   UNL     1      -5.721   0.563   0.463  1.00  0.00     0.123 C 
BRANCH  40  41
ATOM     41  C   UNL     1      -6.959   1.331  -0.176  1.00  0.00     0.012 C 
BRANCH  41  42
ATOM     42  C   UNL     1      -7.014   2.782   0.441  1.00  0.00     0.001 C 
BRANCH  42  43
ATOM     43  C   UNL     1      -7.790   4.044  -0.125  1.00  0.00     0.000 C 
BRANCH  43  44
ATOM     44  C   UNL     1      -9.311   4.502   0.118  1.00  0.00     0.000 C 
BRANCH  44  45
ATOM     45  C   UNL     1      -9.348   6.093   0.000  1.00  0.00     0.000 C 
BRANCH  45  46
ATOM     46  C   UNL     1     -10.098   7.392   0.000  1.00  0.00     0.000 C 
BRANCH  46  47
ATOM     47  C   UNL     1     -10.848   8.691   0.000  1.00  0.00     0.000 C 
BRANCH  47  48
ATOM     48  C   UNL     1     -11.273  10.267  -0.414  1.00  0.00    -0.000 C 
BRANCH  48  49
ATOM     49  C   UNL     1     -12.795  10.932  -0.012  1.00  0.00    -0.000 C 
BRANCH  49  50
ATOM     50  C   UNL     1     -13.098  12.588   0.000  1.00  0.00    -0.000 C 
BRANCH  50  51
ATOM     51  C   UNL     1     -13.848  13.887   0.000  1.00  0.00    -0.000 C 
BRANCH  51  52
ATOM     52  C   UNL     1     -14.598  15.187   0.000  1.00  0.00    -0.000 C 
BRANCH  52  53
ATOM     53  C   UNL     1     -15.348  16.486   0.000  1.00  0.00    -0.003 C 
ATOM     54  C   UNL     1     -16.098  17.785   0.000  1.00  0.00     0.004 C 
ENDBRANCH  52  53
ENDBRANCH  51  52
ENDBRANCH  50  51
ENDBRANCH  49  50
ENDBRANCH  48  49
ENDBRANCH  47  48
ENDBRANCH  46  47
ENDBRANCH  45  46
ENDBRANCH  44  45
ENDBRANCH  43  44
ENDBRANCH  42  43
ENDBRANCH  41  42
ENDBRANCH  40  41
ENDBRANCH  38  40
ENDBRANCH  37  38
ENDBRANCH  25  37
ENDBRANCH  24  25
ENDBRANCH  23  24
ENDBRANCH   1  23
TORSDOF 47
