REMARK SMILES CC1(C)[C@H]2CC[C@@]3(C)[C@@H](C(=O)C=C4[C@@H]5C[C@]6(C)C[C@@H](COC6=O)[C@@]5(C)CC[C@@]43C)[C@]2(C)CC[C@H]1O[C@@H]1O[C@H](C(=O)O)[C@@H](O)[C@H](O)[C@H]1O[C@@H]1O[C@H](C(=O)O)[C@@H](O)[C@H](O)[C@H]1O
REMARK SMILES IDX 47 1 46 2 36 3 37 4 38 5 44 6 42 7 35 8 34 9 2 10 4 11 5 12
REMARK SMILES IDX 30 13 33 14 6 15 9 16 32 17 7 18 10 19 28 20 11 21 12 22
REMARK SMILES IDX 27 23 13 24 26 25 14 26 24 27 15 28 19 29 16 30 18 31 20 32
REMARK SMILES IDX 22 33 21 34 23 35 1 36 3 37 31 38 8 39 29 40 25 41 17 42
REMARK SMILES IDX 39 43 40 44 41 45 45 47 43 49 48 51 49 52 58 53 50 54 56 55
REMARK SMILES IDX 54 56 59 57 51 59 52 60 53 61 57 63 55 65
REMARK H PARENT 41 46 45 48 43 50 59 58 53 62 57 64 55 66
ROOT
ATOM      1  O   UNL     1       5.395  -1.281  -1.084  1.00  0.00    -0.338 OA
ENDROOT
BRANCH   1   2
ATOM      2  C   UNL     1       5.630  -1.132   0.308  1.00  0.00     0.209 C 
ATOM      3  C   UNL     1       4.331  -0.757   1.035  1.00  0.00     0.283 C 
ATOM      4  O   UNL     1       4.575  -0.454   2.405  1.00  0.00    -0.332 OA
ATOM      5  C   UNL     1       5.481  -1.339   3.088  1.00  0.00     0.262 C 
ATOM      6  C   UNL     1       6.184  -2.455   0.891  1.00  0.00     0.180 C 
ATOM      7  C   UNL     1       5.713  -2.693   2.353  1.00  0.00     0.186 C 
BRANCH   3   8
ATOM      8  O   UNL     1       3.768   0.377   0.380  1.00  0.00    -0.346 OA
BRANCH   8   9
ATOM      9  C   UNL     1       2.346   0.314   0.327  1.00  0.00     0.127 C 
ATOM     10  C   UNL     1       1.742   1.730  -0.014  1.00  0.00    -0.006 C 
ATOM     11  C   UNL     1       0.164   1.605  -0.103  1.00  0.00     0.004 C 
ATOM     12  C   UNL     1      -0.626   2.909  -0.447  1.00  0.00     0.005 C 
ATOM     13  C   UNL     1      -0.422   0.416  -0.961  1.00  0.00    -0.018 C 
ATOM     14  C   UNL     1       1.863  -0.749  -0.690  1.00  0.00     0.033 C 
ATOM     15  C   UNL     1      -2.096   2.758   0.007  1.00  0.00     0.009 C 
ATOM     16  C   UNL     1      -1.934   0.261  -0.474  1.00  0.00     0.073 C 
ATOM     17  C   UNL     1       0.343  -0.888  -0.587  1.00  0.00     0.010 C 
ATOM     18  C   UNL     1      -2.889   1.509  -0.549  1.00  0.00    -0.013 C 
ATOM     19  C   UNL     1      -2.676  -0.953  -0.981  1.00  0.00     0.159 C 
ATOM     20  C   UNL     1      -4.240   1.181   0.350  1.00  0.00    -0.005 C 
ATOM     21  O   UNL     1      -2.216  -1.727  -1.806  1.00  0.00    -0.295 OA
ATOM     22  C   UNL     1      -3.937  -1.268  -0.328  1.00  0.00     0.047 C 
ATOM     23  C   UNL     1      -5.520   1.934  -0.183  1.00  0.00     0.012 C 
ATOM     24  C   UNL     1      -4.634  -0.331   0.347  1.00  0.00    -0.056 C 
ATOM     25  C   UNL     1      -6.845   1.545   0.534  1.00  0.00     0.009 C 
ATOM     26  C   UNL     1      -5.895  -0.713   1.133  1.00  0.00     0.023 C 
ATOM     27  C   UNL     1      -7.136   0.000   0.536  1.00  0.00    -0.020 C 
ATOM     28  C   UNL     1      -6.139  -2.230   1.385  1.00  0.00     0.027 C 
ATOM     29  C   UNL     1      -8.446  -0.341   1.378  1.00  0.00     0.035 C 
ATOM     30  C   UNL     1      -7.385  -2.419   2.293  1.00  0.00     0.066 C 
ATOM     31  C   UNL     1      -8.623  -1.864   1.546  1.00  0.00     0.026 C 
ATOM     32  C   UNL     1      -8.549   0.240   2.822  1.00  0.00     0.237 C 
ATOM     33  C   UNL     1      -7.184  -1.636   3.588  1.00  0.00     0.311 C 
ATOM     34  O   UNL     1      -7.783  -0.429   3.768  1.00  0.00    -0.465 OA
ATOM     35  O   UNL     1      -6.365  -2.014   4.413  1.00  0.00    -0.252 OA
ATOM     36  C   UNL     1       2.380   2.333  -1.282  1.00  0.00     0.014 C 
ATOM     37  C   UNL     1       2.120   2.680   1.159  1.00  0.00     0.014 C 
ATOM     38  C   UNL     1      -0.267   0.598  -2.511  1.00  0.00     0.012 C 
ATOM     39  C   UNL     1      -3.286   1.806  -2.027  1.00  0.00     0.013 C 
ATOM     40  C   UNL     1      -4.013   1.613   1.839  1.00  0.00     0.017 C 
ATOM     41  C   UNL     1      -7.367  -0.476  -0.934  1.00  0.00     0.012 C 
ATOM     42  C   UNL     1      -7.597  -3.909   2.614  1.00  0.00     0.024 C 
ENDBRANCH   8   9
ENDBRANCH   3   8
BRANCH   5  43
ATOM     43  C   UNL     1       6.781  -0.637   3.388  1.00  0.00     0.335 C 
ATOM     44  O   UNL     1       6.978   0.501   2.985  1.00  0.00    -0.249 OA
BRANCH  43  45
ATOM     45  O   UNL     1       7.739  -1.243   4.129  1.00  0.00    -0.479 OA
ATOM     46  H   UNL     1       7.617  -2.130   4.494  1.00  0.00     0.296 HD
ENDBRANCH  43  45
ENDBRANCH   5  43
BRANCH   6  47
ATOM     47  O   UNL     1       7.582  -2.509   0.752  1.00  0.00    -0.387 OA
ATOM     48  H   UNL     1       7.971  -1.798   1.324  1.00  0.00     0.211 HD
ENDBRANCH   6  47
BRANCH   7  49
ATOM     49  O   UNL     1       4.490  -3.390   2.326  1.00  0.00    -0.387 OA
ATOM     50  H   UNL     1       4.355  -3.784   3.229  1.00  0.00     0.211 HD
ENDBRANCH   7  49
ENDBRANCH   1   2
BRANCH   1  51
ATOM     51  C   UNL     1       6.402  -0.676  -1.880  1.00  0.00     0.283 C 
ATOM     52  O   UNL     1       6.021   0.656  -2.218  1.00  0.00    -0.332 OA
ATOM     53  C   UNL     1       6.595  -1.538  -3.159  1.00  0.00     0.202 C 
ATOM     54  C   UNL     1       7.138   1.326  -2.808  1.00  0.00     0.262 C 
ATOM     55  C   UNL     1       6.790  -0.655  -4.420  1.00  0.00     0.180 C 
ATOM     56  C   UNL     1       7.611   0.622  -4.131  1.00  0.00     0.186 C 
BRANCH  53  57
ATOM     57  O   UNL     1       7.626  -2.478  -2.980  1.00  0.00    -0.385 OA
ATOM     58  H   UNL     1       8.479  -1.989  -2.872  1.00  0.00     0.211 HD
ENDBRANCH  53  57
BRANCH  54  59
ATOM     59  C   UNL     1       6.844   2.786  -3.078  1.00  0.00     0.335 C 
ATOM     60  O   UNL     1       7.751   3.519  -3.443  1.00  0.00    -0.249 OA
BRANCH  59  61
ATOM     61  O   UNL     1       5.606   3.303  -2.949  1.00  0.00    -0.479 OA
ATOM     62  H   UNL     1       4.843   2.752  -2.746  1.00  0.00     0.296 HD
ENDBRANCH  59  61
ENDBRANCH  54  59
BRANCH  55  63
ATOM     63  O   UNL     1       5.532  -0.279  -4.945  1.00  0.00    -0.387 OA
ATOM     64  H   UNL     1       4.954   0.082  -4.226  1.00  0.00     0.211 HD
ENDBRANCH  55  63
BRANCH  56  65
ATOM     65  O   UNL     1       8.997   0.373  -4.128  1.00  0.00    -0.387 OA
ATOM     66  H   UNL     1       9.256   0.011  -3.247  1.00  0.00     0.211 HD
ENDBRANCH  56  65
ENDBRANCH   1  51
TORSDOF 13
