REMARK SMILES CCCCCCCC/[N+]([O-])=N/[C@@H](COC)[C@H](C)O
REMARK SMILES IDX 7 1 6 2 5 3 4 4 3 5 2 6 1 7 8 8 9 9 11 10 10 11 12 12 13 13
REMARK SMILES IDX 14 14 15 15 16 16 17 17 18 18
REMARK H PARENT 18 19
ROOT
ATOM      1  C   UNL     1       0.907   0.040   0.767  1.00  0.00     0.077 C 
ENDROOT
BRANCH   1   2
ATOM      2  C   UNL     1       1.309  -0.977  -0.319  1.00  0.00     0.007 C 
BRANCH   2   3
ATOM      3  C   UNL     1       2.418  -1.948   0.136  1.00  0.00     0.000 C 
BRANCH   3   4
ATOM      4  C   UNL     1       3.749  -1.283   0.539  1.00  0.00    -0.000 C 
BRANCH   4   5
ATOM      5  C   UNL     1       4.380  -0.463  -0.602  1.00  0.00    -0.000 C 
BRANCH   5   6
ATOM      6  C   UNL     1       5.738   0.151  -0.228  1.00  0.00    -0.003 C 
ATOM      7  C   UNL     1       5.639   1.193   0.888  1.00  0.00     0.004 C 
ENDBRANCH   5   6
ENDBRANCH   4   5
ENDBRANCH   3   4
ENDBRANCH   2   3
ENDBRANCH   1   2
BRANCH   1   8
ATOM      8  C   UNL     1      -0.125   1.083   0.301  1.00  0.00     0.396 C 
BRANCH   8   9
ATOM      9  N   UNL     1      -1.408   0.502  -0.042  1.00  0.00    -0.097 N 
ATOM     10  N   UNL     1      -2.426   0.826   0.618  1.00  0.00    -0.024 NA
ATOM     11  O   UNL     1      -1.499  -0.299  -1.083  1.00  0.00    -0.600 OA
BRANCH  10  12
ATOM     12  C   UNL     1      -3.780   0.352   0.356  1.00  0.00     0.229 C 
BRANCH  12  13
ATOM     13  C   UNL     1      -4.281   0.822  -1.035  1.00  0.00     0.196 C 
BRANCH  13  14
ATOM     14  O   UNL     1      -4.401   2.234  -1.099  1.00  0.00    -0.382 OA
ATOM     15  C   UNL     1      -3.191   2.854  -1.483  1.00  0.00     0.195 C 
ENDBRANCH  13  14
ENDBRANCH  12  13
BRANCH  12  16
ATOM     16  C   UNL     1      -3.863  -1.187   0.587  1.00  0.00     0.144 C 
ATOM     17  C   UNL     1      -5.285  -1.756   0.455  1.00  0.00     0.041 C 
BRANCH  16  18
ATOM     18  O   UNL     1      -3.354  -1.504   1.859  1.00  0.00    -0.391 OA
ATOM     19  H   UNL     1      -3.925  -1.051   2.535  1.00  0.00     0.211 HD
ENDBRANCH  16  18
ENDBRANCH  12  16
ENDBRANCH  10  12
ENDBRANCH   8   9
ENDBRANCH   1   8
TORSDOF 12
