REMARK SMILES COc1ccc(C[C@H]2/C(O)=N\[C@@H](C)C(=O)N(C)[C@H]3Cc4ccc(cc4)Oc4cc(cc(N)c4OC)C[C@@H](/C(O)=N\[C@H](C)/C(O)=N\[C@@H](C)C(=O)N2C)N(C)C3=O)cc1
REMARK SMILES IDX 16 1 17 2 14 3 15 4 12 5 13 6 11 7 9 8 8 9 7 10 6 11 3 12
REMARK SMILES IDX 4 13 57 14 5 15 56 16 2 17 1 18 50 19 51 20 48 21 49 22
REMARK SMILES IDX 10 24 18 26 19 27 20 28 21 29 25 30 22 31 24 32 23 33 26 34
REMARK SMILES IDX 27 35 28 36 33 37 29 38 31 39 30 40 34 41 35 42 36 43 32 45
REMARK SMILES IDX 54 48 55 49 52 50 53 51 37 52 38 54 40 55 39 56 41 58 42 59
REMARK SMILES IDX 43 60 45 61 44 62 46 64 47 65
REMARK H PARENT 10 25 32 46 32 47 39 57 44 63
REMARK Flexibility Score:  205.800
ROOT
ATOM      1  N   UNL     1      -0.030   2.313  -0.162  1.00  0.00    -0.332 N 
ATOM      2  C   UNL     1       0.754   2.369  -1.396  1.00  0.00     0.147 C 
ENDROOT
BRANCH   1   3
ATOM      3  C   UNL     1       0.485   2.219   1.133  1.00  0.00     0.247 C 
ATOM      4  O   UNL     1      -0.307   2.185   2.068  1.00  0.00    -0.272 OA
BRANCH   3   5
ATOM      5  C   UNL     1       1.944   2.088   1.605  1.00  0.00     0.195 C 
ATOM      6  C   UNL     1       2.296   3.263   2.520  1.00  0.00     0.044 C 
BRANCH   5   7
ATOM      7  N   UNL     1       2.942   2.027   0.560  1.00  0.00    -0.241 NA
ATOM      8  C   UNL     1       3.790   1.099   0.235  1.00  0.00     0.205 C 
BRANCH   8   9
ATOM      9  C   UNL     1       3.895  -0.278   0.937  1.00  0.00     0.175 C 
BRANCH   9  10
ATOM     10  C   UNL     1       5.155  -0.457   1.836  1.00  0.00     0.070 C 
BRANCH  10  11
ATOM     11  C   UNL     1       6.536  -0.321   1.237  1.00  0.00    -0.045 A 
ATOM     12  C   UNL     1       9.167  -0.059   0.242  1.00  0.00     0.118 A 
ATOM     13  C   UNL     1       8.671  -1.321   0.627  1.00  0.00     0.046 A 
ATOM     14  C   UNL     1       8.339   1.062   0.366  1.00  0.00     0.046 A 
ATOM     15  C   UNL     1       7.370  -1.447   1.124  1.00  0.00     0.007 A 
ATOM     16  C   UNL     1       7.040   0.936   0.865  1.00  0.00     0.007 A 
BRANCH  12  17
ATOM     17  O   UNL     1      10.426   0.121  -0.234  1.00  0.00    -0.497 OA
ATOM     18  C   UNL     1      11.382  -0.865  -0.374  1.00  0.00     0.278 C 
ENDBRANCH  12  17
ENDBRANCH  10  11
ENDBRANCH   9  10
BRANCH   9  19
ATOM     19  N   UNL     1       3.683  -1.442   0.036  1.00  0.00    -0.332 N 
ATOM     20  C   UNL     1       4.427  -1.522  -1.222  1.00  0.00     0.147 C 
BRANCH  19  21
ATOM     21  C   UNL     1       2.857  -2.506   0.389  1.00  0.00     0.247 CG1
ATOM     22  O   UNL     1       2.764  -3.472  -0.358  1.00  0.00    -0.272 OA
ATOM     23  G   UNL     1       2.112  -2.592   1.723  1.00  0.00     0.000 G1
ENDBRANCH  19  21
ENDBRANCH   9  19
ENDBRANCH   8   9
BRANCH   8  24
ATOM     24  O   UNL     1       4.633   1.421  -0.772  1.00  0.00    -0.495 OA
ATOM     25  H   UNL     1       5.357   0.869  -1.085  1.00  0.00     0.295 HD
ENDBRANCH   8  24
ENDBRANCH   5   7
ENDBRANCH   3   5
ENDBRANCH   1   3
BRANCH   1  26
ATOM     26  C   UNL     1      -1.504   2.306  -0.288  1.00  0.00     0.178 C 
BRANCH  26  27
ATOM     27  C   UNL     1      -2.128   3.637   0.306  1.00  0.00     0.070 C 
BRANCH  27  28
ATOM     28  C   UNL     1      -3.608   3.430   0.349  1.00  0.00    -0.045 A 
ATOM     29  C   UNL     1      -4.092   2.515   1.282  1.00  0.00     0.007 A 
ATOM     30  C   UNL     1      -4.462   3.971  -0.633  1.00  0.00     0.007 A 
ATOM     31  C   UNL     1      -5.372   2.031   1.162  1.00  0.00     0.047 A 
ATOM     32  C   UNL     1      -5.763   3.468  -0.766  1.00  0.00     0.047 A 
ATOM     33  C   UNL     1      -6.181   2.440   0.088  1.00  0.00     0.127 A 
BRANCH  33  34
ATOM     34  O   UNL     1      -7.225   1.641  -0.240  1.00  0.00    -0.453 OA
BRANCH  34  35
ATOM     35  C   UNL     1      -6.842   0.347  -0.497  1.00  0.00     0.171 A 
ATOM     36  C   UNL     1      -5.638   0.108  -1.220  1.00  0.00     0.055 A 
ATOM     37  C   UNL     1      -7.543  -0.742   0.041  1.00  0.00     0.184 A 
ATOM     38  C   UNL     1      -5.086  -1.161  -1.341  1.00  0.00    -0.039 A 
ATOM     39  C   UNL     1      -7.020  -2.043  -0.109  1.00  0.00     0.078 A 
ATOM     40  C   UNL     1      -5.793  -2.240  -0.776  1.00  0.00     0.033 A 
BRANCH  37  41
ATOM     41  O   UNL     1      -8.682  -0.555   0.748  1.00  0.00    -0.491 OA
ATOM     42  C   UNL     1      -8.689  -0.016   2.018  1.00  0.00     0.278 C 
ENDBRANCH  37  41
BRANCH  38  43
ATOM     43  C   UNL     1      -3.734  -1.379  -2.029  1.00  0.00     0.071 CG0
ATOM     44  G   UNL     1      -2.561  -0.383  -1.633  1.00  0.00     0.000 G0
ENDBRANCH  38  43
BRANCH  39  45
ATOM     45  N   UNL     1      -7.694  -3.155   0.460  1.00  0.00    -0.396 N 
ATOM     46  H   UNL     1      -7.298  -4.103   0.385  1.00  0.00     0.156 HD
ATOM     47  H   UNL     1      -8.577  -3.036   0.977  1.00  0.00     0.156 HD
ENDBRANCH  39  45
ENDBRANCH  34  35
ENDBRANCH  33  34
ENDBRANCH  27  28
ENDBRANCH  26  27
BRANCH  26  48
ATOM     48  C   UNL     1      -2.041   2.127  -1.729  1.00  0.00     0.246 C 
ATOM     49  O   UNL     1      -1.975   3.128  -2.435  1.00  0.00    -0.272 OA
BRANCH  48  50
ATOM     50  N   UNL     1      -2.636   0.980  -2.257  1.00  0.00    -0.332 N 
ATOM     51  C   UNL     1      -3.207   1.154  -3.604  1.00  0.00     0.147 C 
BRANCH  50  52
ATOM     52  C   UNL     1      -2.561  -0.383  -1.633  1.00  0.00     0.175 CG0
ATOM     53  G   UNL     1      -3.734  -1.379  -2.029  1.00  0.00     0.000 G0
BRANCH  52  54
ATOM     54  C   UNL     1      -1.211  -1.019  -2.023  1.00  0.00     0.205 C 
ATOM     55  N   UNL     1      -0.479  -1.803  -1.288  1.00  0.00    -0.241 NA
BRANCH  54  56
ATOM     56  O   UNL     1      -0.757  -0.853  -3.287  1.00  0.00    -0.495 OA
ATOM     57  H   UNL     1      -1.224  -0.379  -3.982  1.00  0.00     0.295 HD
ENDBRANCH  54  56
BRANCH  55  58
ATOM     58  C   UNL     1      -0.524  -2.398   0.044  1.00  0.00     0.191 C 
ATOM     59  C   UNL     1      -1.835  -3.129   0.345  1.00  0.00     0.044 C 
BRANCH  58  60
ATOM     60  C   UNL     1      -0.084  -1.481   1.187  1.00  0.00     0.206 C 
ATOM     61  N   UNL     1       1.030  -1.618   1.845  1.00  0.00    -0.241 NA
BRANCH  60  62
ATOM     62  O   UNL     1      -0.916  -0.522   1.631  1.00  0.00    -0.495 OA
ATOM     63  H   UNL     1      -1.839  -0.465   1.373  1.00  0.00     0.295 HD
ENDBRANCH  60  62
BRANCH  61  64
ATOM     64  C   UNL     1       2.112  -2.592   1.723  1.00  0.00     0.195 CG1
ATOM     65  C   UNL     1       1.652  -4.015   2.111  1.00  0.00     0.044 C 
ATOM     66  G   UNL     1       2.857  -2.506   0.389  1.00  0.00     0.000 G1
ENDBRANCH  61  64
ENDBRANCH  58  60
ENDBRANCH  55  58
ENDBRANCH  52  54
ENDBRANCH  50  52
ENDBRANCH  48  50
ENDBRANCH  26  48
ENDBRANCH   1  26
TORSDOF 8
