REMARK SMILES Cc1cc(=O)oc2c(C)c(O)c(CN(C)C)cc12
REMARK SMILES IDX 1 1 2 2 3 3 4 4 5 5 6 6 7 7 8 8 9 9 10 10 12 11 17 12 18 13
REMARK SMILES IDX 13 14 14 15 15 16 16 17 11 18
REMARK H PARENT 11 19
ROOT
ATOM      1  C   UNL     1      -2.332   2.925   0.508  1.00  0.00     0.045 C 
ATOM      2  C   UNL     1      -2.590   1.439   0.516  1.00  0.00    -0.033 A 
ATOM      3  C   UNL     1      -3.843   0.968   0.926  1.00  0.00     0.098 A 
ATOM      4  C   UNL     1      -4.087  -0.404   0.939  1.00  0.00     0.336 A 
ATOM      5  O   UNL     1      -5.173  -0.826   1.294  1.00  0.00    -0.246 OA
ATOM      6  O   UNL     1      -3.142  -1.258   0.567  1.00  0.00    -0.422 OA
ATOM      7  C   UNL     1      -1.931  -0.876   0.168  1.00  0.00     0.145 A 
ATOM      8  C   UNL     1      -0.974  -1.846  -0.208  1.00  0.00     0.035 A 
ATOM      9  C   UNL     1      -1.322  -3.316  -0.164  1.00  0.00     0.052 C 
ATOM     10  C   UNL     1       0.314  -1.430  -0.625  1.00  0.00     0.126 A 
ATOM     11  C   UNL     1       0.632  -0.059  -0.666  1.00  0.00     0.009 A 
ATOM     12  C   UNL     1      -0.326   0.892  -0.296  1.00  0.00     0.021 A 
ATOM     13  C   UNL     1      -1.606   0.502   0.126  1.00  0.00     0.021 A 
ENDROOT
BRANCH  11  14
ATOM     14  C   UNL     1       2.007   0.405  -1.098  1.00  0.00     0.123 C 
BRANCH  14  15
ATOM     15  N   UNL     1       3.060  -0.104  -0.193  1.00  0.00    -0.305 NA
ATOM     16  C   UNL     1       4.386   0.254  -0.720  1.00  0.00     0.105 C 
ATOM     17  C   UNL     1       2.906   0.442   1.168  1.00  0.00     0.105 C 
ENDBRANCH  14  15
ENDBRANCH  11  14
BRANCH  10  18
ATOM     18  O   UNL     1       1.261  -2.325  -0.991  1.00  0.00    -0.507 OA
ATOM     19  H   UNL     1       1.131  -3.283  -0.995  1.00  0.00     0.293 HD
ENDBRANCH  10  18
TORSDOF 3
