REMARK SMILES CC[C@H](C)[C@H]1NC(=O)[C@H](CC(C)C)NC(=O)[C@H]2CCCN2C(=O)CNC(=O)[C@@H](Cc2ccc(O)cc2)NC(=O)CNC(=O)[C@H](CC(C)C)NC1=O
REMARK SMILES IDX 17 1 18 2 19 3 20 4 21 5 15 6 14 7 16 8 9 10 7 11 6 12 8 13
REMARK SMILES IDX 5 15 3 16 4 17 2 18 1 19 50 20 49 21 51 22 44 24 45 26 46 27
REMARK SMILES IDX 47 28 48 29 10 30 11 31 12 32 13 33 22 34 23 35 24 36 25 37
REMARK SMILES IDX 26 38 27 39 28 41 29 42 30 43 31 44 36 45 32 46 35 47 33 48
REMARK SMILES IDX 34 49 37 51 38 52 39 53 40 55 41 56 42 57 43 58
REMARK H PARENT 14 9 6 14 49 23 25 40 34 50 37 54 41 59
REMARK Flexibility Score:  215.900
ROOT
ATOM      1  C   UNL     1       0.265  -4.456   1.937  1.00  0.00     0.174 C 
ATOM      2  C   UNL     1      -1.050  -4.865   1.268  1.00  0.00     0.037 C 
ATOM      3  C   UNL     1      -0.863  -4.382  -0.155  1.00  0.00     0.024 C 
ATOM      4  C   UNL     1       0.583  -4.772  -0.430  1.00  0.00     0.120 C 
ATOM      5  N   UNL     1       1.243  -4.575   0.848  1.00  0.00    -0.329 N 
ENDROOT
BRANCH   1   6
ATOM      6  C   UNL     1       0.379  -3.118   2.707  1.00  0.00     0.243 C 
ATOM      7  N   UNL     1      -0.548  -2.118   2.889  1.00  0.00    -0.343 N 
ATOM      8  O   UNL     1       1.426  -2.977   3.321  1.00  0.00    -0.273 OA
ATOM      9  H   UNL     1      -0.261  -1.407   3.585  1.00  0.00     0.164 HD
BRANCH   7  10
ATOM     10  C   UNL     1      -1.876  -1.862   2.326  1.00  0.00     0.171 C 
BRANCH  10  11
ATOM     11  C   UNL     1      -1.886  -0.398   1.827  1.00  0.00     0.243 C 
ATOM     12  N   UNL     1      -2.989   0.242   1.323  1.00  0.00    -0.342 N 
ATOM     13  O   UNL     1      -0.834   0.231   1.897  1.00  0.00    -0.273 OA
ATOM     14  H   UNL     1      -3.886  -0.246   1.253  1.00  0.00     0.164 HD
BRANCH  12  15
ATOM     15  C   UNL     1      -2.899   1.645   0.895  1.00  0.00     0.174 C 
BRANCH  15  16
ATOM     16  C   UNL     1      -4.267   2.378   0.771  1.00  0.00     0.018 C 
ATOM     17  C   UNL     1      -5.132   1.829  -0.380  1.00  0.00     0.010 C 
BRANCH  16  18
ATOM     18  C   UNL     1      -5.015   2.351   2.129  1.00  0.00     0.002 C 
ATOM     19  C   UNL     1      -6.243   3.264   2.170  1.00  0.00     0.004 C 
ENDBRANCH  16  18
ENDBRANCH  15  16
BRANCH  15  20
ATOM     20  C   UNL     1      -2.106   1.733  -0.392  1.00  0.00     0.243 C 
ATOM     21  N   UNL     1      -1.387   2.850  -0.715  1.00  0.00    -0.343 N 
ATOM     22  O   UNL     1      -2.106   0.763  -1.142  1.00  0.00    -0.273 OA
ATOM     23  H   UNL     1      -1.404   3.655  -0.071  1.00  0.00     0.164 HD
BRANCH  21  24
ATOM     24  C   UNL     1      -0.572   2.903  -1.931  1.00  0.00     0.171 CG0
ATOM     25  G   UNL     1       0.487   1.805  -1.901  1.00  0.00     0.000 G0
BRANCH  24  26
ATOM     26  C   UNL     1       0.042   4.304  -2.184  1.00  0.00     0.038 C 
BRANCH  26  27
ATOM     27  C   UNL     1      -0.945   5.411  -2.668  1.00  0.00    -0.015 C 
ATOM     28  C   UNL     1      -2.006   5.801  -1.634  1.00  0.00     0.007 C 
ATOM     29  C   UNL     1      -1.623   5.045  -4.002  1.00  0.00     0.007 C 
ENDBRANCH  26  27
ENDBRANCH  24  26
ENDBRANCH  21  24
ENDBRANCH  15  20
ENDBRANCH  12  15
ENDBRANCH  10  11
BRANCH  10  30
ATOM     30  C   UNL     1      -2.889  -2.181   3.463  1.00  0.00     0.038 C 
BRANCH  30  31
ATOM     31  C   UNL     1      -4.406  -2.143   3.149  1.00  0.00    -0.015 C 
ATOM     32  C   UNL     1      -5.192  -2.621   4.379  1.00  0.00     0.007 C 
ATOM     33  C   UNL     1      -4.776  -3.022   1.942  1.00  0.00     0.007 C 
ENDBRANCH  30  31
ENDBRANCH  10  30
ENDBRANCH   7  10
ENDBRANCH   1   6
BRANCH   5  34
ATOM     34  C   UNL     1       2.609  -4.584   1.025  1.00  0.00     0.242 C 
ATOM     35  O   UNL     1       3.078  -4.470   2.148  1.00  0.00    -0.273 OA
BRANCH  34  36
ATOM     36  C   UNL     1       3.612  -4.718  -0.108  1.00  0.00     0.216 C 
BRANCH  36  37
ATOM     37  N   UNL     1       4.353  -3.468  -0.245  1.00  0.00    -0.345 N 
ATOM     38  C   UNL     1       3.752  -2.364  -0.772  1.00  0.00     0.243 C 
ATOM     39  O   UNL     1       2.602  -2.460  -1.175  1.00  0.00    -0.273 OA
ATOM     40  H   UNL     1       5.334  -3.433   0.065  1.00  0.00     0.164 HD
BRANCH  38  41
ATOM     41  C   UNL     1       4.423  -0.988  -0.844  1.00  0.00     0.175 C 
BRANCH  41  42
ATOM     42  C   UNL     1       5.827  -1.002  -1.513  1.00  0.00     0.070 C 
BRANCH  42  43
ATOM     43  C   UNL     1       6.578   0.306  -1.363  1.00  0.00    -0.045 A 
ATOM     44  C   UNL     1       6.121   1.493  -1.963  1.00  0.00     0.007 A 
ATOM     45  C   UNL     1       7.775   0.338  -0.622  1.00  0.00     0.007 A 
ATOM     46  C   UNL     1       6.841   2.684  -1.815  1.00  0.00     0.046 A 
ATOM     47  C   UNL     1       8.493   1.528  -0.478  1.00  0.00     0.046 A 
ATOM     48  C   UNL     1       8.029   2.705  -1.072  1.00  0.00     0.115 A 
BRANCH  48  49
ATOM     49  O   UNL     1       8.734   3.845  -0.923  1.00  0.00    -0.508 OA
ATOM     50  H   UNL     1       8.449   4.681  -1.318  1.00  0.00     0.293 HD
ENDBRANCH  48  49
ENDBRANCH  42  43
ENDBRANCH  41  42
BRANCH  41  51
ATOM     51  N   UNL     1       3.449  -0.082  -1.470  1.00  0.00    -0.342 N 
ATOM     52  C   UNL     1       3.063  -0.213  -2.781  1.00  0.00     0.240 C 
ATOM     53  O   UNL     1       3.755  -0.839  -3.567  1.00  0.00    -0.273 OA
ATOM     54  H   UNL     1       2.876   0.477  -0.824  1.00  0.00     0.164 HD
BRANCH  52  55
ATOM     55  C   UNL     1       1.682   0.164  -3.260  1.00  0.00     0.216 C 
BRANCH  55  56
ATOM     56  N   UNL     1       1.192   1.510  -3.031  1.00  0.00    -0.345 N 
ATOM     57  C   UNL     1       0.487   1.805  -1.901  1.00  0.00     0.243 CG0
ATOM     58  O   UNL     1       0.587   1.089  -0.914  1.00  0.00    -0.273 OA
ATOM     59  H   UNL     1       1.029   2.091  -3.868  1.00  0.00     0.164 HD
ATOM     60  G   UNL     1      -0.572   2.903  -1.931  1.00  0.00     0.000 G0
ENDBRANCH  55  56
ENDBRANCH  52  55
ENDBRANCH  41  51
ENDBRANCH  38  41
ENDBRANCH  36  37
ENDBRANCH  34  36
ENDBRANCH   5  34
TORSDOF 9
