REMARK SMILES C=C(CC[C@@H](C)[C@H]1CC[C@@H]2[C@]1(C)C[C@H](O)[C@@H]1[C@@]3(C)CC[C@H](O)[C@@H](C)[C@@H]3CC[C@@]21O)C(C)C
REMARK SMILES IDX 4 1 3 2 2 3 1 4 30 5 31 6 32 7 5 8 6 9 7 10 8 11 11 12 9 13
REMARK SMILES IDX 10 14 13 15 28 16 14 17 27 18 16 19 26 20 17 21 25 22 19 23
REMARK SMILES IDX 23 24 20 25 21 26 12 27 18 28 24 29 29 30 15 32 22 34
REMARK H PARENT 29 31 15 33 22 35
ROOT
ATOM      1  C   UNL     1       3.678   1.869  -1.060  1.00  0.00     0.008 C 
ENDROOT
BRANCH   1   2
ATOM      2  C   UNL     1       3.536   0.732  -2.109  1.00  0.00     0.031 C 
BRANCH   2   3
ATOM      3  C   UNL     1       4.722  -0.223  -2.232  1.00  0.00    -0.075 C 
ATOM      4  C   UNL     1       5.439  -0.215  -3.374  1.00  0.00     0.008 C 
BRANCH   3   5
ATOM      5  C   UNL     1       5.081  -1.205  -1.121  1.00  0.00     0.008 C 
ATOM      6  C   UNL     1       6.493  -0.930  -0.581  1.00  0.00     0.012 C 
ATOM      7  C   UNL     1       4.958  -2.660  -1.595  1.00  0.00     0.012 C 
ENDBRANCH   3   5
ENDBRANCH   2   3
ENDBRANCH   1   2
BRANCH   1   8
ATOM      8  C   UNL     1       3.638   1.492   0.448  1.00  0.00    -0.010 C 
ATOM      9  C   UNL     1       3.924   2.744   1.293  1.00  0.00     0.008 C 
BRANCH   8  10
ATOM     10  C   UNL     1       2.352   0.693   0.870  1.00  0.00    -0.002 C 
ATOM     11  C   UNL     1       2.457  -0.015   2.249  1.00  0.00     0.005 C 
ATOM     12  C   UNL     1       0.874   1.230   0.863  1.00  0.00    -0.021 C 
ATOM     13  C   UNL     1       1.009  -0.426   2.622  1.00  0.00     0.007 C 
ATOM     14  C   UNL     1       0.189  -0.066   1.381  1.00  0.00     0.028 C 
ATOM     15  C   UNL     1       0.292   1.549  -0.540  1.00  0.00     0.039 C 
ATOM     16  C   UNL     1      -1.375  -0.059   1.438  1.00  0.00     0.074 C 
ATOM     17  C   UNL     1      -1.255   1.641  -0.568  1.00  0.00     0.121 C 
ATOM     18  C   UNL     1      -1.874  -1.486   1.798  1.00  0.00     0.036 C 
ATOM     19  C   UNL     1      -1.896   0.309  -0.011  1.00  0.00     0.056 C 
ATOM     20  C   UNL     1      -3.390  -1.654   1.646  1.00  0.00     0.007 C 
ATOM     21  C   UNL     1      -3.465   0.130  -0.206  1.00  0.00    -0.021 C 
ATOM     22  C   UNL     1      -3.814  -1.360   0.182  1.00  0.00     0.001 C 
ATOM     23  C   UNL     1      -3.821   0.324  -1.714  1.00  0.00     0.010 C 
ATOM     24  C   UNL     1      -5.303  -1.735  -0.137  1.00  0.00     0.018 C 
ATOM     25  C   UNL     1      -5.279  -0.021  -2.042  1.00  0.00     0.032 C 
ATOM     26  C   UNL     1      -5.588  -1.469  -1.645  1.00  0.00     0.117 C 
ATOM     27  C   UNL     1       0.712   2.458   1.814  1.00  0.00     0.012 C 
ATOM     28  C   UNL     1      -4.298   1.154   0.630  1.00  0.00     0.012 C 
ATOM     29  C   UNL     1      -5.607  -3.218   0.164  1.00  0.00     0.011 C 
BRANCH  16  30
ATOM     30  O   UNL     1      -1.842   0.863   2.391  1.00  0.00    -0.389 OA
ATOM     31  H   UNL     1      -1.591   0.538   3.294  1.00  0.00     0.211 HD
ENDBRANCH  16  30
BRANCH  17  32
ATOM     32  O   UNL     1      -1.696   2.837   0.029  1.00  0.00    -0.393 OA
ATOM     33  H   UNL     1      -2.120   2.648   0.896  1.00  0.00     0.210 HD
ENDBRANCH  17  32
BRANCH  26  34
ATOM     34  O   UNL     1      -6.916  -1.783  -1.982  1.00  0.00    -0.393 OA
ATOM     35  H   UNL     1      -7.509  -1.210  -1.429  1.00  0.00     0.210 HD
ENDBRANCH  26  34
ENDBRANCH   8  10
ENDBRANCH   1   8
TORSDOF 8
