REMARK SMILES CC(C)(O)[C@@H]1CC[C@]2(C)CC[C@]3(C)[C@H](CC[C@@H]4[C@@]5(C)CC[C@H](OC(=O)/C=C/c6ccc(O)cc6)C(C)(C)[C@@H]5CC[C@]43C)[C@@H]12
REMARK SMILES IDX 24 1 25 2 23 3 22 4 5 5 6 6 43 7 7 8 14 9 8 10 12 11 15 12
REMARK SMILES IDX 10 13 11 14 41 15 16 16 40 17 17 18 39 19 18 20 38 21 20 22
REMARK SMILES IDX 35 23 21 24 9 25 13 26 42 27 19 28 36 29 37 30 2 31 1 32
REMARK SMILES IDX 3 33 4 34 26 36 27 37 28 38 29 39 34 40 30 41 33 42 31 43
REMARK SMILES IDX 32 44
REMARK H PARENT 4 35 32 45
ROOT
ATOM      1  C   UNL     1       5.980  -2.416   0.673  1.00  0.00     0.331 C 
ATOM      2  O   UNL     1       5.772  -3.619   0.619  1.00  0.00    -0.247 OA
ENDROOT
BRANCH   1   3
ATOM      3  O   UNL     1       4.963  -1.524   0.669  1.00  0.00    -0.459 OA
BRANCH   3   4
ATOM      4  C   UNL     1       3.603  -1.713   0.527  1.00  0.00     0.182 C 
ATOM      5  C   UNL     1      -6.269   0.841   0.826  1.00  0.00     0.024 C 
ATOM      6  C   UNL     1      -7.613   0.421   0.158  1.00  0.00     0.007 C 
ATOM      7  C   UNL     1      -5.243   0.032  -0.049  1.00  0.00     0.004 C 
ATOM      8  C   UNL     1      -7.274  -0.002  -1.289  1.00  0.00     0.007 C 
ATOM      9  C   UNL     1      -3.686   0.224   0.035  1.00  0.00    -0.001 C 
ATOM     10  C   UNL     1      -5.804   0.382  -1.473  1.00  0.00    -0.029 C 
ATOM     11  C   UNL     1      -2.912  -0.500  -1.167  1.00  0.00    -0.024 C 
ATOM     12  C   UNL     1      -3.053  -0.300   1.360  1.00  0.00     0.005 C 
ATOM     13  C   UNL     1      -5.102  -0.445  -2.567  1.00  0.00     0.007 C 
ATOM     14  C   UNL     1      -3.587  -0.158  -2.548  1.00  0.00     0.008 C 
ATOM     15  C   UNL     1      -1.356  -0.018  -1.121  1.00  0.00    -0.024 C 
ATOM     16  C   UNL     1      -1.560   0.062   1.458  1.00  0.00     0.005 C 
ATOM     17  C   UNL     1      -0.527  -0.667  -2.265  1.00  0.00     0.008 C 
ATOM     18  C   UNL     1      -0.713  -0.482   0.266  1.00  0.00     0.002 C 
ATOM     19  C   UNL     1       0.986  -0.392  -2.167  1.00  0.00     0.005 C 
ATOM     20  C   UNL     1       0.872  -0.295   0.429  1.00  0.00    -0.026 C 
ATOM     21  C   UNL     1       1.565  -0.955  -0.842  1.00  0.00     0.005 C 
ATOM     22  C   UNL     1       1.381  -1.122   1.659  1.00  0.00     0.011 C 
ATOM     23  C   UNL     1       3.149  -1.032  -0.813  1.00  0.00     0.005 C 
ATOM     24  C   UNL     1       2.923  -1.135   1.779  1.00  0.00     0.046 C 
ATOM     25  C   UNL     1      -5.736   1.896  -1.896  1.00  0.00     0.011 C 
ATOM     26  C   UNL     1      -3.034  -2.075  -1.055  1.00  0.00     0.012 C 
ATOM     27  C   UNL     1      -1.282   1.540  -1.331  1.00  0.00     0.012 C 
ATOM     28  C   UNL     1       1.227   1.204   0.709  1.00  0.00     0.012 C 
ATOM     29  C   UNL     1       3.658  -1.948  -1.966  1.00  0.00     0.015 C 
ATOM     30  C   UNL     1       3.849   0.340  -1.039  1.00  0.00     0.015 C 
BRANCH   5  31
ATOM     31  C   UNL     1      -6.259   0.826   2.395  1.00  0.00     0.062 C 
ATOM     32  C   UNL     1      -7.654   1.176   2.978  1.00  0.00     0.042 C 
ATOM     33  C   UNL     1      -5.297   1.932   2.933  1.00  0.00     0.042 C 
BRANCH  31  34
ATOM     34  O   UNL     1      -5.888  -0.458   2.833  1.00  0.00    -0.390 OA
ATOM     35  H   UNL     1      -5.813  -0.433   3.823  1.00  0.00     0.211 HD
ENDBRANCH  31  34
ENDBRANCH   5  31
ENDBRANCH   3   4
ENDBRANCH   1   3
BRANCH   1  36
ATOM     36  C   UNL     1       7.364  -1.883   0.684  1.00  0.00     0.094 C 
ATOM     37  C   UNL     1       7.565  -0.548   0.725  1.00  0.00     0.015 C 
BRANCH  37  38
ATOM     38  C   UNL     1       8.876   0.151   0.714  1.00  0.00    -0.025 A 
ATOM     39  C   UNL     1      10.114  -0.517   0.631  1.00  0.00     0.012 A 
ATOM     40  C   UNL     1       8.866   1.556   0.780  1.00  0.00     0.012 A 
ATOM     41  C   UNL     1      11.308   0.215   0.616  1.00  0.00     0.047 A 
ATOM     42  C   UNL     1      10.058   2.281   0.767  1.00  0.00     0.047 A 
ATOM     43  C   UNL     1      11.282   1.616   0.684  1.00  0.00     0.115 A 
BRANCH  43  44
ATOM     44  O   UNL     1      12.424   2.333   0.669  1.00  0.00    -0.508 OA
ATOM     45  H   UNL     1      13.294   1.913   0.611  1.00  0.00     0.293 HD
ENDBRANCH  43  44
ENDBRANCH  37  38
ENDBRANCH   1  36
TORSDOF 7
