REMARK SMILES CO[C@@H]1C[C@H](O[C@H]2CC[C@@]3(C)C(=CC[C@H]4C(=O)O[C@@H]5CO[C@]6(C)OC=C(CC[C@@H]43)[C@H]56)C2)O[C@H](C)[C@H]1O[C@H]1C[C@@H](OC)[C@H](O[C@H]2C[C@@H](OC)[C@H](O[C@H]3C[C@@H](OC)[C@H](O[C@@H]4O[C@H](CO)[C@@H](O[C@@H]5O[C@H](CO)[C@@H](O)[C@H](O)[C@H]5O)[C@H](O)[C@H]4O)[C@@H](C)O3)[C@@H](C)O2)[C@@H](C)O1
REMARK SMILES IDX 43 1 42 2 37 3 38 4 88 5 39 6 86 7 87 8 36 9 35 10 3 11 4 12
REMARK SMILES IDX 5 13 33 14 32 15 34 16 2 17 1 18 6 19 7 20 8 21 31 22 9 23
REMARK SMILES IDX 12 24 10 25 13 26 29 27 14 28 15 29 11 30 16 32 17 33 18 34
REMARK SMILES IDX 19 35 20 36 30 37 21 38 26 39 22 40 25 41 24 42 23 43 27 44
REMARK SMILES IDX 28 45 40 47 41 48 44 49 45 50 85 51 46 52 83 53 49 54 84 55
REMARK SMILES IDX 47 56 48 57 50 58 51 59 52 60 82 61 53 62 80 63 56 64 81 65
REMARK SMILES IDX 54 66 55 67 57 68 58 69 59 70 78 71 60 72 76 73 63 74 79 75
REMARK SMILES IDX 61 77 62 78 77 80 64 82 65 83 66 84 74 85 67 86 72 87 70 88
REMARK SMILES IDX 75 89 68 91 69 92 73 94 71 96
REMARK H PARENT 79 76 62 79 77 81 75 90 69 93 73 95 71 97
REMARK Flexibility Score:  883.900
ROOT
ATOM      1  O   UNL     1       1.167   2.702  -0.926  1.00  0.00    -0.344 OA
ENDROOT
BRANCH   1   2
ATOM      2  C   UNL     1      -0.156   3.186  -1.105  1.00  0.00     0.179 C 
ATOM      3  C   UNL     1      -2.125   1.451   0.224  1.00  0.00     0.253 C 
ATOM      4  C   UNL     1      -1.242   0.947  -0.956  1.00  0.00     0.097 C 
ATOM      5  O   UNL     1      -2.140   2.877   0.317  1.00  0.00    -0.347 OA
ATOM      6  C   UNL     1      -0.935   2.108  -1.909  1.00  0.00     0.154 C 
ATOM      7  C   UNL     1      -0.813   3.378   0.300  1.00  0.00     0.150 C 
ATOM      8  C   UNL     1      -0.818   4.843   0.735  1.00  0.00     0.041 C 
BRANCH   3   9
ATOM      9  O   UNL     1      -3.465   0.995   0.029  1.00  0.00    -0.344 OA
BRANCH   9  10
ATOM     10  C   UNL     1      -3.852   0.048   1.027  1.00  0.00     0.179 C 
ATOM     11  C   UNL     1      -4.487   0.798   2.212  1.00  0.00     0.154 C 
ATOM     12  C   UNL     1      -5.776   1.520   1.740  1.00  0.00     0.097 C 
ATOM     13  C   UNL     1      -6.435   0.805   0.536  1.00  0.00     0.253 C 
ATOM     14  C   UNL     1      -4.904  -0.976   0.447  1.00  0.00     0.150 C 
ATOM     15  O   UNL     1      -6.270  -0.590   0.643  1.00  0.00    -0.347 OA
ATOM     16  C   UNL     1      -4.739  -2.360   1.095  1.00  0.00     0.041 C 
BRANCH  11  17
ATOM     17  O   UNL     1      -4.817  -0.148   3.217  1.00  0.00    -0.378 OA
ATOM     18  C   UNL     1      -4.529   0.364   4.500  1.00  0.00     0.195 C 
ENDBRANCH  11  17
BRANCH  13  19
ATOM     19  O   UNL     1      -7.821   1.128   0.508  1.00  0.00    -0.349 OA
BRANCH  19  20
ATOM     20  C   UNL     1      -8.331   1.209  -0.817  1.00  0.00     0.125 C 
ATOM     21  C   UNL     1      -8.831  -0.149  -1.332  1.00  0.00     0.033 C 
ATOM     22  C   UNL     1      -9.493   2.200  -0.872  1.00  0.00     0.063 C 
ATOM     23  C   UNL     1      -9.844  -0.744  -0.343  1.00  0.00     0.014 C 
ATOM     24  C   UNL     1     -10.855   1.635  -0.490  1.00  0.00    -0.065 C 
ATOM     25  C   UNL     1     -11.060   0.195   0.047  1.00  0.00    -0.008 C 
ATOM     26  C   UNL     1     -11.900   2.413  -0.868  1.00  0.00    -0.026 C 
ATOM     27  C   UNL     1     -12.428  -0.373  -0.526  1.00  0.00     0.014 CG0
ATOM     28  C   UNL     1     -13.342   1.993  -0.866  1.00  0.00     0.043 C 
ATOM     29  C   UNL     1     -13.599   0.642  -0.194  1.00  0.00     0.107 C 
ATOM     30  C   UNL     1     -11.086   0.279   1.600  1.00  0.00     0.016 C 
ATOM     31  G   UNL     1     -12.803  -1.820  -0.046  1.00  0.00     0.000 G0
BRANCH  29  32
ATOM     32  C   UNL     1     -15.019   0.143  -0.454  1.00  0.00     0.309 C 
ATOM     33  O   UNL     1     -15.695   0.572  -1.379  1.00  0.00    -0.252 OA
BRANCH  32  34
ATOM     34  O   UNL     1     -15.532  -0.769   0.410  1.00  0.00    -0.459 OA
BRANCH  34  35
ATOM     35  C   UNL     1     -16.586  -1.644   0.206  1.00  0.00     0.216 C 
ATOM     36  C   UNL     1     -16.920  -2.353   1.500  1.00  0.00     0.211 C 
ATOM     37  C   UNL     1     -16.251  -2.826  -0.693  1.00  0.00     0.134 C 
ATOM     38  O   UNL     1     -17.650  -3.500   1.138  1.00  0.00    -0.336 OA
ATOM     39  C   UNL     1     -14.837  -3.299  -0.579  1.00  0.00    -0.022 C 
ATOM     40  C   UNL     1     -17.012  -3.988  -0.029  1.00  0.00     0.217 C 
ATOM     41  C   UNL     1     -14.800  -4.477   0.008  1.00  0.00     0.190 C 
ATOM     42  O   UNL     1     -16.034  -4.905   0.328  1.00  0.00    -0.469 OA
ATOM     43  C   UNL     1     -18.036  -4.622  -0.972  1.00  0.00     0.091 C 
BRANCH  39  44
ATOM     44  C   UNL     1     -13.685  -2.505  -1.123  1.00  0.00     0.035 C 
BRANCH  44  45
ATOM     45  C   UNL     1     -12.803  -1.820  -0.046  1.00  0.00     0.010 CG0
ATOM     46  G   UNL     1     -12.428  -0.373  -0.526  1.00  0.00     0.000 G0
ENDBRANCH  44  45
ENDBRANCH  39  44
ENDBRANCH  34  35
ENDBRANCH  32  34
ENDBRANCH  29  32
ENDBRANCH  19  20
ENDBRANCH  13  19
ENDBRANCH   9  10
ENDBRANCH   3   9
BRANCH   6  47
ATOM     47  O   UNL     1      -2.164   2.633  -2.393  1.00  0.00    -0.378 OA
ATOM     48  C   UNL     1      -2.021   3.113  -3.714  1.00  0.00     0.195 C 
ENDBRANCH   6  47
ENDBRANCH   1   2
BRANCH   1  49
ATOM     49  C   UNL     1       2.167   3.705  -0.885  1.00  0.00     0.253 C 
ATOM     50  C   UNL     1       2.966   3.600   0.427  1.00  0.00     0.097 C 
ATOM     51  O   UNL     1       3.015   3.617  -2.029  1.00  0.00    -0.347 OA
ATOM     52  C   UNL     1       3.759   2.285   0.473  1.00  0.00     0.154 C 
ATOM     53  C   UNL     1       3.825   2.438  -2.072  1.00  0.00     0.150 C 
ATOM     54  C   UNL     1       4.655   2.224  -0.775  1.00  0.00     0.179 C 
ATOM     55  C   UNL     1       3.041   1.200  -2.548  1.00  0.00     0.041 C 
BRANCH  52  56
ATOM     56  O   UNL     1       2.881   1.170   0.488  1.00  0.00    -0.378 OA
ATOM     57  C   UNL     1       2.692   0.696   1.802  1.00  0.00     0.195 C 
ENDBRANCH  52  56
BRANCH  54  58
ATOM     58  O   UNL     1       5.623   3.264  -0.700  1.00  0.00    -0.344 OA
BRANCH  58  59
ATOM     59  C   UNL     1       6.925   2.775  -0.413  1.00  0.00     0.253 C 
ATOM     60  C   UNL     1       7.905   3.883  -0.801  1.00  0.00     0.097 C 
ATOM     61  O   UNL     1       6.994   2.412   0.973  1.00  0.00    -0.347 OA
ATOM     62  C   UNL     1       9.349   3.442  -0.550  1.00  0.00     0.154 C 
ATOM     63  C   UNL     1       8.232   2.665   1.645  1.00  0.00     0.150 C 
ATOM     64  C   UNL     1       9.477   2.570   0.726  1.00  0.00     0.179 C 
ATOM     65  C   UNL     1       8.160   3.956   2.473  1.00  0.00     0.041 C 
BRANCH  62  66
ATOM     66  O   UNL     1      10.152   4.608  -0.449  1.00  0.00    -0.378 OA
ATOM     67  C   UNL     1      11.282   4.510  -1.288  1.00  0.00     0.195 C 
ENDBRANCH  62  66
BRANCH  64  68
ATOM     68  O   UNL     1       9.617   1.198   0.347  1.00  0.00    -0.341 OA
BRANCH  68  69
ATOM     69  C   UNL     1      10.789   0.602   0.896  1.00  0.00     0.282 C 
ATOM     70  O   UNL     1      11.821   0.694  -0.099  1.00  0.00    -0.341 OA
ATOM     71  C   UNL     1      10.451  -0.863   1.337  1.00  0.00     0.202 C 
ATOM     72  C   UNL     1      12.801  -0.310   0.065  1.00  0.00     0.178 C 
ATOM     73  C   UNL     1      10.713  -1.800   0.152  1.00  0.00     0.180 C 
ATOM     74  C   UNL     1      12.223  -1.726  -0.237  1.00  0.00     0.184 C 
BRANCH  71  75
ATOM     75  O   UNL     1      11.271  -1.238   2.418  1.00  0.00    -0.385 OA
ATOM     76  H   UNL     1      10.883  -2.069   2.798  1.00  0.00     0.211 HD
ENDBRANCH  71  75
BRANCH  72  77
ATOM     77  C   UNL     1      14.021  -0.020  -0.817  1.00  0.00     0.191 C 
BRANCH  77  78
ATOM     78  O   UNL     1      14.575   1.227  -0.495  1.00  0.00    -0.394 OA
ATOM     79  H   UNL     1      14.055   1.909  -0.996  1.00  0.00     0.210 HD
ENDBRANCH  77  78
ENDBRANCH  72  77
BRANCH  73  80
ATOM     80  O   UNL     1       9.864  -1.452  -0.921  1.00  0.00    -0.387 OA
ATOM     81  H   UNL     1      10.286  -0.734  -1.460  1.00  0.00     0.211 HD
ENDBRANCH  73  80
BRANCH  74  82
ATOM     82  O   UNL     1      12.970  -2.635   0.562  1.00  0.00    -0.341 OA
BRANCH  82  83
ATOM     83  C   UNL     1      13.541  -3.701  -0.173  1.00  0.00     0.282 C 
ATOM     84  O   UNL     1      12.607  -4.757  -0.283  1.00  0.00    -0.341 OA
ATOM     85  C   UNL     1      14.811  -4.180   0.582  1.00  0.00     0.202 C 
ATOM     86  C   UNL     1      13.058  -5.788  -1.173  1.00  0.00     0.178 C 
ATOM     87  C   UNL     1      15.186  -5.652   0.207  1.00  0.00     0.179 C 
ATOM     88  C   UNL     1      14.619  -5.997  -1.182  1.00  0.00     0.177 C 
BRANCH  85  89
ATOM     89  O   UNL     1      15.872  -3.287   0.344  1.00  0.00    -0.385 OA
ATOM     90  H   UNL     1      16.132  -3.365  -0.610  1.00  0.00     0.211 HD
ENDBRANCH  85  89
BRANCH  86  91
ATOM     91  C   UNL     1      12.331  -7.094  -0.793  1.00  0.00     0.191 C 
BRANCH  91  92
ATOM     92  O   UNL     1      10.942  -6.927  -0.898  1.00  0.00    -0.394 OA
ATOM     93  H   UNL     1      10.639  -6.512  -0.049  1.00  0.00     0.210 HD
ENDBRANCH  91  92
ENDBRANCH  86  91
BRANCH  87  94
ATOM     94  O   UNL     1      14.707  -6.578   1.159  1.00  0.00    -0.387 OA
ATOM     95  H   UNL     1      13.877  -6.230   1.575  1.00  0.00     0.211 HD
ENDBRANCH  87  94
BRANCH  88  96
ATOM     96  O   UNL     1      15.216  -5.149  -2.130  1.00  0.00    -0.387 OA
ATOM     97  H   UNL     1      15.012  -5.527  -3.025  1.00  0.00     0.211 HD
ENDBRANCH  88  96
ENDBRANCH  82  83
ENDBRANCH  74  82
ENDBRANCH  68  69
ENDBRANCH  64  68
ENDBRANCH  58  59
ENDBRANCH  54  58
ENDBRANCH   1  49
TORSDOF 25
