REMARK SMILES CC(=O)O[C@H]1CC[C@](C)([C@@H]2C[C@H]3C=CO[C@H]3O2)[C@H]2C[C@@H]3C[C@]4(CO4)[C@]12[C@@H](OC(=O)C(C)C)O3
REMARK SMILES IDX 5 1 6 2 7 3 8 4 9 5 18 6 19 7 20 8 21 9 22 10 23 11 24 12
REMARK SMILES IDX 25 13 26 14 33 15 4 16 2 17 3 18 1 19 27 20 28 21 29 22
REMARK SMILES IDX 30 23 31 24 32 25 10 26 11 27 17 28 12 29 16 30 13 31 15 32
REMARK SMILES IDX 14 33
REMARK H PARENT
ROOT
ATOM      1  C   UNL     1       0.324   1.512   0.047  1.00  0.00     0.192 C 
ATOM      2  C   UNL     1      -0.294   1.591  -1.352  1.00  0.00     0.047 C 
ATOM      3  C   UNL     1      -1.749   1.102  -1.283  1.00  0.00     0.013 C 
ATOM      4  C   UNL     1      -1.893  -0.394  -0.861  1.00  0.00    -0.002 C 
ATOM      5  C   UNL     1      -1.471  -1.271  -2.081  1.00  0.00     0.014 C 
ATOM      6  C   UNL     1      -1.041  -0.625   0.474  1.00  0.00     0.019 C 
ATOM      7  C   UNL     1      -0.922  -2.115   0.946  1.00  0.00     0.037 C 
ATOM      8  C   UNL     1       0.522  -2.425   1.405  1.00  0.00     0.126 C 
ATOM      9  C   UNL     1       0.925  -1.516   2.579  1.00  0.00     0.071 C 
ATOM     10  C   UNL     1       0.802  -0.080   2.067  1.00  0.00     0.110 C 
ATOM     11  C   UNL     1       0.652   0.996   3.086  1.00  0.00     0.197 C 
ATOM     12  O   UNL     1       1.889   0.718   2.458  1.00  0.00    -0.368 OA
ATOM     13  C   UNL     1       0.390   0.039   0.561  1.00  0.00     0.105 C 
ATOM     14  C   UNL     1       1.430  -0.878  -0.180  1.00  0.00     0.323 C 
ATOM     15  O   UNL     1       1.411  -2.229   0.306  1.00  0.00    -0.338 OA
ENDROOT
BRANCH   1  16
ATOM     16  O   UNL     1       1.574   2.115   0.043  1.00  0.00    -0.462 OA
BRANCH  16  17
ATOM     17  C   UNL     1       1.859   3.319   0.614  1.00  0.00     0.302 C 
ATOM     18  O   UNL     1       0.972   4.030   1.065  1.00  0.00    -0.253 OA
ATOM     19  C   UNL     1       3.274   3.791   0.674  1.00  0.00     0.139 C 
ENDBRANCH  16  17
ENDBRANCH   1  16
BRANCH  14  20
ATOM     20  O   UNL     1       2.713  -0.382  -0.006  1.00  0.00    -0.435 OA
BRANCH  20  21
ATOM     21  C   UNL     1       3.566   0.009  -0.992  1.00  0.00     0.310 C 
ATOM     22  O   UNL     1       3.228  -0.043  -2.168  1.00  0.00    -0.252 OA
BRANCH  21  23
ATOM     23  C   UNL     1       4.936   0.523  -0.605  1.00  0.00     0.093 C 
ATOM     24  C   UNL     1       5.750   0.992  -1.820  1.00  0.00     0.019 C 
ATOM     25  C   UNL     1       5.705  -0.555   0.164  1.00  0.00     0.019 C 
ENDBRANCH  21  23
ENDBRANCH  20  21
ENDBRANCH  14  20
BRANCH   4  26
ATOM     26  C   UNL     1      -3.429  -0.612  -0.577  1.00  0.00     0.129 C 
ATOM     27  C   UNL     1      -3.898  -2.008  -0.188  1.00  0.00     0.047 C 
ATOM     28  O   UNL     1      -4.217  -0.264  -1.703  1.00  0.00    -0.338 OA
ATOM     29  C   UNL     1      -5.384  -1.853  -0.343  1.00  0.00     0.086 C 
ATOM     30  C   UNL     1      -5.491  -0.860  -1.505  1.00  0.00     0.313 C 
ATOM     31  C   UNL     1      -6.077  -1.118   0.753  1.00  0.00     0.021 C 
ATOM     32  O   UNL     1      -6.377   0.116  -1.090  1.00  0.00    -0.472 OA
ATOM     33  C   UNL     1      -6.660  -0.005   0.215  1.00  0.00     0.186 C 
ENDBRANCH   4  26
TORSDOF 6
