REMARK SMILES CCCCC/C=C\C/C=C\CCCCCCCC(=O)O[C@H]1CC[C@]2(C)C3=C(CC[C@H]2[C@@H]1C)[C@]1(C)CC[C@H]([C@H](C)CCC(CC)=C(C)C)[C@@]1(C)CC3
REMARK SMILES IDX 14 1 13 2 12 3 11 4 10 5 9 6 8 7 7 8 6 9 5 10 4 11 3 12 2 13
REMARK SMILES IDX 1 14 15 15 16 16 17 17 18 18 19 19 20 20 21 21 22 22 31 23
REMARK SMILES IDX 23 24 30 25 24 26 29 27 26 28 28 29 27 30 51 31 33 32 50 33
REMARK SMILES IDX 35 34 48 35 36 36 37 37 32 38 25 39 34 40 49 41 38 42 39 43
REMARK SMILES IDX 40 44 41 45 42 46 45 47 46 48 47 49 43 50 44 51
REMARK H PARENT
ROOT
ATOM      1  C   UNL     1       6.726  -1.506  -2.683  1.00  0.00     0.000 C 
ENDROOT
BRANCH   1   2
ATOM      2  C   UNL     1       6.814   0.033  -2.625  1.00  0.00     0.000 C 
BRANCH   2   3
ATOM      3  C   UNL     1       8.248   0.512  -2.333  1.00  0.00     0.004 C 
BRANCH   3   4
ATOM      4  C   UNL     1       8.747   0.120  -0.938  1.00  0.00     0.027 C 
BRANCH   4   5
ATOM      5  C   UNL     1      10.203   0.491  -0.783  1.00  0.00    -0.031 C 
ATOM      6  C   UNL     1      11.224  -0.373  -0.596  1.00  0.00    -0.027 C 
BRANCH   6   7
ATOM      7  C   UNL     1      11.137  -1.881  -0.555  1.00  0.00     0.054 C 
BRANCH   7   8
ATOM      8  C   UNL     1      11.403  -2.577   0.770  1.00  0.00    -0.027 C 
ATOM      9  C   UNL     1      11.656  -2.102   2.012  1.00  0.00    -0.031 C 
BRANCH   9  10
ATOM     10  C   UNL     1      11.782  -0.675   2.492  1.00  0.00     0.027 C 
BRANCH  10  11
ATOM     11  C   UNL     1      10.702  -0.363   3.536  1.00  0.00     0.004 C 
BRANCH  11  12
ATOM     12  C   UNL     1      10.849   1.041   4.150  1.00  0.00     0.000 C 
BRANCH  12  13
ATOM     13  C   UNL     1      10.656   2.179   3.133  1.00  0.00    -0.003 C 
ATOM     14  C   UNL     1      10.769   3.541   3.810  1.00  0.00     0.004 C 
ENDBRANCH  12  13
ENDBRANCH  11  12
ENDBRANCH  10  11
ENDBRANCH   9  10
ENDBRANCH   7   8
ENDBRANCH   6   7
ENDBRANCH   4   5
ENDBRANCH   3   4
ENDBRANCH   2   3
ENDBRANCH   1   2
BRANCH   1  15
ATOM     15  C   UNL     1       5.354  -2.051  -3.090  1.00  0.00     0.001 C 
BRANCH  15  16
ATOM     16  C   UNL     1       4.948  -1.616  -4.507  1.00  0.00     0.012 C 
BRANCH  16  17
ATOM     17  C   UNL     1       3.756  -2.409  -5.047  1.00  0.00     0.123 C 
BRANCH  17  18
ATOM     18  C   UNL     1       2.456  -2.215  -4.321  1.00  0.00     0.306 C 
ATOM     19  O   UNL     1       1.488  -2.837  -4.739  1.00  0.00    -0.252 OA
BRANCH  18  20
ATOM     20  O   UNL     1       2.335  -1.367  -3.252  1.00  0.00    -0.462 OA
BRANCH  20  21
ATOM     21  C   UNL     1       1.117  -1.079  -2.646  1.00  0.00     0.179 C 
ATOM     22  C   UNL     1       1.104  -1.550  -1.190  1.00  0.00     0.046 C 
ATOM     23  C   UNL     1       0.784   0.435  -2.717  1.00  0.00     0.031 C 
ATOM     24  C   UNL     1      -0.303  -1.349  -0.595  1.00  0.00     0.015 C 
ATOM     25  C   UNL     1      -0.669   0.591  -2.165  1.00  0.00     0.006 C 
ATOM     26  C   UNL     1      -0.812   0.127  -0.658  1.00  0.00    -0.008 C 
ATOM     27  C   UNL     1      -1.323   1.959  -2.338  1.00  0.00     0.009 C 
ATOM     28  C   UNL     1      -2.306   0.179  -0.242  1.00  0.00    -0.064 C 
ATOM     29  C   UNL     1      -2.830   1.763  -2.172  1.00  0.00     0.032 C 
ATOM     30  C   UNL     1      -3.223   0.882  -0.993  1.00  0.00    -0.064 C 
ATOM     31  C   UNL     1      -2.740  -0.528   1.067  1.00  0.00     0.032 C 
ATOM     32  C   UNL     1      -4.703   0.687  -0.719  1.00  0.00    -0.006 C 
ATOM     33  C   UNL     1      -4.257  -0.575   1.378  1.00  0.00     0.012 C 
ATOM     34  C   UNL     1      -5.666   1.773  -1.197  1.00  0.00     0.012 C 
ATOM     35  C   UNL     1      -4.997   0.663   0.820  1.00  0.00    -0.020 C 
ATOM     36  C   UNL     1      -6.956   1.490  -0.403  1.00  0.00     0.005 C 
ATOM     37  C   UNL     1      -6.555   0.585   0.809  1.00  0.00    -0.001 C 
ATOM     38  C   UNL     1       0.910   0.918  -4.175  1.00  0.00     0.012 C 
ATOM     39  C   UNL     1       0.010   0.989   0.340  1.00  0.00     0.016 C 
ATOM     40  C   UNL     1      -5.065  -0.617  -1.523  1.00  0.00     0.017 C 
ATOM     41  C   UNL     1      -4.518   1.950   1.571  1.00  0.00     0.012 C 
BRANCH  37  42
ATOM     42  C   UNL     1      -7.442   0.846   2.072  1.00  0.00    -0.010 C 
ATOM     43  C   UNL     1      -6.971   0.025   3.287  1.00  0.00     0.008 C 
BRANCH  42  44
ATOM     44  C   UNL     1      -8.914   0.474   1.715  1.00  0.00     0.008 C 
BRANCH  44  45
ATOM     45  C   UNL     1      -9.975   0.844   2.767  1.00  0.00     0.031 C 
BRANCH  45  46
ATOM     46  C   UNL     1     -11.355   0.325   2.345  1.00  0.00    -0.072 C 
ATOM     47  C   UNL     1     -12.051  -0.639   3.048  1.00  0.00    -0.077 C 
ATOM     48  C   UNL     1     -13.446  -1.095   2.662  1.00  0.00     0.039 C 
ATOM     49  C   UNL     1     -11.535  -1.359   4.284  1.00  0.00     0.039 C 
BRANCH  46  50
ATOM     50  C   UNL     1     -11.932   0.956   1.079  1.00  0.00     0.027 C 
ATOM     51  C   UNL     1     -11.949  -0.025  -0.102  1.00  0.00     0.008 C 
ENDBRANCH  46  50
ENDBRANCH  45  46
ENDBRANCH  44  45
ENDBRANCH  42  44
ENDBRANCH  37  42
ENDBRANCH  20  21
ENDBRANCH  18  20
ENDBRANCH  17  18
ENDBRANCH  16  17
ENDBRANCH  15  16
ENDBRANCH   1  15
TORSDOF 21
