REMARK SMILES C[C@@H]1\C=C/C=C\C=C/C=C\C=C/[C@H](O[C@H]2OC[C@H](O)[C@@H](O)[C@@H]2N)[C@@](C)(O)/C=C/C=C\C=C/C=C/C(=O)NC1
REMARK SMILES IDX 29 1 30 2 31 3 32 4 33 5 34 6 35 7 37 8 36 9 38 11 2 12 1 13
REMARK SMILES IDX 3 14 4 15 5 16 6 17 28 19 27 20 24 21 25 22 13 23 12 24
REMARK SMILES IDX 11 25 10 26 9 27 8 28 7 29 14 31 15 32 16 33 22 34 17 35
REMARK SMILES IDX 20 36 18 37 23 38 21 41 19 43 26 45
REMARK H PARENT 37 10 23 39 23 40 21 42 19 44 26 46
REMARK Flexibility Score:  156.900
ROOT
ATOM      1  C   UNL     1      -0.548  -4.067   2.159  1.00  0.00    -0.000 C 
ATOM      2  C   UNL     1       0.490  -4.422   2.956  1.00  0.00    -0.000 C 
ENDROOT
BRANCH   2   3
ATOM      3  C   UNL     1       1.880  -3.999   3.317  1.00  0.00     0.000 C 
ATOM      4  C   UNL     1       2.967  -3.340   2.845  1.00  0.00     0.000 C 
BRANCH   4   5
ATOM      5  C   UNL     1       3.439  -2.692   1.596  1.00  0.00     0.006 C 
ATOM      6  C   UNL     1       2.976  -2.761   0.335  1.00  0.00     0.071 C 
BRANCH   6   7
ATOM      7  C   UNL     1       3.613  -1.989  -0.802  1.00  0.00     0.243 C 
ATOM      8  N   UNL     1       4.769  -1.268  -0.640  1.00  0.00    -0.352 N 
ATOM      9  O   UNL     1       3.031  -1.976  -1.875  1.00  0.00    -0.270 OA
ATOM     10  H   UNL     1       5.295  -1.311   0.237  1.00  0.00     0.163 HD
BRANCH   8  11
ATOM     11  C   UNL     1       5.321  -0.326  -1.609  1.00  0.00     0.123 C 
BRANCH  11  12
ATOM     12  C   UNL     1       4.360   0.869  -1.874  1.00  0.00     0.028 C 
ATOM     13  C   UNL     1       5.094   1.969  -2.647  1.00  0.00     0.014 C 
BRANCH  12  14
ATOM     14  C   UNL     1       3.696   1.295  -0.568  1.00  0.00    -0.022 C 
ATOM     15  C   UNL     1       3.573   2.457   0.096  1.00  0.00    -0.004 C 
BRANCH  15  16
ATOM     16  C   UNL     1       4.066   3.824  -0.211  1.00  0.00    -0.000 C 
ATOM     17  C   UNL     1       3.649   4.913   0.485  1.00  0.00    -0.000 CG0
ATOM     18  G   UNL     1       2.583   4.932   1.545  1.00  0.00     0.000 G0
ENDBRANCH  15  16
ENDBRANCH  12  14
ENDBRANCH  11  12
ENDBRANCH   8  11
ENDBRANCH   6   7
ENDBRANCH   4   5
ENDBRANCH   2   3
BRANCH   1  19
ATOM     19  C   UNL     1      -0.850  -2.981   1.200  1.00  0.00    -0.001 C 
ATOM     20  C   UNL     1      -0.096  -1.932   0.871  1.00  0.00     0.010 C 
BRANCH  20  21
ATOM     21  C   UNL     1      -0.508  -0.932  -0.215  1.00  0.00     0.110 C 
ATOM     22  C   UNL     1      -0.884  -1.715  -1.508  1.00  0.00     0.050 C 
BRANCH  21  23
ATOM     23  C   UNL     1      -1.704   0.002   0.209  1.00  0.00     0.180 C 
BRANCH  23  24
ATOM     24  C   UNL     1      -1.402   0.826   1.454  1.00  0.00     0.008 C 
ATOM     25  C   UNL     1      -0.636   1.943   1.493  1.00  0.00    -0.002 C 
BRANCH  25  26
ATOM     26  C   UNL     1       0.008   2.550   0.296  1.00  0.00    -0.000 C 
ATOM     27  C   UNL     1       0.912   3.541   0.312  1.00  0.00    -0.000 C 
BRANCH  27  28
ATOM     28  C   UNL     1       1.403   4.264   1.514  1.00  0.00    -0.000 C 
ATOM     29  C   UNL     1       2.583   4.932   1.545  1.00  0.00    -0.000 CG0
ATOM     30  G   UNL     1       3.649   4.913   0.485  1.00  0.00     0.000 G0
ENDBRANCH  27  28
ENDBRANCH  25  26
ENDBRANCH  23  24
BRANCH  23  31
ATOM     31  O   UNL     1      -2.897  -0.759   0.435  1.00  0.00    -0.340 OA
BRANCH  31  32
ATOM     32  C   UNL     1      -3.918  -0.520  -0.540  1.00  0.00     0.270 C 
ATOM     33  O   UNL     1      -4.334  -1.770  -1.074  1.00  0.00    -0.348 OA
ATOM     34  C   UNL     1      -5.139   0.190   0.105  1.00  0.00     0.139 C 
ATOM     35  C   UNL     1      -5.207  -1.567  -2.176  1.00  0.00     0.198 C 
ATOM     36  C   UNL     1      -6.182   0.444  -1.006  1.00  0.00     0.167 C 
ATOM     37  C   UNL     1      -6.511  -0.881  -1.723  1.00  0.00     0.170 C 
BRANCH  34  38
ATOM     38  N   UNL     1      -4.767   1.457   0.737  1.00  0.00    -0.321 NA
ATOM     39  H   UNL     1      -4.249   2.063   0.060  1.00  0.00     0.119 HD
ATOM     40  H   UNL     1      -4.161   1.272   1.567  1.00  0.00     0.119 HD
ENDBRANCH  34  38
BRANCH  36  41
ATOM     41  O   UNL     1      -7.343   1.051  -0.496  1.00  0.00    -0.389 OA
ATOM     42  H   UNL     1      -7.747   0.424   0.159  1.00  0.00     0.211 HD
ENDBRANCH  36  41
BRANCH  37  43
ATOM     43  O   UNL     1      -7.374  -0.668  -2.812  1.00  0.00    -0.388 OA
ATOM     44  H   UNL     1      -6.904  -0.077  -3.457  1.00  0.00     0.211 HD
ENDBRANCH  37  43
ENDBRANCH  31  32
ENDBRANCH  23  31
ENDBRANCH  21  23
BRANCH  21  45
ATOM     45  O   UNL     1       0.633  -0.147  -0.468  1.00  0.00    -0.383 OA
ATOM     46  H   UNL     1       0.604   0.185  -1.403  1.00  0.00     0.211 HD
ENDBRANCH  21  45
ENDBRANCH  20  21
ENDBRANCH   1  19
TORSDOF 6
