REMARK SMILES Cc1ccc(N2C(=O)[C@H]3[C@H]4c5ccccc5[C@](C=O)(c5ccccc54)[C@H]3C2=O)c(Br)c1
REMARK SMILES IDX 6 1 7 2 8 3 9 4 10 5 11 6 12 7 13 8 14 9 15 10 16 11 17 12
REMARK SMILES IDX 20 13 21 14 22 15 23 16 24 17 25 18 26 19 27 20 28 21 5 22
REMARK SMILES IDX 2 23 3 24 31 25 4 26 29 27 1 28 30 29 18 30 19 31
REMARK H PARENT
ROOT
ATOM      1  N   UNL     1       1.490  -0.199  -0.549  1.00  0.00    -0.249 N 
ATOM      2  C   UNL     1       0.818  -1.360  -0.347  1.00  0.00     0.238 C 
ATOM      3  O   UNL     1       1.299  -2.333   0.217  1.00  0.00    -0.274 OA
ATOM      4  C   UNL     1      -0.549  -1.368  -0.953  1.00  0.00     0.105 C 
ATOM      5  C   UNL     1      -1.707  -1.591   0.063  1.00  0.00     0.063 C 
ATOM      6  C   UNL     1      -2.976  -1.396  -0.742  1.00  0.00    -0.035 A 
ATOM      7  C   UNL     1      -3.968  -2.366  -0.903  1.00  0.00     0.005 A 
ATOM      8  C   UNL     1      -5.093  -2.070  -1.680  1.00  0.00     0.000 A 
ATOM      9  C   UNL     1      -5.226  -0.812  -2.286  1.00  0.00     0.000 A 
ATOM     10  C   UNL     1      -4.236   0.166  -2.122  1.00  0.00     0.005 A 
ATOM     11  C   UNL     1      -3.099  -0.122  -1.347  1.00  0.00    -0.026 A 
ATOM     12  C   UNL     1      -1.915   0.822  -1.058  1.00  0.00     0.089 C 
ATOM     13  C   UNL     1      -1.808   0.849   0.491  1.00  0.00    -0.026 A 
ATOM     14  C   UNL     1      -1.829   1.965   1.353  1.00  0.00     0.005 A 
ATOM     15  C   UNL     1      -1.738   1.779   2.739  1.00  0.00     0.000 A 
ATOM     16  C   UNL     1      -1.627   0.495   3.281  1.00  0.00     0.000 A 
ATOM     17  C   UNL     1      -1.605  -0.622   2.443  1.00  0.00     0.005 A 
ATOM     18  C   UNL     1      -1.694  -0.446   1.060  1.00  0.00    -0.035 A 
ATOM     19  C   UNL     1      -0.647   0.059  -1.594  1.00  0.00     0.115 C 
ATOM     20  C   UNL     1       0.682   0.659  -1.223  1.00  0.00     0.239 C 
ATOM     21  O   UNL     1       0.988   1.811  -1.483  1.00  0.00    -0.274 OA
ENDROOT
BRANCH   1  22
ATOM     22  C   UNL     1       2.845   0.041  -0.113  1.00  0.00     0.066 A 
ATOM     23  C   UNL     1       5.517   0.375   0.789  1.00  0.00    -0.050 A 
ATOM     24  C   UNL     1       4.584  -0.300   1.579  1.00  0.00     0.005 A 
ATOM     25  C   UNL     1       5.122   0.884  -0.451  1.00  0.00     0.021 A 
ATOM     26  C   UNL     1       3.272  -0.468   1.133  1.00  0.00     0.028 A 
ATOM     27  C   UNL     1       3.809   0.727  -0.914  1.00  0.00     0.042 A 
ATOM     28  C   UNL     1       6.938   0.541   1.242  1.00  0.00     0.044 C 
ATOM     29  Br  UNL     1       3.509   1.375  -2.700  1.00  0.00    -0.049 Br
ENDBRANCH   1  22
BRANCH  12  30
ATOM     30  C   UNL     1      -2.053   2.145  -1.801  1.00  0.00     0.241 C 
ATOM     31  O   UNL     1      -2.084   3.229  -1.249  1.00  0.00    -0.302 OA
ENDBRANCH  12  30
TORSDOF 2
