REMARK SMILES CCOc1cc([C@H]2C(C(=O)OCCc3ccccc3)=C(C)NC3=C2C(=O)C[C@H](c2ccc(Cl)cc2)C3)ccc1O
REMARK SMILES IDX 7 1 8 2 20 3 21 4 22 5 23 6 24 7 25 8 26 9 27 10 28 11 36 12
REMARK SMILES IDX 6 14 4 15 5 16 39 17 38 18 37 19 3 20 2 21 1 22 40 23 9 25
REMARK SMILES IDX 10 26 11 27 12 28 13 29 14 30 15 31 19 32 16 33 18 34 17 35
REMARK SMILES IDX 29 36 30 37 35 38 31 39 34 40 32 41 33 42
REMARK H PARENT 22 13 40 24
ROOT
ATOM      1  C   UNL     1      -0.484  -0.297   0.118  1.00  0.00     0.094 C 
ATOM      2  C   UNL     1      -0.055  -1.382   1.121  1.00  0.00     0.068 C 
ATOM      3  C   UNL     1      -0.990  -2.255   1.625  1.00  0.00     0.023 C 
ATOM      4  C   UNL     1      -0.729  -3.372   2.619  1.00  0.00     0.065 C 
ATOM      5  N   UNL     1      -2.351  -2.147   1.220  1.00  0.00    -0.362 N 
ATOM      6  C   UNL     1      -2.804  -1.209   0.258  1.00  0.00     0.023 C 
ATOM      7  C   UNL     1      -1.942  -0.347  -0.314  1.00  0.00     0.027 C 
ATOM      8  C   UNL     1      -2.434   0.564  -1.397  1.00  0.00     0.162 C 
ATOM      9  O   UNL     1      -1.731   1.478  -1.799  1.00  0.00    -0.294 OA
ATOM     10  C   UNL     1      -3.798   0.370  -2.020  1.00  0.00     0.089 C 
ATOM     11  C   UNL     1      -4.440  -0.975  -1.603  1.00  0.00     0.033 C 
ATOM     12  C   UNL     1      -4.277  -1.169  -0.096  1.00  0.00     0.063 C 
ATOM     13  H   UNL     1      -3.042  -2.794   1.631  1.00  0.00     0.166 HD
ENDROOT
BRANCH   1  14
ATOM     14  C   UNL     1      -0.204   1.083   0.692  1.00  0.00    -0.032 A 
ATOM     15  C   UNL     1       0.976   3.225   0.593  1.00  0.00     0.161 A 
ATOM     16  C   UNL     1       0.716   1.942   0.068  1.00  0.00     0.055 A 
ATOM     17  C   UNL     1       0.299   3.642   1.749  1.00  0.00     0.157 A 
ATOM     18  C   UNL     1      -0.621   2.789   2.372  1.00  0.00     0.050 A 
ATOM     19  C   UNL     1      -0.869   1.518   1.851  1.00  0.00     0.009 A 
BRANCH  15  20
ATOM     20  O   UNL     1       1.866   4.079   0.020  1.00  0.00    -0.490 OA
BRANCH  20  21
ATOM     21  C   UNL     1       2.623   3.822  -1.105  1.00  0.00     0.226 C 
ATOM     22  C   UNL     1       3.501   5.025  -1.413  1.00  0.00     0.049 C 
ENDBRANCH  20  21
ENDBRANCH  15  20
BRANCH  17  23
ATOM     23  O   UNL     1       0.539   4.871   2.255  1.00  0.00    -0.504 OA
ATOM     24  H   UNL     1       0.092   5.198   3.048  1.00  0.00     0.293 HD
ENDBRANCH  17  23
ENDBRANCH   1  14
BRANCH   2  25
ATOM     25  C   UNL     1       1.416  -1.399   1.460  1.00  0.00     0.336 C 
ATOM     26  O   UNL     1       1.897  -2.239   2.203  1.00  0.00    -0.246 OA
BRANCH  25  27
ATOM     27  O   UNL     1       2.231  -0.443   0.937  1.00  0.00    -0.462 OA
BRANCH  27  28
ATOM     28  C   UNL     1       3.600  -0.391   1.122  1.00  0.00     0.238 C 
BRANCH  28  29
ATOM     29  C   UNL     1       4.305  -1.478   0.300  1.00  0.00     0.077 C 
BRANCH  29  30
ATOM     30  C   UNL     1       5.791  -1.463   0.550  1.00  0.00    -0.045 A 
ATOM     31  C   UNL     1       6.296  -1.822   1.812  1.00  0.00     0.004 A 
ATOM     32  C   UNL     1       6.687  -1.101  -0.470  1.00  0.00     0.004 A 
ATOM     33  C   UNL     1       7.674  -1.817   2.049  1.00  0.00     0.000 A 
ATOM     34  C   UNL     1       8.064  -1.090  -0.228  1.00  0.00     0.000 A 
ATOM     35  C   UNL     1       8.557  -1.449   1.031  1.00  0.00     0.000 A 
ENDBRANCH  29  30
ENDBRANCH  28  29
ENDBRANCH  27  28
ENDBRANCH  25  27
ENDBRANCH   2  25
BRANCH  11  36
ATOM     36  C   UNL     1      -5.900  -1.038  -2.015  1.00  0.00    -0.044 A 
ATOM     37  C   UNL     1      -6.343  -2.044  -2.893  1.00  0.00     0.005 A 
ATOM     38  C   UNL     1      -6.834  -0.104  -1.524  1.00  0.00     0.005 A 
ATOM     39  C   UNL     1      -7.688  -2.113  -3.270  1.00  0.00     0.021 A 
ATOM     40  C   UNL     1      -8.176  -0.175  -1.906  1.00  0.00     0.021 A 
ATOM     41  C   UNL     1      -8.605  -1.179  -2.779  1.00  0.00     0.041 A 
ATOM     42  Cl  UNL     1     -10.291  -1.268  -3.253  1.00  0.00    -0.084 Cl
ENDBRANCH  11  36
TORSDOF 10
