REMARK SMILES CC(C)C[C@H]1NC(=O)[C@H](NC(=O)[C@H](C(C)C)N(C)C)[C@@H](C(C)C)Oc2ccc(cc2)/C=C\NC1=O
REMARK SMILES IDX 33 1 34 2 35 3 5 5 4 6 2 7 1 8 3 9 6 10 7 11 8 12 9 14 10 16
REMARK SMILES IDX 11 17 12 18 13 20 14 21 15 22 16 23 17 24 18 25 19 26 32 27
REMARK SMILES IDX 31 28 28 29 27 30 29 31 26 32 30 33 25 34 24 35 20 36 21 38
REMARK SMILES IDX 22 39 23 40
REMARK H PARENT 33 4 6 13 10 19
REMARK Flexibility Score:   48.900
ROOT
ATOM      1  N   UNL     1       5.003   0.416   1.740  1.00  0.00    -0.331 N 
ATOM      2  C   UNL     1       3.990   0.574   0.823  1.00  0.00     0.246 C 
ATOM      3  O   UNL     1       4.152   0.225  -0.339  1.00  0.00    -0.272 OA
ATOM      4  H   UNL     1       4.907   0.848   2.670  1.00  0.00     0.169 HD
ENDROOT
BRANCH   2   5
ATOM      5  C   UNL     1       2.620   1.073   1.220  1.00  0.00     0.172 C 
BRANCH   5   6
ATOM      6  C   UNL     1       2.488   2.610   1.342  1.00  0.00     0.038 C 
BRANCH   6   7
ATOM      7  C   UNL     1       2.742   3.475   0.077  1.00  0.00    -0.015 C 
ATOM      8  C   UNL     1       2.244   4.904   0.344  1.00  0.00     0.007 C 
ATOM      9  C   UNL     1       4.231   3.555  -0.311  1.00  0.00     0.007 C 
ENDBRANCH   6   7
ENDBRANCH   5   6
BRANCH   5  10
ATOM     10  N   UNL     1       1.612   0.486   0.316  1.00  0.00    -0.342 N 
ATOM     11  C   UNL     1       0.659  -0.403   0.746  1.00  0.00     0.247 C 
ATOM     12  O   UNL     1       0.548  -0.645   1.940  1.00  0.00    -0.273 OA
ATOM     13  H   UNL     1       1.661   0.710  -0.689  1.00  0.00     0.164 HD
BRANCH  11  14
ATOM     14  C   UNL     1      -0.308  -1.101  -0.213  1.00  0.00     0.212 CG0
ATOM     15  G   UNL     1      -0.153  -2.692  -0.155  1.00  0.00     0.000 G0
BRANCH  14  16
ATOM     16  N   UNL     1      -1.639  -0.628   0.172  1.00  0.00    -0.340 N 
ATOM     17  C   UNL     1      -2.420   0.163  -0.632  1.00  0.00     0.238 C 
ATOM     18  O   UNL     1      -2.064   0.400  -1.779  1.00  0.00    -0.273 OA
ATOM     19  H   UNL     1      -1.954  -0.819   1.135  1.00  0.00     0.164 HD
BRANCH  17  20
ATOM     20  C   UNL     1      -3.711   0.808  -0.088  1.00  0.00     0.148 C 
BRANCH  20  21
ATOM     21  C   UNL     1      -4.743  -0.335   0.247  1.00  0.00     0.009 C 
ATOM     22  C   UNL     1      -5.312  -1.013  -1.012  1.00  0.00     0.009 C 
ATOM     23  C   UNL     1      -5.862   0.045   1.238  1.00  0.00     0.009 C 
ENDBRANCH  20  21
BRANCH  20  24
ATOM     24  N   UNL     1      -4.187   1.881  -1.032  1.00  0.00    -0.298 NA
ATOM     25  C   UNL     1      -5.510   2.449  -0.717  1.00  0.00     0.105 C 
ATOM     26  C   UNL     1      -3.232   3.016  -1.056  1.00  0.00     0.105 C 
ENDBRANCH  20  24
ENDBRANCH  17  20
ENDBRANCH  14  16
ENDBRANCH  11  14
ENDBRANCH   5  10
ENDBRANCH   2   5
BRANCH   1  27
ATOM     27  C   UNL     1       6.207  -0.331   1.460  1.00  0.00     0.086 C 
ATOM     28  C   UNL     1       6.205  -1.515   0.780  1.00  0.00     0.026 C 
BRANCH  28  29
ATOM     29  C   UNL     1       4.929  -2.179   0.421  1.00  0.00    -0.024 A 
ATOM     30  C   UNL     1       3.911  -2.270   1.389  1.00  0.00     0.012 A 
ATOM     31  C   UNL     1       4.668  -2.581  -0.895  1.00  0.00     0.012 A 
ATOM     32  C   UNL     1       2.626  -2.644   1.030  1.00  0.00     0.047 A 
ATOM     33  C   UNL     1       3.360  -2.931  -1.258  1.00  0.00     0.047 A 
ATOM     34  C   UNL     1       2.324  -2.905  -0.309  1.00  0.00     0.119 A 
BRANCH  34  35
ATOM     35  O   UNL     1       1.052  -3.103  -0.734  1.00  0.00    -0.487 OA
BRANCH  35  36
ATOM     36  C   UNL     1      -0.153  -2.692  -0.155  1.00  0.00     0.207 CG0
ATOM     37  G   UNL     1      -0.308  -1.101  -0.213  1.00  0.00     0.000 G0
BRANCH  36  38
ATOM     38  C   UNL     1      -1.236  -3.535  -0.895  1.00  0.00     0.026 C 
ATOM     39  C   UNL     1      -2.609  -3.520  -0.226  1.00  0.00     0.011 C 
ATOM     40  C   UNL     1      -1.350  -3.184  -2.386  1.00  0.00     0.011 C 
ENDBRANCH  36  38
ENDBRANCH  35  36
ENDBRANCH  34  35
ENDBRANCH  28  29
ENDBRANCH   1  27
TORSDOF 7
