REMARK SMILES C=C(Br)c1ccc([N+](=O)[O-])cc1S(=O)(=O)O
REMARK SMILES IDX 4 1 5 2 6 3 7 4 11 5 12 6 2 7 1 8 3 9 13 10 14 11 15 12
REMARK SMILES IDX 16 13 8 15 9 16 10 17
REMARK H PARENT 16 14
ROOT
ATOM      1  C   UNL     1      -0.404   0.836   0.301  1.00  0.00     0.010 A 
ATOM      2  C   UNL     1       0.827   1.547   0.280  1.00  0.00     0.018 A 
ATOM      3  C   UNL     1       2.036   0.940  -0.048  1.00  0.00     0.086 A 
ATOM      4  C   UNL     1       2.089  -0.413  -0.376  1.00  0.00     0.270 A 
ATOM      5  C   UNL     1       0.900  -1.147  -0.362  1.00  0.00     0.109 A 
ATOM      6  C   UNL     1      -0.337  -0.564  -0.030  1.00  0.00     0.109 A 
ENDROOT
BRANCH   1   7
ATOM      7  C   UNL     1      -1.675   1.601   0.674  1.00  0.00     0.019 C 
ATOM      8  C   UNL     1      -1.716   2.944   0.799  1.00  0.00     0.026 C 
ATOM      9  Br  UNL     1      -3.395   0.821   1.032  1.00  0.00    -0.051 Br
ENDBRANCH   1   7
BRANCH   6  10
ATOM     10  S   UNL     1      -1.716  -1.733  -0.101  1.00  0.00     0.295 S 
ATOM     11  O   UNL     1      -2.425  -1.964   1.243  1.00  0.00    -0.194 OA
ATOM     12  O   UNL     1      -2.857  -1.273  -1.021  1.00  0.00    -0.194 OA
BRANCH  10  13
ATOM     13  O   UNL     1      -1.356  -3.315  -0.669  1.00  0.00    -0.282 OA
ATOM     14  H   UNL     1      -0.824  -3.731   0.056  1.00  0.00     0.234 HD
ENDBRANCH  10  13
ENDBRANCH   6  10
BRANCH   4  15
ATOM     15  N   UNL     1       3.332  -1.031  -0.716  1.00  0.00     0.062 N 
ATOM     16  O   UNL     1       3.377  -2.189  -1.002  1.00  0.00    -0.258 OA
ATOM     17  O   UNL     1       4.445  -0.328  -0.726  1.00  0.00    -0.258 OA
ENDBRANCH   4  15
TORSDOF 4
