REMARK SMILES CCCCC[C@@H](C/C=C/CCC(=O)NC[C@@H](OC)[C@H]1C(=O)C(C)=CC[C@H]1O)OC
REMARK SMILES IDX 8 1 9 2 7 3 6 4 5 5 4 6 3 7 2 8 1 9 28 10 29 11 10 12 11 13
REMARK SMILES IDX 12 14 13 15 14 16 15 18 16 19 17 20 18 21 19 22 20 23 26 24
REMARK SMILES IDX 21 25 22 26 25 27 24 28 23 29 27 30
REMARK H PARENT 14 17 27 31
ROOT
ATOM      1  C   UNL     1       2.585   2.161   0.472  1.00  0.00    -0.029 C 
ATOM      2  C   UNL     1       1.963   1.795  -0.659  1.00  0.00    -0.031 C 
ENDROOT
BRANCH   1   3
ATOM      3  C   UNL     1       4.086   2.206   0.566  1.00  0.00     0.059 C 
BRANCH   3   4
ATOM      4  C   UNL     1       4.588   1.210   1.626  1.00  0.00     0.121 C 
BRANCH   4   5
ATOM      5  C   UNL     1       6.123   1.266   1.808  1.00  0.00     0.032 C 
BRANCH   5   6
ATOM      6  C   UNL     1       6.985   1.050   0.542  1.00  0.00     0.003 C 
BRANCH   6   7
ATOM      7  C   UNL     1       6.787  -0.314  -0.135  1.00  0.00    -0.000 C 
BRANCH   7   8
ATOM      8  C   UNL     1       7.722  -0.468  -1.340  1.00  0.00    -0.003 C 
ATOM      9  C   UNL     1       7.516  -1.817  -2.024  1.00  0.00     0.004 C 
ENDBRANCH   7   8
ENDBRANCH   6   7
ENDBRANCH   5   6
ENDBRANCH   4   5
BRANCH   4  10
ATOM     10  O   UNL     1       4.191  -0.105   1.269  1.00  0.00    -0.381 OA
ATOM     11  C   UNL     1       3.296  -0.648   2.215  1.00  0.00     0.195 C 
ENDBRANCH   4  10
ENDBRANCH   3   4
ENDBRANCH   1   3
BRANCH   2  12
ATOM     12  C   UNL     1       0.465   1.725  -0.758  1.00  0.00     0.037 C 
BRANCH  12  13
ATOM     13  C   UNL     1       0.023   0.294  -1.100  1.00  0.00     0.104 C 
BRANCH  13  14
ATOM     14  C   UNL     1      -1.474   0.162  -1.264  1.00  0.00     0.220 C 
ATOM     15  O   UNL     1      -2.188   1.145  -1.145  1.00  0.00    -0.275 OA
ATOM     16  N   UNL     1      -2.005  -1.050  -1.588  1.00  0.00    -0.353 N 
ATOM     17  H   UNL     1      -1.352  -1.834  -1.744  1.00  0.00     0.163 HD
BRANCH  16  18
ATOM     18  C   UNL     1      -3.420  -1.307  -1.829  1.00  0.00     0.148 C 
BRANCH  18  19
ATOM     19  C   UNL     1      -4.277  -1.448  -0.539  1.00  0.00     0.150 C 
BRANCH  19  20
ATOM     20  O   UNL     1      -3.625  -2.379   0.315  1.00  0.00    -0.379 OA
ATOM     21  C   UNL     1      -4.231  -3.652   0.240  1.00  0.00     0.195 C 
ENDBRANCH  19  20
BRANCH  19  22
ATOM     22  C   UNL     1      -4.581  -0.135   0.255  1.00  0.00     0.120 C 
ATOM     23  C   UNL     1      -5.356   0.859  -0.616  1.00  0.00     0.166 C 
ATOM     24  C   UNL     1      -5.381  -0.365   1.579  1.00  0.00     0.131 C 
ATOM     25  O   UNL     1      -4.793   1.422  -1.541  1.00  0.00    -0.294 OA
ATOM     26  C   UNL     1      -6.800   1.156  -0.359  1.00  0.00    -0.011 C 
ATOM     27  C   UNL     1      -6.853  -0.712   1.286  1.00  0.00     0.060 C 
ATOM     28  C   UNL     1      -7.490   0.431   0.542  1.00  0.00    -0.017 C 
ATOM     29  C   UNL     1      -7.505   2.272  -1.088  1.00  0.00     0.048 C 
BRANCH  24  30
ATOM     30  O   UNL     1      -4.741  -1.299   2.419  1.00  0.00    -0.392 OA
ATOM     31  H   UNL     1      -5.288  -2.125   2.475  1.00  0.00     0.210 HD
ENDBRANCH  24  30
ENDBRANCH  19  22
ENDBRANCH  18  19
ENDBRANCH  16  18
ENDBRANCH  13  14
ENDBRANCH  12  13
ENDBRANCH   2  12
TORSDOF 15
