REMARK SMILES CC(=O)c1c(O)c(C)c(O)c2c1OC1=CC(=O)/C(=C(/C)NC[C@@H](O)c3ccc(O)cc3)C(=O)[C@@]12C
REMARK SMILES IDX 22 1 21 2 19 4 4 5 5 6 12 7 7 8 11 9 13 10 9 11 34 12 14 13
REMARK SMILES IDX 32 14 15 15 18 16 33 17 16 18 17 19 8 20 35 21 20 22 2 23
REMARK SMILES IDX 3 24 1 25 6 26 10 28 23 30 24 31 25 33 26 34 31 35 27 36
REMARK SMILES IDX 30 37 28 38 29 39
REMARK H PARENT 21 3 6 27 10 29 24 32 29 40
ROOT
ATOM      1  C   UNL     1       3.827   0.286  -0.540  1.00  0.00     0.149 C 
ENDROOT
BRANCH   1   2
ATOM      2  N   UNL     1       2.488   0.764  -0.222  1.00  0.00    -0.385 N 
ATOM      3  H   UNL     1       2.458   1.768  -0.051  1.00  0.00     0.160 HD
BRANCH   2   4
ATOM      4  C   UNL     1       1.295  -0.050  -0.186  1.00  0.00     0.023 C 
ATOM      5  C   UNL     1      -6.004   0.464  -0.245  1.00  0.00     0.103 A 
ATOM      6  C   UNL     1      -6.476  -0.895  -0.155  1.00  0.00     0.136 A 
ATOM      7  C   UNL     1      -4.634   0.671   0.034  1.00  0.00     0.149 A 
ATOM      8  C   UNL     1      -5.588  -1.950   0.213  1.00  0.00     0.034 A 
ATOM      9  C   UNL     1      -3.787  -0.362   0.389  1.00  0.00     0.059 A 
ATOM     10  O   UNL     1      -3.980   1.849  -0.009  1.00  0.00    -0.459 OA
ATOM     11  C   UNL     1      -4.230  -1.673   0.497  1.00  0.00     0.130 A 
ATOM     12  C   UNL     1      -2.427   0.204   0.664  1.00  0.00     0.121 C 
ATOM     13  C   UNL     1      -2.676   1.601   0.229  1.00  0.00     0.126 C 
ATOM     14  C   UNL     1      -1.241  -0.328  -0.094  1.00  0.00     0.186 C 
ATOM     15  C   UNL     1      -1.690   2.482   0.046  1.00  0.00     0.096 C 
ATOM     16  C   UNL     1       0.027   0.506  -0.046  1.00  0.00     0.085 C 
ATOM     17  O   UNL     1      -1.338  -1.347  -0.760  1.00  0.00    -0.292 OA
ATOM     18  C   UNL     1      -0.277   2.007   0.089  1.00  0.00     0.194 C 
ATOM     19  O   UNL     1       0.587   2.863   0.068  1.00  0.00    -0.289 OA
ATOM     20  C   UNL     1      -6.084  -3.376   0.308  1.00  0.00     0.052 C 
ATOM     21  C   UNL     1      -2.129   0.145   2.176  1.00  0.00     0.034 C 
ATOM     22  C   UNL     1       1.503  -1.557  -0.263  1.00  0.00     0.065 C 
BRANCH   5  23
ATOM     23  C   UNL     1      -6.883   1.641  -0.609  1.00  0.00     0.167 C 
ATOM     24  O   UNL     1      -8.060   1.483  -0.884  1.00  0.00    -0.294 OA
ATOM     25  C   UNL     1      -6.378   3.059  -0.634  1.00  0.00     0.094 C 
ENDBRANCH   5  23
BRANCH   6  26
ATOM     26  O   UNL     1      -7.762  -1.246  -0.400  1.00  0.00    -0.507 OA
ATOM     27  H   UNL     1      -8.493  -0.677  -0.653  1.00  0.00     0.293 HD
ENDBRANCH   6  26
BRANCH  11  28
ATOM     28  O   UNL     1      -3.353  -2.634   0.866  1.00  0.00    -0.507 OA
ATOM     29  H   UNL     1      -3.581  -3.568   0.960  1.00  0.00     0.293 HD
ENDBRANCH  11  28
ENDBRANCH   2   4
ENDBRANCH   1   2
BRANCH   1  30
ATOM     30  C   UNL     1       4.794   0.569   0.625  1.00  0.00     0.163 C 
BRANCH  30  31
ATOM     31  O   UNL     1       4.451  -0.177   1.767  1.00  0.00    -0.387 OA
ATOM     32  H   UNL     1       4.474  -1.139   1.522  1.00  0.00     0.211 HD
ENDBRANCH  30  31
BRANCH  30  33
ATOM     33  C   UNL     1       6.237   0.325   0.223  1.00  0.00    -0.018 A 
ATOM     34  C   UNL     1       6.681  -0.948  -0.183  1.00  0.00     0.010 A 
ATOM     35  C   UNL     1       7.155   1.391   0.238  1.00  0.00     0.010 A 
ATOM     36  C   UNL     1       8.011  -1.144  -0.570  1.00  0.00     0.046 A 
ATOM     37  C   UNL     1       8.483   1.192  -0.147  1.00  0.00     0.046 A 
ATOM     38  C   UNL     1       8.916  -0.073  -0.554  1.00  0.00     0.115 A 
BRANCH  38  39
ATOM     39  O   UNL     1      10.200  -0.245  -0.930  1.00  0.00    -0.508 OA
ATOM     40  H   UNL     1      10.539  -1.102  -1.225  1.00  0.00     0.293 HD
ENDBRANCH  38  39
ENDBRANCH  30  33
ENDBRANCH   1  30
TORSDOF 9
