REMARK SMILES CCc1ccc(C(=O)NCc2cccnc2-c2ccc(OC)cc2)cc1
REMARK SMILES IDX 10 1 9 2 7 3 8 4 6 6 3 7 4 8 26 9 5 10 25 11 2 12 1 13 11 14
REMARK SMILES IDX 12 15 16 16 13 17 15 18 14 19 17 20 18 21 24 22 19 23 23 24
REMARK SMILES IDX 20 25 21 26 22 27
REMARK H PARENT 9 5
ROOT
ATOM      1  C   UNL     1      -0.741  -2.354   0.943  1.00  0.00     0.154 C 
ENDROOT
BRANCH   1   2
ATOM      2  N   UNL     1       0.465  -1.699   0.468  1.00  0.00    -0.348 N 
ATOM      3  C   UNL     1       1.278  -1.035   1.340  1.00  0.00     0.251 C 
ATOM      4  O   UNL     1       1.023  -1.075   2.538  1.00  0.00    -0.269 OA
ATOM      5  H   UNL     1       0.659  -1.706  -0.541  1.00  0.00     0.164 HD
BRANCH   3   6
ATOM      6  C   UNL     1       2.454  -0.219   0.896  1.00  0.00     0.039 A 
ATOM      7  C   UNL     1       4.649   1.414   0.158  1.00  0.00    -0.048 A 
ATOM      8  C   UNL     1       4.356   1.187   1.509  1.00  0.00     0.004 A 
ATOM      9  C   UNL     1       3.848   0.812  -0.824  1.00  0.00     0.004 A 
ATOM     10  C   UNL     1       3.272   0.387   1.872  1.00  0.00     0.014 A 
ATOM     11  C   UNL     1       2.764   0.004  -0.463  1.00  0.00     0.014 A 
BRANCH   7  12
ATOM     12  C   UNL     1       5.810   2.295  -0.230  1.00  0.00     0.032 C 
ATOM     13  C   UNL     1       5.338   3.547  -0.967  1.00  0.00     0.009 C 
ENDBRANCH   7  12
ENDBRANCH   3   6
ENDBRANCH   1   2
BRANCH   1  14
ATOM     14  C   UNL     1      -1.530  -3.009  -0.172  1.00  0.00    -0.002 A 
ATOM     15  C   UNL     1      -1.144  -4.305  -0.554  1.00  0.00     0.009 A 
ATOM     16  C   UNL     1      -2.697  -2.440  -0.769  1.00  0.00     0.075 A 
ATOM     17  C   UNL     1      -1.893  -5.025  -1.480  1.00  0.00     0.020 A 
ATOM     18  N   UNL     1      -3.408  -3.200  -1.653  1.00  0.00    -0.256 NA
ATOM     19  C   UNL     1      -3.041  -4.454  -2.016  1.00  0.00     0.112 A 
BRANCH  16  20
ATOM     20  C   UNL     1      -3.191  -1.045  -0.536  1.00  0.00     0.001 A 
ATOM     21  C   UNL     1      -4.568  -0.767  -0.639  1.00  0.00     0.014 A 
ATOM     22  C   UNL     1      -2.317   0.031  -0.283  1.00  0.00     0.014 A 
ATOM     23  C   UNL     1      -5.052   0.534  -0.459  1.00  0.00     0.047 A 
ATOM     24  C   UNL     1      -2.798   1.330  -0.119  1.00  0.00     0.047 A 
ATOM     25  C   UNL     1      -4.176   1.593  -0.202  1.00  0.00     0.118 A 
BRANCH  25  26
ATOM     26  O   UNL     1      -4.688   2.843  -0.054  1.00  0.00    -0.497 OA
ATOM     27  C   UNL     1      -3.949   3.994   0.137  1.00  0.00     0.278 C 
ENDBRANCH  25  26
ENDBRANCH  16  20
ENDBRANCH   1  14
TORSDOF 6
