REMARK SMILES Cc1cc2c(c([C@H](C)O)c1O)-c1ccc(O)c(C)c1CC2
REMARK SMILES IDX 1 1 2 2 3 3 4 4 5 5 12 6 13 7 14 8 15 9 17 10 18 11 19 12
REMARK SMILES IDX 20 13 21 14 6 15 10 16 11 17 7 19 8 20 9 21 16 23
REMARK H PARENT 11 18 9 22 16 24
ROOT
ATOM      1  C   UNL     1      -3.639   3.157   0.432  1.00  0.00     0.048 C 
ATOM      2  C   UNL     1      -2.528   2.151   0.273  1.00  0.00    -0.009 A 
ATOM      3  C   UNL     1      -1.226   2.519   0.571  1.00  0.00     0.011 A 
ATOM      4  C   UNL     1      -0.178   1.611   0.448  1.00  0.00    -0.039 A 
ATOM      5  C   UNL     1      -0.397   0.278  -0.010  1.00  0.00    -0.005 A 
ATOM      6  C   UNL     1       0.865  -0.582  -0.083  1.00  0.00    -0.014 A 
ATOM      7  C   UNL     1       0.863  -1.981   0.070  1.00  0.00     0.013 A 
ATOM      8  C   UNL     1       2.040  -2.721   0.043  1.00  0.00     0.047 A 
ATOM      9  C   UNL     1       3.275  -2.092  -0.107  1.00  0.00     0.118 A 
ATOM     10  C   UNL     1       3.339  -0.691  -0.222  1.00  0.00    -0.005 A 
ATOM     11  C   UNL     1       4.685  -0.014  -0.355  1.00  0.00     0.049 C 
ATOM     12  C   UNL     1       2.132   0.065  -0.213  1.00  0.00    -0.033 A 
ATOM     13  C   UNL     1       2.142   1.579  -0.301  1.00  0.00     0.041 C 
ATOM     14  C   UNL     1       1.216   2.084   0.791  1.00  0.00     0.041 C 
ATOM     15  C   UNL     1      -1.753  -0.105  -0.366  1.00  0.00     0.030 A 
ATOM     16  C   UNL     1      -2.805   0.859  -0.192  1.00  0.00     0.124 A 
ENDROOT
BRANCH  16  17
ATOM     17  O   UNL     1      -4.104   0.593  -0.484  1.00  0.00    -0.507 OA
ATOM     18  H   UNL     1      -4.470  -0.244  -0.791  1.00  0.00     0.293 HD
ENDBRANCH  16  17
BRANCH  15  19
ATOM     19  C   UNL     1      -2.152  -1.435  -1.024  1.00  0.00     0.145 C 
ATOM     20  C   UNL     1      -2.788  -2.406  -0.012  1.00  0.00     0.044 C 
BRANCH  19  21
ATOM     21  O   UNL     1      -1.093  -2.020  -1.733  1.00  0.00    -0.389 OA
ATOM     22  H   UNL     1      -1.474  -2.752  -2.287  1.00  0.00     0.211 HD
ENDBRANCH  19  21
ENDBRANCH  15  19
BRANCH   9  23
ATOM     23  O   UNL     1       4.403  -2.835  -0.123  1.00  0.00    -0.508 OA
ATOM     24  H   UNL     1       4.391  -3.800  -0.043  1.00  0.00     0.293 HD
ENDBRANCH   9  23
TORSDOF 4
