REMARK SMILES COc1c(Br)cc(Br)cc1Oc1cc(Br)c(Br)c(Br)c1OC
REMARK SMILES IDX 11 1 10 2 3 3 4 4 6 5 9 6 7 7 5 8 8 9 2 10 1 11 12 12 13 13
REMARK SMILES IDX 20 14 14 15 18 16 16 17 15 18 19 19 17 20 21 21 22 22
REMARK H PARENT
ROOT
ATOM      1  O   UNL     1      -0.199  -0.216   0.212  1.00  0.00    -0.449 OA
ENDROOT
BRANCH   1   2
ATOM      2  C   UNL     1      -1.452   0.280   0.030  1.00  0.00     0.171 A 
ATOM      3  C   UNL     1      -2.569  -0.600  -0.013  1.00  0.00     0.175 A 
ATOM      4  C   UNL     1      -3.860  -0.062  -0.168  1.00  0.00     0.065 A 
ATOM      5  C   UNL     1      -4.050   1.317  -0.276  1.00  0.00     0.035 A 
ATOM      6  C   UNL     1      -1.671   1.670  -0.073  1.00  0.00     0.066 A 
ATOM      7  C   UNL     1      -2.959   2.181  -0.228  1.00  0.00     0.023 A 
ATOM      8  Br  UNL     1      -5.394  -1.207  -0.233  1.00  0.00    -0.047 Br
ATOM      9  Br  UNL     1      -3.227   4.068  -0.361  1.00  0.00    -0.051 Br
BRANCH   3  10
ATOM     10  O   UNL     1      -2.470  -1.956   0.082  1.00  0.00    -0.492 OA
ATOM     11  C   UNL     1      -1.326  -2.718   0.194  1.00  0.00     0.278 C 
ENDBRANCH   3  10
ENDBRANCH   1   2
BRANCH   1  12
ATOM     12  C   UNL     1       0.992   0.334  -0.144  1.00  0.00     0.171 A 
ATOM     13  C   UNL     1       1.128   1.137  -1.289  1.00  0.00     0.068 A 
ATOM     14  C   UNL     1       2.119   0.054   0.642  1.00  0.00     0.176 A 
ATOM     15  C   UNL     1       2.367   1.676  -1.638  1.00  0.00     0.037 A 
ATOM     16  C   UNL     1       3.373   0.607   0.304  1.00  0.00     0.079 A 
ATOM     17  C   UNL     1       3.496   1.421  -0.840  1.00  0.00     0.050 A 
ATOM     18  Br  UNL     1       2.466   2.763  -3.215  1.00  0.00    -0.049 Br
ATOM     19  Br  UNL     1       4.905   0.283   1.425  1.00  0.00    -0.045 Br
ATOM     20  Br  UNL     1       5.197   2.185  -1.316  1.00  0.00    -0.048 Br
BRANCH  14  21
ATOM     21  O   UNL     1       1.962  -0.727   1.736  1.00  0.00    -0.492 OA
ATOM     22  C   UNL     1       2.399  -2.034   1.799  1.00  0.00     0.278 C 
ENDBRANCH  14  21
ENDBRANCH   1  12
TORSDOF 4
