REMARK SMILES CC(C)[C@@H](C)[C@@]1(C)C[C@@H]1[C@@H](C)[C@H]1CC[C@H]2[C@@H]3[C@H](O)C=C4C[C@@H](O)CC[C@]4(C)[C@]3(O)OC[C@]12C
REMARK SMILES IDX 6 1 7 2 8 3 9 4 4 5 5 6 2 7 1 8 3 9 10 10 11 11 12 12 13 13
REMARK SMILES IDX 32 14 14 15 31 16 15 17 30 18 16 19 28 20 17 21 26 22 19 23
REMARK SMILES IDX 25 24 20 25 24 26 21 27 22 28 33 29 27 30 29 31 18 33 23 35
REMARK H PARENT 29 32 18 34 23 36
ROOT
ATOM      1  C   UNL     1       4.324   0.026  -0.178  1.00  0.00    -0.026 C 
ATOM      2  C   UNL     1       4.269  -1.488  -0.469  1.00  0.00     0.012 C 
ATOM      3  C   UNL     1       3.624   0.342   1.129  1.00  0.00     0.011 C 
ATOM      4  C   UNL     1       3.041   0.929  -0.175  1.00  0.00    -0.001 C 
ENDROOT
BRANCH   1   5
ATOM      5  C   UNL     1       5.694   0.786  -0.361  1.00  0.00    -0.005 C 
ATOM      6  C   UNL     1       6.089   0.771  -1.850  1.00  0.00     0.008 C 
BRANCH   5   7
ATOM      7  C   UNL     1       6.871   0.370   0.597  1.00  0.00    -0.014 C 
ATOM      8  C   UNL     1       7.996   1.426   0.561  1.00  0.00     0.007 C 
ATOM      9  C   UNL     1       7.515  -1.005   0.326  1.00  0.00     0.007 C 
ENDBRANCH   5   7
ENDBRANCH   1   5
BRANCH   4  10
ATOM     10  C   UNL     1       1.837   0.398  -1.043  1.00  0.00    -0.007 C 
ATOM     11  C   UNL     1       2.261  -0.049  -2.457  1.00  0.00     0.008 C 
BRANCH  10  12
ATOM     12  C   UNL     1       0.655  -0.468  -0.451  1.00  0.00     0.001 C 
ATOM     13  C   UNL     1       0.856  -1.806   0.324  1.00  0.00     0.005 C 
ATOM     14  C   UNL     1      -0.504   0.256   0.287  1.00  0.00    -0.002 C 
ATOM     15  C   UNL     1      -0.387  -1.943   1.230  1.00  0.00     0.005 C 
ATOM     16  C   UNL     1      -1.355   1.194  -0.628  1.00  0.00     0.171 C 
ATOM     17  C   UNL     1      -1.393  -0.961   0.626  1.00  0.00     0.009 C 
ATOM     18  O   UNL     1      -2.739   0.870  -0.632  1.00  0.00    -0.348 OA
ATOM     19  C   UNL     1      -2.663  -0.542   1.418  1.00  0.00     0.086 C 
ATOM     20  C   UNL     1      -3.317   0.735   0.671  1.00  0.00     0.180 C 
ATOM     21  C   UNL     1      -3.669  -1.736   1.605  1.00  0.00     0.146 C 
ATOM     22  C   UNL     1      -4.879   0.581   0.453  1.00  0.00     0.043 C 
ATOM     23  C   UNL     1      -4.530  -1.904   0.381  1.00  0.00     0.005 C 
ATOM     24  C   UNL     1      -5.443   1.631  -0.562  1.00  0.00     0.019 C 
ATOM     25  C   UNL     1      -5.103  -0.817  -0.167  1.00  0.00    -0.058 C 
ATOM     26  C   UNL     1      -6.917   1.356  -0.970  1.00  0.00     0.033 C 
ATOM     27  C   UNL     1      -5.889  -0.946  -1.462  1.00  0.00     0.063 C 
ATOM     28  C   UNL     1      -7.192  -0.133  -1.348  1.00  0.00     0.118 C 
ATOM     29  C   UNL     1       0.028   1.051   1.516  1.00  0.00     0.014 C 
ATOM     30  C   UNL     1      -5.655   0.812   1.790  1.00  0.00     0.022 C 
BRANCH  20  31
ATOM     31  O   UNL     1      -3.065   1.904   1.423  1.00  0.00    -0.364 OA
ATOM     32  H   UNL     1      -3.249   2.686   0.844  1.00  0.00     0.214 HD
ENDBRANCH  20  31
BRANCH  21  33
ATOM     33  O   UNL     1      -3.048  -2.929   2.013  1.00  0.00    -0.389 OA
ATOM     34  H   UNL     1      -2.848  -3.474   1.208  1.00  0.00     0.211 HD
ENDBRANCH  21  33
BRANCH  28  35
ATOM     35  O   UNL     1      -8.098  -0.724  -0.443  1.00  0.00    -0.393 OA
ATOM     36  H   UNL     1      -7.615  -0.985   0.380  1.00  0.00     0.210 HD
ENDBRANCH  28  35
ENDBRANCH  10  12
ENDBRANCH   4  10
TORSDOF 7
