REMARK SMILES CC(C)C[C@@H](N)C(=O)N[C@@H]1C[C@@]2(O)c3ccccc3N3C(=O)[C@@H](C(C)C)N(C1=O)[C@H]32
REMARK SMILES IDX 7 1 8 2 9 3 5 5 4 6 2 7 1 8 3 9 6 10 10 13 11 14 28 15 12 16
REMARK SMILES IDX 27 17 29 18 14 19 30 20 23 21 15 22 19 23 20 24 21 25 16 26
REMARK SMILES IDX 18 27 22 28 17 29 13 30 24 32 25 33 26 34
REMARK H PARENT 9 4 6 11 6 12 13 31
ROOT
ATOM      1  C   UNL     1       2.485   1.126  -0.018  1.00  0.00     0.237 C 
ATOM      2  O   UNL     1       2.626   1.841   0.965  1.00  0.00    -0.273 OA
ATOM      3  N   UNL     1       1.253   0.605  -0.311  1.00  0.00    -0.343 N 
ATOM      4  H   UNL     1       1.126   0.029  -1.153  1.00  0.00     0.164 HD
ENDROOT
BRANCH   1   5
ATOM      5  C   UNL     1       3.718   0.851  -0.867  1.00  0.00     0.141 C 
BRANCH   5   6
ATOM      6  C   UNL     1       4.809   0.202   0.030  1.00  0.00     0.032 C 
BRANCH   6   7
ATOM      7  C   UNL     1       6.165  -0.090  -0.657  1.00  0.00    -0.015 C 
ATOM      8  C   UNL     1       6.828   1.186  -1.196  1.00  0.00     0.007 C 
ATOM      9  C   UNL     1       7.107  -0.768   0.349  1.00  0.00     0.007 C 
ENDBRANCH   6   7
ENDBRANCH   5   6
BRANCH   5  10
ATOM     10  N   UNL     1       3.404   0.005  -2.024  1.00  0.00    -0.320 NA
ATOM     11  H   UNL     1       3.193  -0.971  -1.712  1.00  0.00     0.119 HD
ATOM     12  H   UNL     1       4.214  -0.019  -2.683  1.00  0.00     0.119 HD
ENDBRANCH   5  10
ENDBRANCH   1   5
BRANCH   3  13
ATOM     13  C   UNL     1       0.094   0.819   0.545  1.00  0.00     0.175 C 
ATOM     14  C   UNL     1      -0.447  -0.508   1.182  1.00  0.00     0.079 C 
ATOM     15  C   UNL     1      -1.030   1.552  -0.186  1.00  0.00     0.247 C 
ATOM     16  C   UNL     1      -1.115  -1.418   0.136  1.00  0.00     0.133 C 
ATOM     17  N   UNL     1      -2.170   0.858  -0.463  1.00  0.00    -0.304 N 
ATOM     18  O   UNL     1      -0.942   2.751  -0.391  1.00  0.00    -0.272 OA
ATOM     19  C   UNL     1      -2.078  -2.491   0.642  1.00  0.00     0.011 A 
ATOM     20  C   UNL     1      -2.064  -0.553  -0.705  1.00  0.00     0.227 C 
ATOM     21  C   UNL     1      -3.553   1.299  -0.769  1.00  0.00     0.180 C 
ATOM     22  C   UNL     1      -1.808  -3.612   1.428  1.00  0.00     0.009 A 
ATOM     23  C   UNL     1      -3.372  -2.221   0.221  1.00  0.00     0.052 A 
ATOM     24  N   UNL     1      -3.358  -1.026  -0.500  1.00  0.00    -0.286 N 
ATOM     25  C   UNL     1      -4.273  -0.070  -0.717  1.00  0.00     0.251 C 
ATOM     26  C   UNL     1      -2.877  -4.453   1.786  1.00  0.00     0.001 A 
ATOM     27  C   UNL     1      -4.454  -3.021   0.582  1.00  0.00     0.027 A 
ATOM     28  O   UNL     1      -5.473  -0.258  -0.592  1.00  0.00    -0.272 OA
ATOM     29  C   UNL     1      -4.193  -4.157   1.368  1.00  0.00     0.002 A 
BRANCH  16  30
ATOM     30  O   UNL     1      -0.149  -2.002  -0.704  1.00  0.00    -0.381 OA
ATOM     31  H   UNL     1       0.409  -2.601  -0.144  1.00  0.00     0.212 HD
ENDBRANCH  16  30
BRANCH  21  32
ATOM     32  C   UNL     1      -4.203   2.218   0.346  1.00  0.00     0.015 C 
ATOM     33  C   UNL     1      -5.614   2.687  -0.081  1.00  0.00     0.010 C 
ATOM     34  C   UNL     1      -3.417   3.491   0.694  1.00  0.00     0.010 C 
ENDBRANCH  21  32
ENDBRANCH   3  13
TORSDOF 7
