REMARK SMILES CSCC[C@H](NC=O)C(=O)N[C@@H](CC(=O)O)C(=O)NCC(=O)N[C@@H](CS)C(=O)N[C@@H](CCC(=O)O)C(=O)N[C@@H](CC(C)C)C(=O)O
REMARK SMILES IDX 21 1 22 2 23 3 20 5 19 6 17 7 18 8 12 10 11 11 9 12 10 13
REMARK SMILES IDX 5 15 4 16 3 17 2 18 1 19 6 20 7 21 8 22 13 24 14 25 15 26
REMARK SMILES IDX 16 27 24 29 25 30 26 31 27 33 28 34 29 35 30 37 31 38 32 39
REMARK SMILES IDX 33 40 34 41 35 42 36 44 37 45 38 46 39 48 40 49 41 50 42 51
REMARK SMILES IDX 43 52 44 53 45 54 46 55
REMARK H PARENT 23 4 19 9 11 14 6 23 16 28 26 32 29 36 35 43 38 47 46 56
ROOT
ATOM      1  C   UNL     1      -0.736   1.593  -1.795  1.00  0.00     0.240 C 
ATOM      2  O   UNL     1      -1.469   1.881  -2.730  1.00  0.00    -0.273 OA
ATOM      3  N   UNL     1      -0.368   0.293  -1.587  1.00  0.00    -0.342 N 
ATOM      4  H   UNL     1       0.199   0.049  -0.762  1.00  0.00     0.164 HD
ENDROOT
BRANCH   1   5
ATOM      5  C   UNL     1      -0.292   2.721  -0.882  1.00  0.00     0.216 C 
BRANCH   5   6
ATOM      6  N   UNL     1       0.720   2.335   0.087  1.00  0.00    -0.345 N 
ATOM      7  C   UNL     1       1.979   1.961  -0.285  1.00  0.00     0.243 C 
ATOM      8  O   UNL     1       2.271   1.897  -1.472  1.00  0.00    -0.273 OA
ATOM      9  H   UNL     1       0.481   2.390   1.088  1.00  0.00     0.164 HD
BRANCH   7  10
ATOM     10  C   UNL     1       3.020   1.604   0.761  1.00  0.00     0.182 C 
BRANCH  10  11
ATOM     11  N   UNL     1       4.264   1.162   0.133  1.00  0.00    -0.342 N 
ATOM     12  C   UNL     1       4.753  -0.112   0.246  1.00  0.00     0.243 C 
ATOM     13  O   UNL     1       4.143  -0.942   0.907  1.00  0.00    -0.273 OA
ATOM     14  H   UNL     1       4.784   1.848  -0.427  1.00  0.00     0.164 HD
BRANCH  12  15
ATOM     15  C   UNL     1       6.040  -0.554  -0.443  1.00  0.00     0.171 C 
BRANCH  15  16
ATOM     16  C   UNL     1       7.035  -1.131   0.598  1.00  0.00     0.046 C 
BRANCH  16  17
ATOM     17  C   UNL     1       8.230  -1.838  -0.064  1.00  0.00     0.072 C 
BRANCH  17  18
ATOM     18  S   UNL     1       9.290  -2.650   1.185  1.00  0.00    -0.165 SA
ATOM     19  C   UNL     1      10.193  -1.147   1.681  1.00  0.00     0.085 C 
ENDBRANCH  17  18
ENDBRANCH  16  17
ENDBRANCH  15  16
BRANCH  15  20
ATOM     20  N   UNL     1       6.560   0.507  -1.316  1.00  0.00    -0.347 N 
ATOM     21  C   UNL     1       7.671   1.280  -1.145  1.00  0.00     0.337 C 
ATOM     22  O   UNL     1       8.395   1.184  -0.169  1.00  0.00    -0.279 OA
ATOM     23  H   UNL     1       5.986   0.725  -2.146  1.00  0.00     0.164 HD
ENDBRANCH  15  20
ENDBRANCH  12  15
ENDBRANCH  10  11
BRANCH  10  24
ATOM     24  C   UNL     1       3.301   2.760   1.754  1.00  0.00     0.157 C 
BRANCH  24  25
ATOM     25  C   UNL     1       3.816   4.086   1.215  1.00  0.00     0.305 C 
ATOM     26  O   UNL     1       4.066   4.967   2.023  1.00  0.00    -0.252 OA
BRANCH  25  27
ATOM     27  O   UNL     1       3.997   4.360  -0.096  1.00  0.00    -0.481 OA
ATOM     28  H   UNL     1       3.799   3.757  -0.819  1.00  0.00     0.296 HD
ENDBRANCH  25  27
ENDBRANCH  24  25
ENDBRANCH  10  24
ENDBRANCH   7  10
ENDBRANCH   5   6
ENDBRANCH   1   5
BRANCH   3  29
ATOM     29  C   UNL     1      -0.750  -0.798  -2.477  1.00  0.00     0.181 C 
BRANCH  29  30
ATOM     30  C   UNL     1       0.516  -1.526  -2.958  1.00  0.00     0.101 C 
BRANCH  30  31
ATOM     31  S   UNL     1       1.637  -0.399  -3.848  1.00  0.00    -0.177 SA
ATOM     32  H   UNL     1       0.796  -0.331  -4.975  1.00  0.00     0.102 HD
ENDBRANCH  30  31
ENDBRANCH  29  30
BRANCH  29  33
ATOM     33  C   UNL     1      -1.702  -1.777  -1.803  1.00  0.00     0.244 C 
ATOM     34  O   UNL     1      -2.064  -2.754  -2.445  1.00  0.00    -0.273 OA
ATOM     35  N   UNL     1      -2.190  -1.569  -0.543  1.00  0.00    -0.342 N 
ATOM     36  H   UNL     1      -1.907  -0.729  -0.017  1.00  0.00     0.164 HD
BRANCH  35  37
ATOM     37  C   UNL     1      -3.134  -2.470   0.111  1.00  0.00     0.172 C 
BRANCH  37  38
ATOM     38  C   UNL     1      -2.498  -2.936   1.451  1.00  0.00     0.047 C 
BRANCH  38  39
ATOM     39  C   UNL     1      -3.321  -3.923   2.305  1.00  0.00     0.125 C 
BRANCH  39  40
ATOM     40  C   UNL     1      -3.578  -5.292   1.709  1.00  0.00     0.303 C 
ATOM     41  O   UNL     1      -4.294  -6.063   2.327  1.00  0.00    -0.252 OA
BRANCH  40  42
ATOM     42  O   UNL     1      -3.022  -5.720   0.553  1.00  0.00    -0.481 OA
ATOM     43  H   UNL     1      -2.367  -5.219   0.053  1.00  0.00     0.296 HD
ENDBRANCH  40  42
ENDBRANCH  39  40
ENDBRANCH  38  39
ENDBRANCH  37  38
BRANCH  37  44
ATOM     44  C   UNL     1      -4.501  -1.808   0.282  1.00  0.00     0.243 C 
ATOM     45  O   UNL     1      -5.416  -2.487   0.725  1.00  0.00    -0.273 OA
ATOM     46  N   UNL     1      -4.743  -0.516  -0.101  1.00  0.00    -0.341 N 
ATOM     47  H   UNL     1      -3.980   0.058  -0.487  1.00  0.00     0.164 HD
BRANCH  46  48
ATOM     48  C   UNL     1      -6.056   0.114  -0.002  1.00  0.00     0.192 C 
BRANCH  48  49
ATOM     49  C   UNL     1      -5.909   1.345   0.939  1.00  0.00     0.040 C 
BRANCH  49  50
ATOM     50  C   UNL     1      -7.151   2.110   1.482  1.00  0.00    -0.015 C 
ATOM     51  C   UNL     1      -7.851   3.031   0.474  1.00  0.00     0.007 C 
ATOM     52  C   UNL     1      -8.156   1.175   2.165  1.00  0.00     0.007 C 
ENDBRANCH  49  50
ENDBRANCH  48  49
BRANCH  48  53
ATOM     53  C   UNL     1      -6.580   0.423  -1.400  1.00  0.00     0.326 C 
ATOM     54  O   UNL     1      -7.743   0.747  -1.547  1.00  0.00    -0.250 OA
BRANCH  53  55
ATOM     55  O   UNL     1      -5.830   0.250  -2.515  1.00  0.00    -0.480 OA
ATOM     56  H   UNL     1      -4.907  -0.036  -2.514  1.00  0.00     0.296 HD
ENDBRANCH  53  55
ENDBRANCH  48  53
ENDBRANCH  46  48
ENDBRANCH  37  44
ENDBRANCH  35  37
ENDBRANCH  29  33
ENDBRANCH   3  29
TORSDOF 27
