REMARK SMILES CC1(C)[C@H](O)CC[C@]2(C)[C@H]3CC[C@@]4(C)[C@H](c5ccoc5)OC(=O)[C@H]5O[C@]54[C@]3(C)C(=O)C[C@@H]12
REMARK SMILES IDX 1 1 2 2 3 3 4 4 6 5 7 6 8 7 9 8 10 9 11 10 12 11 13 12 14 13
REMARK SMILES IDX 15 14 21 15 22 16 23 17 24 18 25 19 26 20 27 21 28 22 29 23
REMARK SMILES IDX 30 24 31 25 32 26 5 27 16 29 20 30 17 31 19 32 18 33
REMARK H PARENT 5 28
ROOT
ATOM      1  C   UNL     1      -4.259  -0.011   2.340  1.00  0.00     0.014 C 
ATOM      2  C   UNL     1      -3.607  -0.971   1.317  1.00  0.00    -0.006 C 
ATOM      3  C   UNL     1      -3.582  -2.385   1.967  1.00  0.00     0.014 C 
ATOM      4  C   UNL     1      -4.511  -0.989   0.019  1.00  0.00     0.120 C 
ATOM      5  C   UNL     1      -3.692  -1.387  -1.214  1.00  0.00     0.033 C 
ATOM      6  C   UNL     1      -2.591  -0.337  -1.536  1.00  0.00     0.010 C 
ATOM      7  C   UNL     1      -1.950   0.397  -0.281  1.00  0.00    -0.025 C 
ATOM      8  C   UNL     1      -2.670   1.772  -0.135  1.00  0.00     0.012 C 
ATOM      9  C   UNL     1      -0.395   0.573  -0.531  1.00  0.00     0.012 C 
ATOM     10  C   UNL     1       0.096   1.240  -1.823  1.00  0.00     0.006 C 
ATOM     11  C   UNL     1       1.536   0.714  -2.195  1.00  0.00     0.014 C 
ATOM     12  C   UNL     1       2.469   0.263  -0.997  1.00  0.00     0.042 C 
ATOM     13  C   UNL     1       2.279  -1.259  -0.641  1.00  0.00     0.019 C 
ATOM     14  C   UNL     1       4.009   0.414  -1.437  1.00  0.00     0.219 C 
ATOM     15  O   UNL     1       4.542   1.655  -1.153  1.00  0.00    -0.455 OA
ATOM     16  C   UNL     1       4.408   2.220   0.071  1.00  0.00     0.339 C 
ATOM     17  O   UNL     1       5.253   2.992   0.490  1.00  0.00    -0.249 OA
ATOM     18  C   UNL     1       3.126   2.033   0.805  1.00  0.00     0.262 C 
ATOM     19  O   UNL     1       2.222   2.511  -0.146  1.00  0.00    -0.352 OA
ATOM     20  C   UNL     1       2.042   1.158   0.209  1.00  0.00     0.128 C 
ATOM     21  C   UNL     1       0.505   1.057   0.702  1.00  0.00     0.062 C 
ATOM     22  C   UNL     1       0.099   2.445   1.315  1.00  0.00     0.023 C 
ATOM     23  C   UNL     1       0.233   0.027   1.774  1.00  0.00     0.142 C 
ATOM     24  O   UNL     1       1.137  -0.636   2.260  1.00  0.00    -0.299 OA
ATOM     25  C   UNL     1      -1.215  -0.207   2.191  1.00  0.00     0.081 C 
ATOM     26  C   UNL     1      -2.102  -0.581   0.959  1.00  0.00     0.011 C 
ENDROOT
BRANCH   4  27
ATOM     27  O   UNL     1      -5.658  -1.789   0.187  1.00  0.00    -0.393 OA
ATOM     28  H   UNL     1      -5.420  -2.729  -0.025  1.00  0.00     0.210 HD
ENDBRANCH   4  27
BRANCH  14  29
ATOM     29  C   UNL     1       4.998  -0.609  -0.895  1.00  0.00     0.031 A 
ATOM     30  C   UNL     1       5.700  -1.523  -1.659  1.00  0.00     0.202 A 
ATOM     31  C   UNL     1       5.395  -0.819   0.411  1.00  0.00     0.049 A 
ATOM     32  O   UNL     1       6.470  -2.247  -0.881  1.00  0.00    -0.472 OA
ATOM     33  C   UNL     1       6.311  -1.853   0.362  1.00  0.00     0.195 A 
ENDBRANCH  14  29
TORSDOF 2
