REMARK SMILES C[C@H]1O[C@H](O[C@@H]2[C@@H](O)[C@@H](O)CO[C@H]2[C@@H](OO)[C@]23CCC(C)(C)C[C@H]2C2=CC[C@@H]4[C@@]5(C)C[C@H](O)[C@H](O[C@@H]6O[C@H](CO)[C@@H](O)[C@H](O)[C@H]6O)[C@@](C)(CO)[C@H]5CC[C@@]4(C)[C@]2(C)C[C@H]3O)[C@@H](O)[C@@H](O)[C@@H]1O[C@@H]1OC[C@@H](O)[C@H](O)[C@H]1O
REMARK SMILES IDX 6 1 7 2 9 3 11 4 12 5 13 6 5 7 4 8 2 9 3 10 65 11 63 12
REMARK SMILES IDX 61 13 1 14 66 15 67 16 68 17 74 18 69 19 72 20 70 21 75 22
REMARK SMILES IDX 73 24 71 26 64 28 62 30 8 32 14 34 15 35 16 36 17 38 18 39
REMARK SMILES IDX 24 40 59 41 19 42 23 43 25 44 58 45 20 46 26 47 56 48 27 49
REMARK SMILES IDX 54 50 28 51 53 52 29 53 52 54 31 55 51 56 32 57 47 58 34 59
REMARK SMILES IDX 21 60 22 61 57 62 55 63 30 64 48 65 60 66 33 68 49 70 50 71
REMARK SMILES IDX 35 73 36 74 37 75 45 76 38 77 43 78 41 79 46 80 39 82 40 83
REMARK SMILES IDX 44 85 42 87 10 89
REMARK H PARENT 75 23 73 25 71 27 64 29 62 31 8 33 16 37 60 67 33 69 50 72
REMARK H PARENT 46 81 40 84 44 86 42 88 10 90
ROOT
ATOM      1  C   UNL     1       3.542   0.336   1.188  1.00  0.00     0.184 C 
ATOM      2  C   UNL     1       3.289   1.580   2.079  1.00  0.00     0.177 C 
ATOM      3  C   UNL     1       1.866   1.651   2.654  1.00  0.00     0.171 C 
ATOM      4  C   UNL     1       1.582   0.315   3.347  1.00  0.00     0.195 C 
ATOM      5  O   UNL     1       1.629  -0.726   2.400  1.00  0.00    -0.370 OA
ATOM      6  C   UNL     1       2.940  -0.950   1.927  1.00  0.00     0.183 C 
ENDROOT
BRANCH   1   7
ATOM      7  O   UNL     1       4.975   0.298   1.067  1.00  0.00    -0.341 OA
BRANCH   7   8
ATOM      8  C   UNL     1       5.480  -0.185  -0.170  1.00  0.00     0.282 C 
ATOM      9  C   UNL     1       7.107   1.465  -1.010  1.00  0.00     0.150 C 
ATOM     10  O   UNL     1       5.801   0.864  -1.076  1.00  0.00    -0.344 OA
ATOM     11  C   UNL     1       8.303   0.571  -0.566  1.00  0.00     0.181 C 
ATOM     12  C   UNL     1       7.873  -0.348   0.578  1.00  0.00     0.180 C 
ATOM     13  C   UNL     1       6.649  -1.152   0.105  1.00  0.00     0.202 C 
ATOM     14  C   UNL     1       7.374   1.938  -2.445  1.00  0.00     0.041 C 
BRANCH  11  15
ATOM     15  O   UNL     1       9.387   1.402  -0.131  1.00  0.00    -0.341 OA
BRANCH  15  16
ATOM     16  C   UNL     1      10.639   1.187  -0.793  1.00  0.00     0.282 C 
ATOM     17  O   UNL     1      11.614   0.680   0.118  1.00  0.00    -0.347 OA
ATOM     18  C   UNL     1      11.145   2.494  -1.468  1.00  0.00     0.202 C 
ATOM     19  C   UNL     1      11.916   1.617   1.150  1.00  0.00     0.198 C 
ATOM     20  C   UNL     1      11.484   3.545  -0.396  1.00  0.00     0.179 C 
ATOM     21  C   UNL     1      12.497   2.943   0.596  1.00  0.00     0.171 C 
BRANCH  18  22
ATOM     22  O   UNL     1      12.290   2.221  -2.236  1.00  0.00    -0.385 OA
ATOM     23  H   UNL     1      11.985   1.750  -3.055  1.00  0.00     0.211 HD
ENDBRANCH  18  22
BRANCH  20  24
ATOM     24  O   UNL     1      10.305   3.915   0.277  1.00  0.00    -0.387 OA
ATOM     25  H   UNL     1      10.534   4.690   0.854  1.00  0.00     0.211 HD
ENDBRANCH  20  24
BRANCH  21  26
ATOM     26  O   UNL     1      13.753   2.778  -0.019  1.00  0.00    -0.388 OA
ATOM     27  H   UNL     1      13.880   1.832  -0.285  1.00  0.00     0.211 HD
ENDBRANCH  21  26
ENDBRANCH  15  16
ENDBRANCH  11  15
BRANCH  12  28
ATOM     28  O   UNL     1       8.921  -1.198   0.975  1.00  0.00    -0.387 OA
ATOM     29  H   UNL     1       9.195  -1.740   0.190  1.00  0.00     0.211 HD
ENDBRANCH  12  28
BRANCH  13  30
ATOM     30  O   UNL     1       6.956  -1.937  -1.028  1.00  0.00    -0.385 OA
ATOM     31  H   UNL     1       6.757  -1.419  -1.851  1.00  0.00     0.211 HD
ENDBRANCH  13  30
ENDBRANCH   7   8
ENDBRANCH   1   7
BRANCH   2  32
ATOM     32  O   UNL     1       3.634   2.768   1.413  1.00  0.00    -0.387 OA
ATOM     33  H   UNL     1       3.050   2.839   0.612  1.00  0.00     0.211 HD
ENDBRANCH   2  32
BRANCH   6  34
ATOM     34  C   UNL     1       2.950  -2.323   1.144  1.00  0.00     0.197 C 
BRANCH  34  35
ATOM     35  O   UNL     1       3.336  -3.346   2.063  1.00  0.00    -0.233 OA
BRANCH  35  36
ATOM     36  O   UNL     1       4.648  -3.509   1.971  1.00  0.00    -0.251 OA
ATOM     37  H   UNL     1       4.771  -4.338   1.442  1.00  0.00     0.255 HD
ENDBRANCH  35  36
ENDBRANCH  34  35
BRANCH  34  38
ATOM     38  C   UNL     1       1.716  -2.917   0.242  1.00  0.00     0.035 C 
ATOM     39  C   UNL     1       2.387  -4.022  -0.691  1.00  0.00     0.014 C 
ATOM     40  C   UNL     1       1.035  -1.816  -0.694  1.00  0.00     0.027 C 
ATOM     41  C   UNL     1       0.631  -3.695   1.140  1.00  0.00     0.125 C 
ATOM     42  C   UNL     1       3.205  -3.440  -1.860  1.00  0.00     0.007 C 
ATOM     43  C   UNL     1       0.949  -2.224  -2.190  1.00  0.00     0.015 C 
ATOM     44  C   UNL     1      -0.338  -1.242  -0.241  1.00  0.00    -0.064 C 
ATOM     45  C   UNL     1      -0.544  -2.837   1.663  1.00  0.00     0.044 C 
ATOM     46  C   UNL     1       2.332  -2.566  -2.824  1.00  0.00    -0.035 C 
ATOM     47  C   UNL     1      -0.636   0.010  -0.664  1.00  0.00    -0.027 C 
ATOM     48  C   UNL     1      -1.362  -2.068   0.564  1.00  0.00    -0.003 C 
ATOM     49  C   UNL     1      -1.918   0.746  -0.416  1.00  0.00     0.032 C 
ATOM     50  C   UNL     1      -2.539  -1.126   1.223  1.00  0.00    -0.020 C 
ATOM     51  C   UNL     1      -3.079  -0.125   0.125  1.00  0.00     0.006 C 
ATOM     52  C   UNL     1      -3.765  -1.968   1.715  1.00  0.00     0.008 C 
ATOM     53  C   UNL     1      -4.409   0.737   0.427  1.00  0.00    -0.023 C 
ATOM     54  C   UNL     1      -4.973  -1.113   2.159  1.00  0.00     0.005 C 
ATOM     55  C   UNL     1      -4.903   1.363  -0.937  1.00  0.00     0.042 C 
ATOM     56  C   UNL     1      -5.562  -0.163   1.061  1.00  0.00     0.006 C 
ATOM     57  C   UNL     1      -6.389   1.740  -0.960  1.00  0.00     0.144 C 
ATOM     58  C   UNL     1      -6.643  -0.738   0.029  1.00  0.00     0.023 C 
ATOM     59  C   UNL     1      -7.310   0.484  -0.772  1.00  0.00     0.158 C 
ATOM     60  C   UNL     1       3.094  -1.272  -3.188  1.00  0.00     0.011 C 
ATOM     61  C   UNL     1       2.069  -3.332  -4.141  1.00  0.00     0.011 C 
ATOM     62  C   UNL     1      -1.988  -3.108  -0.424  1.00  0.00     0.017 C 
ATOM     63  C   UNL     1      -1.942  -0.375   2.453  1.00  0.00     0.012 C 
ATOM     64  C   UNL     1      -4.138   1.929   1.409  1.00  0.00     0.012 C 
ATOM     65  C   UNL     1      -7.774  -1.479   0.804  1.00  0.00     0.017 C 
BRANCH  41  66
ATOM     66  O   UNL     1       0.090  -4.809   0.470  1.00  0.00    -0.392 OA
ATOM     67  H   UNL     1      -0.218  -5.458   1.158  1.00  0.00     0.210 HD
ENDBRANCH  41  66
BRANCH  57  68
ATOM     68  O   UNL     1      -6.654   2.784  -0.053  1.00  0.00    -0.390 OA
ATOM     69  H   UNL     1      -7.030   2.419   0.785  1.00  0.00     0.211 HD
ENDBRANCH  57  68
BRANCH  58  70
ATOM     70  C   UNL     1      -6.064  -1.795  -0.975  1.00  0.00     0.165 C 
BRANCH  70  71
ATOM     71  O   UNL     1      -7.042  -2.236  -1.888  1.00  0.00    -0.396 OA
ATOM     72  H   UNL     1      -7.457  -3.058  -1.517  1.00  0.00     0.210 HD
ENDBRANCH  70  71
ENDBRANCH  58  70
BRANCH  59  73
ATOM     73  O   UNL     1      -8.532   0.894  -0.155  1.00  0.00    -0.343 OA
BRANCH  73  74
ATOM     74  C   UNL     1      -9.507   1.389  -1.061  1.00  0.00     0.282 C 
ATOM     75  O   UNL     1      -9.429   2.817  -1.153  1.00  0.00    -0.341 OA
ATOM     76  C   UNL     1     -10.895   0.814  -0.653  1.00  0.00     0.202 C 
ATOM     77  C   UNL     1     -10.387   3.528  -0.381  1.00  0.00     0.178 C 
ATOM     78  C   UNL     1     -11.970   1.685  -1.295  1.00  0.00     0.179 C 
ATOM     79  C   UNL     1     -11.865   3.110  -0.706  1.00  0.00     0.177 C 
BRANCH  76  80
ATOM     80  O   UNL     1     -11.003  -0.539  -1.025  1.00  0.00    -0.385 OA
ATOM     81  H   UNL     1     -11.025  -0.581  -2.017  1.00  0.00     0.211 HD
ENDBRANCH  76  80
BRANCH  77  82
ATOM     82  C   UNL     1     -10.011   3.480   1.118  1.00  0.00     0.191 C 
BRANCH  82  83
ATOM     83  O   UNL     1     -10.874   4.282   1.878  1.00  0.00    -0.394 OA
ATOM     84  H   UNL     1     -10.578   5.221   1.752  1.00  0.00     0.210 HD
ENDBRANCH  82  83
ENDBRANCH  77  82
BRANCH  78  85
ATOM     85  O   UNL     1     -13.265   1.165  -1.128  1.00  0.00    -0.387 OA
ATOM     86  H   UNL     1     -13.411   1.028  -0.155  1.00  0.00     0.211 HD
ENDBRANCH  78  85
BRANCH  79  87
ATOM     87  O   UNL     1     -12.491   4.025  -1.570  1.00  0.00    -0.387 OA
ATOM     88  H   UNL     1     -11.938   4.083  -2.393  1.00  0.00     0.211 HD
ENDBRANCH  79  87
ENDBRANCH  73  74
ENDBRANCH  59  73
ENDBRANCH  34  38
ENDBRANCH   6  34
BRANCH   3  89
ATOM     89  O   UNL     1       0.902   1.929   1.673  1.00  0.00    -0.388 OA
ATOM     90  H   UNL     1       0.972   1.234   0.974  1.00  0.00     0.211 HD
ENDBRANCH   3  89
TORSDOF 26
