REMARK SMILES COc1cc2c(c(O)c1C[C@H](OC(C)=O)C(C)(C)O)C(=O)O[C@@H](C)C2
REMARK SMILES IDX 10 1 9 2 3 3 4 4 5 5 7 6 6 7 25 8 20 9 23 10 21 11 22 12
REMARK SMILES IDX 24 13 2 14 1 15 8 16 11 18 12 19 13 20 15 21 14 22 16 23
REMARK SMILES IDX 17 24 18 25 19 26
REMARK H PARENT 8 17 19 27
ROOT
ATOM      1  C   UNL     1      -1.180   1.270  -0.168  1.00  0.00     0.091 C 
ENDROOT
BRANCH   1   2
ATOM      2  C   UNL     1       0.244   0.756  -0.019  1.00  0.00     0.041 A 
ATOM      3  C   UNL     1       0.897   0.849   1.231  1.00  0.00     0.126 A 
ATOM      4  C   UNL     1       2.205   0.359   1.365  1.00  0.00     0.051 A 
ATOM      5  C   UNL     1       2.871  -0.208   0.278  1.00  0.00    -0.022 A 
ATOM      6  C   UNL     1       0.919   0.203  -1.136  1.00  0.00     0.137 A 
ATOM      7  C   UNL     1       2.252  -0.278  -0.989  1.00  0.00     0.105 A 
ATOM      8  C   UNL     1       4.253  -0.793   0.467  1.00  0.00     0.081 C 
ATOM      9  C   UNL     1       3.096  -0.843  -2.097  1.00  0.00     0.342 C 
ATOM     10  C   UNL     1       5.102  -0.551  -0.784  1.00  0.00     0.178 C 
ATOM     11  O   UNL     1       2.630  -1.126  -3.187  1.00  0.00    -0.246 OA
ATOM     12  O   UNL     1       4.426  -1.053  -1.886  1.00  0.00    -0.459 OA
ATOM     13  C   UNL     1       5.429   0.936  -0.980  1.00  0.00     0.053 C 
BRANCH   3  14
ATOM     14  O   UNL     1       0.223   1.377   2.289  1.00  0.00    -0.496 OA
ATOM     15  C   UNL     1       0.661   1.425   3.595  1.00  0.00     0.278 C 
ENDBRANCH   3  14
BRANCH   6  16
ATOM     16  O   UNL     1       0.259   0.185  -2.317  1.00  0.00    -0.507 OA
ATOM     17  H   UNL     1       0.604  -0.125  -3.160  1.00  0.00     0.293 HD
ENDBRANCH   6  16
ENDBRANCH   1   2
BRANCH   1  18
ATOM     18  C   UNL     1      -2.263   0.191  -0.450  1.00  0.00     0.212 C 
BRANCH  18  19
ATOM     19  O   UNL     1      -3.443   0.878  -0.709  1.00  0.00    -0.459 OA
BRANCH  19  20
ATOM     20  C   UNL     1      -4.162   0.824  -1.862  1.00  0.00     0.303 C 
ATOM     21  O   UNL     1      -3.787   0.154  -2.814  1.00  0.00    -0.253 OA
ATOM     22  C   UNL     1      -5.450   1.576  -1.959  1.00  0.00     0.139 C 
ENDBRANCH  19  20
ENDBRANCH  18  19
BRANCH  18  23
ATOM     23  C   UNL     1      -2.531  -0.815   0.732  1.00  0.00     0.096 C 
ATOM     24  C   UNL     1      -3.780  -1.674   0.425  1.00  0.00     0.046 C 
ATOM     25  C   UNL     1      -1.367  -1.803   0.945  1.00  0.00     0.046 C 
BRANCH  23  26
ATOM     26  O   UNL     1      -2.738  -0.116   1.938  1.00  0.00    -0.387 OA
ATOM     27  H   UNL     1      -3.527   0.475   1.821  1.00  0.00     0.211 HD
ENDBRANCH  23  26
ENDBRANCH  18  23
ENDBRANCH   1  18
TORSDOF 8
