REMARK SMILES CC[C@H](C)[C@H](NC(=O)C[C@@H](c1ccc2c(c1)OCO2)c1c(O)cc2c(c1O)C(=O)O[C@@H](C)CCCC(=O)CCC/C=C/2)C(N)=O
REMARK SMILES IDX 20 1 21 2 23 3 24 4 25 5 26 6 10 7 9 8 7 9 6 10 8 11 5 13
REMARK SMILES IDX 3 14 4 15 2 16 1 17 43 18 44 19 45 20 11 23 12 24 16 25
REMARK SMILES IDX 13 26 15 27 14 28 17 29 19 30 18 31 22 32 27 34 28 36 29 37
REMARK SMILES IDX 30 38 31 39 32 40 33 41 34 42 35 43 42 45 41 46 40 47 39 48
REMARK SMILES IDX 38 49 36 50 37 51
REMARK H PARENT 6 12 44 21 44 22 22 33 27 35
REMARK Flexibility Score:   67.900
ROOT
ATOM      1  C   UNL     1      -0.308   0.259  -0.072  1.00  0.00     0.045 A 
ATOM      2  C   UNL     1       0.138   0.836  -1.304  1.00  0.00     0.123 A 
ATOM      3  C   UNL     1       1.497   0.952  -1.563  1.00  0.00     0.055 A 
ATOM      4  C   UNL     1       2.485   0.533  -0.671  1.00  0.00    -0.004 A 
ATOM      5  C   UNL     1       2.104  -0.058   0.586  1.00  0.00     0.109 A 
ATOM      6  C   UNL     1       0.693  -0.161   0.867  1.00  0.00     0.138 A 
ENDROOT
BRANCH   1   7
ATOM      7  C   UNL     1      -1.788   0.011   0.370  1.00  0.00     0.066 C 
BRANCH   7   8
ATOM      8  C   UNL     1      -2.952   0.532  -0.517  1.00  0.00     0.113 C 
BRANCH   8   9
ATOM      9  C   UNL     1      -4.346   0.264   0.029  1.00  0.00     0.221 C 
ATOM     10  N   UNL     1      -5.431   0.551  -0.745  1.00  0.00    -0.344 N 
ATOM     11  O   UNL     1      -4.493  -0.243   1.131  1.00  0.00    -0.275 OA
ATOM     12  H   UNL     1      -5.276   0.984  -1.670  1.00  0.00     0.164 HD
BRANCH  10  13
ATOM     13  C   UNL     1      -6.802   0.222  -0.359  1.00  0.00     0.173 C 
BRANCH  13  14
ATOM     14  C   UNL     1      -7.674   1.525  -0.341  1.00  0.00     0.018 C 
ATOM     15  C   UNL     1      -9.129   1.245   0.098  1.00  0.00     0.010 C 
BRANCH  14  16
ATOM     16  C   UNL     1      -7.021   2.578   0.599  1.00  0.00     0.002 C 
ATOM     17  C   UNL     1      -7.731   3.936   0.609  1.00  0.00     0.004 C 
ENDBRANCH  14  16
ENDBRANCH  13  14
BRANCH  13  18
ATOM     18  C   UNL     1      -7.349  -0.874  -1.284  1.00  0.00     0.240 C 
ATOM     19  N   UNL     1      -6.649  -1.353  -2.345  1.00  0.00    -0.368 N 
ATOM     20  O   UNL     1      -8.436  -1.372  -1.038  1.00  0.00    -0.273 OA
ATOM     21  H   UNL     1      -5.716  -1.004  -2.603  1.00  0.00     0.159 HD
ATOM     22  H   UNL     1      -7.048  -2.103  -2.928  1.00  0.00     0.159 HD
ENDBRANCH  13  18
ENDBRANCH  10  13
ENDBRANCH   8   9
ENDBRANCH   7   8
BRANCH   7  23
ATOM     23  C   UNL     1      -1.982  -1.492   0.564  1.00  0.00    -0.036 A 
ATOM     24  C   UNL     1      -2.299  -2.017   1.849  1.00  0.00     0.008 A 
ATOM     25  C   UNL     1      -1.853  -2.381  -0.531  1.00  0.00     0.055 A 
ATOM     26  C   UNL     1      -2.487  -3.397   2.035  1.00  0.00     0.051 A 
ATOM     27  C   UNL     1      -2.049  -3.739  -0.297  1.00  0.00     0.166 A 
ATOM     28  C   UNL     1      -2.351  -4.222   0.924  1.00  0.00     0.165 A 
ATOM     29  O   UNL     1      -1.983  -4.750  -1.167  1.00  0.00    -0.454 OA
ATOM     30  O   UNL     1      -2.484  -5.549   0.855  1.00  0.00    -0.454 OA
ATOM     31  C   UNL     1      -2.258  -5.923  -0.467  1.00  0.00     0.468 C 
ENDBRANCH   7  23
ENDBRANCH   1   7
BRANCH   2  32
ATOM     32  O   UNL     1      -0.647   1.307  -2.298  1.00  0.00    -0.507 OA
ATOM     33  H   UNL     1      -1.597   1.382  -2.352  1.00  0.00     0.293 HD
ENDBRANCH   2  32
BRANCH   6  34
ATOM     34  O   UNL     1       0.227  -0.653   2.041  1.00  0.00    -0.507 OA
ATOM     35  H   UNL     1       0.703  -0.888   2.840  1.00  0.00     0.293 HD
ENDBRANCH   6  34
BRANCH   5  36
ATOM     36  C   UNL     1       3.153  -0.633   1.554  1.00  0.00     0.342 C 
ATOM     37  O   UNL     1       2.827  -1.268   2.541  1.00  0.00    -0.246 OA
BRANCH  36  38
ATOM     38  O   UNL     1       4.477  -0.505   1.299  1.00  0.00    -0.459 OA
BRANCH  38  39
ATOM     39  C   UNL     1       5.568  -1.052   1.946  1.00  0.00     0.173 C 
ATOM     40  C   UNL     1       6.390  -1.856   0.947  1.00  0.00     0.053 C 
BRANCH  39  41
ATOM     41  C   UNL     1       6.364   0.073   2.643  1.00  0.00     0.045 C 
BRANCH  41  42
ATOM     42  C   UNL     1       6.796   1.346   1.857  1.00  0.00     0.012 C 
BRANCH  42  43
ATOM     43  C   UNL     1       8.148   1.353   1.093  1.00  0.00     0.076 CG0
ATOM     44  G   UNL     1       8.223   0.838  -0.335  1.00  0.00     0.000 G0
ENDBRANCH  42  43
ENDBRANCH  41  42
ENDBRANCH  39  41
ENDBRANCH  38  39
ENDBRANCH  36  38
ENDBRANCH   5  36
BRANCH   4  45
ATOM     45  C   UNL     1       3.909   0.716  -1.088  1.00  0.00     0.005 C 
ATOM     46  C   UNL     1       4.405   0.800  -2.335  1.00  0.00    -0.026 C 
BRANCH  46  47
ATOM     47  C   UNL     1       5.910   0.816  -2.473  1.00  0.00     0.028 C 
BRANCH  47  48
ATOM     48  C   UNL     1       6.565   2.059  -1.837  1.00  0.00     0.012 C 
BRANCH  48  49
ATOM     49  C   UNL     1       8.041   1.797  -1.512  1.00  0.00     0.076 C 
BRANCH  49  50
ATOM     50  C   UNL     1       8.223   0.838  -0.335  1.00  0.00     0.132 CG0
ATOM     51  O   UNL     1       8.805  -0.216  -0.542  1.00  0.00    -0.300 OA
ATOM     52  G   UNL     1       8.148   1.353   1.093  1.00  0.00     0.000 G0
ENDBRANCH  49  50
ENDBRANCH  48  49
ENDBRANCH  47  48
ENDBRANCH  46  47
ENDBRANCH   4  45
TORSDOF 10
