REMARK SMILES CCCCC[C@@H](N)[C@H](O)C(=O)N[C@@H](Cc1ccc(O)cc1)C(=O)N(C)[C@@H](Cc1ccc(O)cc1)C(=O)N1CCC[C@H]1C(=O)O
REMARK SMILES IDX 13 1 12 2 10 3 11 4 8 6 6 7 5 8 4 9 3 10 2 11 1 12 7 13 9 16
REMARK SMILES IDX 14 18 15 19 16 20 21 21 17 22 20 23 18 24 19 25 22 27 23 28
REMARK SMILES IDX 24 29 25 30 26 31 27 32 28 33 29 34 34 35 30 36 33 37 31 38
REMARK SMILES IDX 32 39 35 41 36 42 37 43 38 44 41 45 39 46 40 47 42 48 43 49
REMARK SMILES IDX 44 50
REMARK H PARENT 12 5 7 14 7 15 9 17 19 26 32 40 44 51
ROOT
ATOM      1  C   UNL     1       0.268  -0.076  -0.449  1.00  0.00     0.176 C 
ENDROOT
BRANCH   1   2
ATOM      2  N   UNL     1       1.694   0.060  -0.152  1.00  0.00    -0.342 N 
ATOM      3  C   UNL     1       2.381   1.228  -0.308  1.00  0.00     0.251 C 
ATOM      4  O   UNL     1       1.808   2.239  -0.691  1.00  0.00    -0.272 OA
ATOM      5  H   UNL     1       2.208  -0.781   0.153  1.00  0.00     0.164 HD
BRANCH   3   6
ATOM      6  C   UNL     1       3.879   1.279  -0.053  1.00  0.00     0.219 C 
BRANCH   6   7
ATOM      7  C   UNL     1       4.252   0.888   1.409  1.00  0.00     0.089 C 
BRANCH   7   8
ATOM      8  C   UNL     1       5.774   0.676   1.625  1.00  0.00     0.022 C 
BRANCH   8   9
ATOM      9  C   UNL     1       6.659   1.934   1.505  1.00  0.00     0.002 C 
BRANCH   9  10
ATOM     10  C   UNL     1       8.155   1.634   1.719  1.00  0.00    -0.000 C 
BRANCH  10  11
ATOM     11  C   UNL     1       8.782   0.668   0.692  1.00  0.00    -0.003 C 
ATOM     12  C   UNL     1       8.678   1.168  -0.750  1.00  0.00     0.004 C 
ENDBRANCH  10  11
ENDBRANCH   9  10
ENDBRANCH   8   9
ENDBRANCH   7   8
BRANCH   7  13
ATOM     13  N   UNL     1       3.673   1.818   2.384  1.00  0.00    -0.325 NA
ATOM     14  H   UNL     1       4.090   2.771   2.297  1.00  0.00     0.119 HD
ATOM     15  H   UNL     1       3.856   1.467   3.352  1.00  0.00     0.119 HD
ENDBRANCH   7  13
ENDBRANCH   6   7
BRANCH   6  16
ATOM     16  O   UNL     1       4.404   2.531  -0.421  1.00  0.00    -0.382 OA
ATOM     17  H   UNL     1       3.950   3.233   0.112  1.00  0.00     0.211 HD
ENDBRANCH   6  16
ENDBRANCH   3   6
ENDBRANCH   1   2
BRANCH   1  18
ATOM     18  C   UNL     1       0.128  -1.086  -1.622  1.00  0.00     0.070 C 
BRANCH  18  19
ATOM     19  C   UNL     1       0.569  -2.492  -1.263  1.00  0.00    -0.045 A 
ATOM     20  C   UNL     1       1.800  -2.995  -1.721  1.00  0.00     0.007 A 
ATOM     21  C   UNL     1      -0.251  -3.319  -0.473  1.00  0.00     0.007 A 
ATOM     22  C   UNL     1       2.207  -4.290  -1.380  1.00  0.00     0.046 A 
ATOM     23  C   UNL     1       0.152  -4.615  -0.144  1.00  0.00     0.046 A 
ATOM     24  C   UNL     1       1.383  -5.104  -0.591  1.00  0.00     0.115 A 
BRANCH  24  25
ATOM     25  O   UNL     1       1.760  -6.355  -0.256  1.00  0.00    -0.508 OA
ATOM     26  H   UNL     1       2.606  -6.731  -0.539  1.00  0.00     0.293 HD
ENDBRANCH  24  25
ENDBRANCH  18  19
ENDBRANCH   1  18
BRANCH   1  27
ATOM     27  C   UNL     1      -0.510  -0.495   0.807  1.00  0.00     0.245 C 
ATOM     28  O   UNL     1       0.169  -0.840   1.770  1.00  0.00    -0.272 OA
BRANCH  27  29
ATOM     29  N   UNL     1      -1.895  -0.511   0.912  1.00  0.00    -0.332 N 
ATOM     30  C   UNL     1      -2.494  -1.039   2.151  1.00  0.00     0.147 C 
BRANCH  29  31
ATOM     31  C   UNL     1      -2.767   0.018  -0.173  1.00  0.00     0.178 C 
BRANCH  31  32
ATOM     32  C   UNL     1      -3.657  -1.064  -0.855  1.00  0.00     0.070 C 
BRANCH  32  33
ATOM     33  C   UNL     1      -4.692  -1.741   0.015  1.00  0.00    -0.045 A 
ATOM     34  C   UNL     1      -5.744  -1.013   0.594  1.00  0.00     0.007 A 
ATOM     35  C   UNL     1      -4.617  -3.128   0.248  1.00  0.00     0.007 A 
ATOM     36  C   UNL     1      -6.690  -1.650   1.400  1.00  0.00     0.046 A 
ATOM     37  C   UNL     1      -5.560  -3.763   1.060  1.00  0.00     0.046 A 
ATOM     38  C   UNL     1      -6.598  -3.028   1.640  1.00  0.00     0.115 A 
BRANCH  38  39
ATOM     39  O   UNL     1      -7.499  -3.654   2.424  1.00  0.00    -0.508 OA
ATOM     40  H   UNL     1      -8.229  -3.179   2.847  1.00  0.00     0.293 HD
ENDBRANCH  38  39
ENDBRANCH  32  33
ENDBRANCH  31  32
BRANCH  31  41
ATOM     41  C   UNL     1      -3.534   1.289   0.235  1.00  0.00     0.246 C 
ATOM     42  O   UNL     1      -3.631   1.566   1.421  1.00  0.00    -0.272 OA
BRANCH  41  43
ATOM     43  N   UNL     1      -4.035   2.181  -0.685  1.00  0.00    -0.327 N 
ATOM     44  C   UNL     1      -3.792   2.161  -2.114  1.00  0.00     0.120 C 
ATOM     45  C   UNL     1      -4.559   3.491  -0.295  1.00  0.00     0.195 C 
ATOM     46  C   UNL     1      -3.428   3.612  -2.384  1.00  0.00     0.024 C 
ATOM     47  C   UNL     1      -4.519   4.316  -1.591  1.00  0.00     0.039 C 
BRANCH  45  48
ATOM     48  C   UNL     1      -5.959   3.451   0.282  1.00  0.00     0.326 C 
ATOM     49  O   UNL     1      -6.559   2.394   0.381  1.00  0.00    -0.250 OA
BRANCH  48  50
ATOM     50  O   UNL     1      -6.577   4.591   0.659  1.00  0.00    -0.480 OA
ATOM     51  H   UNL     1      -6.147   5.453   0.580  1.00  0.00     0.296 HD
ENDBRANCH  48  50
ENDBRANCH  45  48
ENDBRANCH  41  43
ENDBRANCH  31  41
ENDBRANCH  29  31
ENDBRANCH  27  29
ENDBRANCH   1  27
TORSDOF 22
