REMARK SMILES C[C@H](O)C(=O)OCCc1ccc(O)cc1
REMARK SMILES IDX 6 1 4 2 5 3 2 4 1 5 3 6 7 8 8 9 9 10 10 11 15 12 11 13 14 14
REMARK SMILES IDX 12 15 13 16
REMARK H PARENT 3 7 13 17
ROOT
ATOM      1  O   UNL     1      -1.660   0.699  -0.759  1.00  0.00    -0.463 OA
ENDROOT
BRANCH   1   2
ATOM      2  C   UNL     1      -2.067  -0.532  -1.162  1.00  0.00     0.334 C 
ATOM      3  O   UNL     1      -1.780  -0.954  -2.274  1.00  0.00    -0.249 OA
BRANCH   2   4
ATOM      4  C   UNL     1      -2.915  -1.358  -0.222  1.00  0.00     0.220 C 
ATOM      5  C   UNL     1      -2.204  -1.604   1.114  1.00  0.00     0.051 C 
BRANCH   4   6
ATOM      6  O   UNL     1      -3.296  -2.578  -0.811  1.00  0.00    -0.382 OA
ATOM      7  H   UNL     1      -2.474  -3.118  -0.942  1.00  0.00     0.211 HD
ENDBRANCH   4   6
ENDBRANCH   2   4
ENDBRANCH   1   2
BRANCH   1   8
ATOM      8  C   UNL     1      -0.943   1.607  -1.514  1.00  0.00     0.237 C 
BRANCH   8   9
ATOM      9  C   UNL     1       0.495   1.161  -1.829  1.00  0.00     0.077 C 
BRANCH   9  10
ATOM     10  C   UNL     1       1.294   0.888  -0.578  1.00  0.00    -0.044 A 
ATOM     11  C   UNL     1       2.225   1.829  -0.107  1.00  0.00     0.007 A 
ATOM     12  C   UNL     1       1.125  -0.317   0.124  1.00  0.00     0.007 A 
ATOM     13  C   UNL     1       2.958   1.575   1.057  1.00  0.00     0.046 A 
ATOM     14  C   UNL     1       1.865  -0.574   1.280  1.00  0.00     0.046 A 
ATOM     15  C   UNL     1       2.780   0.371   1.754  1.00  0.00     0.115 A 
BRANCH  15  16
ATOM     16  O   UNL     1       3.482   0.111   2.876  1.00  0.00    -0.508 OA
ATOM     17  H   UNL     1       4.122   0.740   3.238  1.00  0.00     0.293 HD
ENDBRANCH  15  16
ENDBRANCH   9  10
ENDBRANCH   8   9
ENDBRANCH   1   8
TORSDOF 7
