REMARK SMILES CC1=C(C#C/C(C)=C/C=C/C(C)=C/C=C/C=C(C)/C=C/C=C(C)/C=C/C2=C(C)[C@H](O)[C@@H](O)CC2(C)C)C(C)(C)C[C@H](O)C1
REMARK SMILES IDX 14 1 15 2 13 3 11 4 12 5 10 6 9 7 8 8 5 9 6 10 7 11 4 12
REMARK SMILES IDX 2 13 3 14 43 15 37 16 41 17 40 18 1 19 38 20 39 21 42 22
REMARK SMILES IDX 16 24 17 25 18 26 19 27 20 28 21 29 22 30 23 31 24 32 25 33
REMARK SMILES IDX 26 34 27 35 34 36 29 37 33 38 31 39 28 40 35 41 36 42 30 43
REMARK SMILES IDX 32 45
REMARK H PARENT 42 23 30 44 32 46
ROOT
ATOM      1  C   UNL     1      -1.081   0.501  -0.522  1.00  0.00     0.000 C 
ATOM      2  C   UNL     1      -0.037  -0.106  -0.997  1.00  0.00     0.000 C 
ENDROOT
BRANCH   1   3
ATOM      3  C   UNL     1      -2.486   0.224  -0.826  1.00  0.00     0.003 C 
ATOM      4  C   UNL     1      -3.339   0.625   0.144  1.00  0.00    -0.051 C 
ATOM      5  C   UNL     1      -2.830   0.557   1.565  1.00  0.00     0.044 C 
BRANCH   4   6
ATOM      6  C   UNL     1      -4.778   0.819  -0.016  1.00  0.00     0.003 C 
ATOM      7  C   UNL     1      -5.490   1.546   0.880  1.00  0.00     0.001 C 
BRANCH   7   8
ATOM      8  C   UNL     1      -6.935   1.464   0.713  1.00  0.00     0.012 C 
ATOM      9  C   UNL     1      -9.219   1.582   1.040  1.00  0.00    -0.067 C 
ATOM     10  C   UNL     1      -7.897   1.959   1.482  1.00  0.00    -0.001 C 
ATOM     11  C   UNL     1      -7.660   2.768   2.732  1.00  0.00     0.054 C 
BRANCH   9  12
ATOM     12  C   UNL     1     -10.199   1.186   0.492  1.00  0.00    -0.066 C 
ATOM     13  C   UNL     1     -11.439   0.527  -1.538  1.00  0.00    -0.059 C 
ATOM     14  C   UNL     1     -11.405   0.699  -0.186  1.00  0.00     0.007 C 
ATOM     15  C   UNL     1     -12.739   0.057  -2.183  1.00  0.00     0.063 C 
ATOM     16  C   UNL     1     -12.662   0.462   0.635  1.00  0.00     0.000 C 
ATOM     17  C   UNL     1     -13.319  -1.099  -1.370  1.00  0.00     0.119 C 
ATOM     18  C   UNL     1     -13.518  -0.743   0.118  1.00  0.00     0.044 C 
ATOM     19  C   UNL     1     -10.268   0.808  -2.429  1.00  0.00     0.040 C 
ATOM     20  C   UNL     1     -13.496   1.755   0.597  1.00  0.00     0.017 C 
ATOM     21  C   UNL     1     -12.286   0.143   2.096  1.00  0.00     0.017 C 
BRANCH  17  22
ATOM     22  O   UNL     1     -12.485  -2.226  -1.490  1.00  0.00    -0.393 OA
ATOM     23  H   UNL     1     -11.607  -2.005  -1.084  1.00  0.00     0.210 HD
ENDBRANCH  17  22
ENDBRANCH   9  12
ENDBRANCH   7   8
ENDBRANCH   4   6
ENDBRANCH   1   3
BRANCH   2  24
ATOM     24  C   UNL     1       1.223   0.538  -0.573  1.00  0.00     0.003 C 
ATOM     25  C   UNL     1       2.411   0.047  -0.771  1.00  0.00    -0.051 C 
ATOM     26  C   UNL     1       2.605  -1.385  -1.320  1.00  0.00     0.044 C 
BRANCH  25  27
ATOM     27  C   UNL     1       3.557   0.966  -0.430  1.00  0.00     0.003 C 
ATOM     28  C   UNL     1       4.685   0.328  -0.223  1.00  0.00     0.001 C 
BRANCH  28  29
ATOM     29  C   UNL     1       6.072   0.592   0.047  1.00  0.00     0.003 C 
ATOM     30  C   UNL     1       6.880  -0.514   0.206  1.00  0.00    -0.051 C 
ATOM     31  C   UNL     1       6.460  -2.006   0.216  1.00  0.00     0.044 C 
BRANCH  30  32
ATOM     32  C   UNL     1       8.279  -0.224   0.315  1.00  0.00     0.004 C 
ATOM     33  C   UNL     1       9.254  -1.108   0.483  1.00  0.00     0.004 C 
BRANCH  33  34
ATOM     34  C   UNL     1      10.732  -0.814   0.501  1.00  0.00    -0.041 C 
ATOM     35  C   UNL     1      11.335   0.416   0.711  1.00  0.00    -0.039 C 
ATOM     36  C   UNL     1      11.579  -2.044   0.081  1.00  0.00    -0.008 C 
ATOM     37  C   UNL     1      12.841   0.520   0.739  1.00  0.00     0.169 C 
ATOM     38  C   UNL     1      13.084  -1.729  -0.209  1.00  0.00     0.046 C 
ATOM     39  C   UNL     1      13.382  -0.257  -0.446  1.00  0.00     0.148 C 
ATOM     40  C   UNL     1      10.674   1.753   0.922  1.00  0.00     0.043 C 
ATOM     41  C   UNL     1      11.515  -3.146   1.153  1.00  0.00     0.016 C 
ATOM     42  C   UNL     1      10.980  -2.591  -1.245  1.00  0.00     0.016 C 
BRANCH  37  43
ATOM     43  O   UNL     1      13.293   1.857   0.706  1.00  0.00    -0.386 OA
ATOM     44  H   UNL     1      13.065   2.212  -0.195  1.00  0.00     0.211 HD
ENDBRANCH  37  43
BRANCH  39  45
ATOM     45  O   UNL     1      14.765  -0.065  -0.574  1.00  0.00    -0.390 OA
ATOM     46  H   UNL     1      15.169  -0.326   0.296  1.00  0.00     0.211 HD
ENDBRANCH  39  45
ENDBRANCH  33  34
ENDBRANCH  30  32
ENDBRANCH  28  29
ENDBRANCH  25  27
ENDBRANCH   2  24
TORSDOF 12
