REMARK SMILES C/C=C(\C)C(=O)O[C@@H]1C[C@H](OC(=O)/C=C/c2ccccc2)[C@@]2(C)[C@H]3[C@@H](OC[C@]13C)[C@H]1O[C@@H]3C[C@@H](c4ccoc4)C(C)=C3[C@@]1(C)[C@@H]2CC(=O)OC
REMARK SMILES IDX 8 1 9 2 10 3 22 4 23 5 24 6 25 7 26 8 27 9 28 10 29 11 30 12
REMARK SMILES IDX 31 13 32 14 33 15 34 16 40 17 41 18 42 19 43 20 44 21 45 22
REMARK SMILES IDX 7 23 5 24 6 25 3 26 2 27 1 28 4 29 11 30 12 31 13 32 14 33
REMARK SMILES IDX 15 34 16 35 17 36 21 37 18 38 20 39 19 40 46 41 47 42 48 43
REMARK SMILES IDX 49 44 50 45 35 46 39 47 36 48 38 49 37 50
REMARK H PARENT
ROOT
ATOM      1  C   UNL     1      -2.220  -2.817   0.278  1.00  0.00     0.189 C 
ATOM      2  C   UNL     1      -1.861  -1.616  -0.691  1.00  0.00     0.092 C 
ATOM      3  C   UNL     1      -2.069  -0.283   0.072  1.00  0.00     0.187 C 
ATOM      4  C   UNL     1      -1.042  -0.072   1.273  1.00  0.00     0.015 C 
ATOM      5  C   UNL     1      -1.829   0.765   2.320  1.00  0.00     0.016 C 
ATOM      6  C   UNL     1      -0.670  -1.512   1.740  1.00  0.00     0.043 C 
ATOM      7  C   UNL     1       0.100  -1.650   3.015  1.00  0.00     0.152 C 
ATOM      8  O   UNL     1       0.107  -3.046   3.315  1.00  0.00    -0.374 OA
ATOM      9  C   UNL     1      -0.724  -3.690   2.341  1.00  0.00     0.171 C 
ATOM     10  C   UNL     1      -1.678  -2.616   1.761  1.00  0.00     0.034 C 
ATOM     11  C   UNL     1      -2.852  -2.423   2.758  1.00  0.00     0.018 C 
ATOM     12  C   UNL     1       1.514  -1.064   2.781  1.00  0.00     0.158 C 
ATOM     13  O   UNL     1       2.279  -1.918   1.923  1.00  0.00    -0.367 OA
ATOM     14  C   UNL     1       3.074  -1.071   1.121  1.00  0.00     0.146 C 
ATOM     15  C   UNL     1       4.576  -1.204   1.291  1.00  0.00     0.049 C 
ATOM     16  C   UNL     1       5.091   0.222   1.002  1.00  0.00     0.051 C 
ATOM     17  C   UNL     1       3.962   1.056   1.541  1.00  0.00    -0.063 C 
ATOM     18  C   UNL     1       4.114   2.489   1.959  1.00  0.00     0.040 C 
ATOM     19  C   UNL     1       2.855   0.294   1.596  1.00  0.00    -0.033 C 
ATOM     20  C   UNL     1       1.488   0.393   2.161  1.00  0.00     0.024 C 
ATOM     21  C   UNL     1       1.426   1.451   3.289  1.00  0.00     0.019 C 
ATOM     22  C   UNL     1       0.414   0.538   0.950  1.00  0.00     0.023 C 
ENDROOT
BRANCH   1  23
ATOM     23  O   UNL     1      -1.785  -4.009  -0.282  1.00  0.00    -0.458 OA
BRANCH  23  24
ATOM     24  C   UNL     1      -2.596  -4.996  -0.756  1.00  0.00     0.333 C 
ATOM     25  O   UNL     1      -3.811  -4.847  -0.769  1.00  0.00    -0.247 OA
BRANCH  24  26
ATOM     26  C   UNL     1      -2.016  -6.262  -1.283  1.00  0.00     0.030 C 
ATOM     27  C   UNL     1      -0.677  -6.455  -1.249  1.00  0.00    -0.020 C 
ATOM     28  C   UNL     1       0.005  -7.696  -1.751  1.00  0.00     0.036 C 
ATOM     29  C   UNL     1      -2.974  -7.293  -1.844  1.00  0.00     0.052 C 
ENDBRANCH  24  26
ENDBRANCH  23  24
ENDBRANCH   1  23
BRANCH   3  30
ATOM     30  O   UNL     1      -2.175   0.824  -0.765  1.00  0.00    -0.458 OA
BRANCH  30  31
ATOM     31  C   UNL     1      -3.337   1.530  -0.941  1.00  0.00     0.331 C 
ATOM     32  O   UNL     1      -4.372   1.169  -0.395  1.00  0.00    -0.247 OA
BRANCH  31  33
ATOM     33  C   UNL     1      -3.411   2.743  -1.779  1.00  0.00     0.094 C 
ATOM     34  C   UNL     1      -2.365   3.281  -2.428  1.00  0.00     0.015 C 
BRANCH  34  35
ATOM     35  C   UNL     1      -2.457   4.513  -3.270  1.00  0.00    -0.025 A 
ATOM     36  C   UNL     1      -1.282   5.004  -3.869  1.00  0.00     0.008 A 
ATOM     37  C   UNL     1      -3.668   5.209  -3.496  1.00  0.00     0.008 A 
ATOM     38  C   UNL     1      -1.313   6.152  -4.667  1.00  0.00     0.001 A 
ATOM     39  C   UNL     1      -3.691   6.355  -4.296  1.00  0.00     0.001 A 
ATOM     40  C   UNL     1      -2.517   6.827  -4.881  1.00  0.00     0.000 A 
ENDBRANCH  34  35
ENDBRANCH  31  33
ENDBRANCH  30  31
ENDBRANCH   3  30
BRANCH  22  41
ATOM     41  C   UNL     1       0.530   1.867   0.138  1.00  0.00     0.128 C 
BRANCH  41  42
ATOM     42  C   UNL     1       0.069   3.191   0.683  1.00  0.00     0.305 C 
ATOM     43  O   UNL     1      -0.400   3.311   1.803  1.00  0.00    -0.252 OA
BRANCH  42  44
ATOM     44  O   UNL     1       0.194   4.271  -0.131  1.00  0.00    -0.469 OA
ATOM     45  C   UNL     1      -0.224   5.543   0.191  1.00  0.00     0.282 C 
ENDBRANCH  42  44
ENDBRANCH  41  42
ENDBRANCH  22  41
BRANCH  16  46
ATOM     46  C   UNL     1       5.343   0.539  -0.453  1.00  0.00    -0.002 A 
ATOM     47  C   UNL     1       6.559   0.908  -0.992  1.00  0.00     0.199 A 
ATOM     48  C   UNL     1       4.442   0.544  -1.500  1.00  0.00     0.046 A 
ATOM     49  O   UNL     1       6.419   1.119  -2.282  1.00  0.00    -0.472 OA
ATOM     50  C   UNL     1       5.165   0.910  -2.615  1.00  0.00     0.195 A 
ENDBRANCH  16  46
TORSDOF 11
