REMARK SMILES C/C=C(/C)C(=O)O[C@@H]1CC[C@H]2C(=O)c3oc(C)c(C)c3C[C@]2(C)[C@H]1C
REMARK SMILES IDX 5 1 6 2 3 3 2 4 1 5 4 6 7 7 8 8 9 9 24 10 10 11 22 12 11 13
REMARK SMILES IDX 21 14 12 15 20 16 13 17 14 18 18 19 15 20 16 21 25 22 23 23
REMARK SMILES IDX 19 24 17 25
REMARK H PARENT
ROOT
ATOM      1  C   UNL     1       3.873   0.150   0.417  1.00  0.00     0.333 C 
ATOM      2  O   UNL     1       3.636   0.607   1.528  1.00  0.00    -0.247 OA
ENDROOT
BRANCH   1   3
ATOM      3  C   UNL     1       5.208   0.363  -0.218  1.00  0.00     0.030 C 
ATOM      4  C   UNL     1       6.210   1.084   0.348  1.00  0.00    -0.020 C 
ATOM      5  C   UNL     1       6.130   1.775   1.681  1.00  0.00     0.036 C 
ATOM      6  C   UNL     1       5.437  -0.262  -1.573  1.00  0.00     0.052 C 
ENDBRANCH   1   3
BRANCH   1   7
ATOM      7  O   UNL     1       2.906  -0.531  -0.263  1.00  0.00    -0.459 OA
BRANCH   7   8
ATOM      8  C   UNL     1       1.621  -0.761   0.213  1.00  0.00     0.180 C 
ATOM      9  C   UNL     1       1.350  -2.274   0.236  1.00  0.00     0.046 C 
ATOM     10  C   UNL     1       0.572  -0.034  -0.681  1.00  0.00     0.034 C 
ATOM     11  C   UNL     1      -0.067  -2.583   0.745  1.00  0.00     0.016 C 
ATOM     12  C   UNL     1      -0.891  -0.295  -0.144  1.00  0.00    -0.012 C 
ATOM     13  C   UNL     1      -1.117  -1.865  -0.129  1.00  0.00     0.071 C 
ATOM     14  C   UNL     1      -1.966   0.322  -1.098  1.00  0.00     0.048 C 
ATOM     15  C   UNL     1      -2.551  -2.236   0.246  1.00  0.00     0.201 C 
ATOM     16  C   UNL     1      -3.339  -0.036  -0.591  1.00  0.00     0.005 A 
ATOM     17  O   UNL     1      -2.827  -3.326   0.723  1.00  0.00    -0.290 OA
ATOM     18  C   UNL     1      -3.604  -1.238   0.011  1.00  0.00     0.173 A 
ATOM     19  C   UNL     1      -4.509   0.693  -0.521  1.00  0.00    -0.006 A 
ATOM     20  O   UNL     1      -4.854  -1.295   0.408  1.00  0.00    -0.458 OA
ATOM     21  C   UNL     1      -5.427  -0.146   0.104  1.00  0.00     0.104 A 
ATOM     22  C   UNL     1       0.930   1.463  -0.812  1.00  0.00     0.012 C 
ATOM     23  C   UNL     1      -1.089   0.339   1.278  1.00  0.00     0.013 C 
ATOM     24  C   UNL     1      -4.748   2.093  -1.000  1.00  0.00     0.048 C 
ATOM     25  C   UNL     1      -6.849   0.174   0.438  1.00  0.00     0.088 C 
ENDBRANCH   7   8
ENDBRANCH   1   7
TORSDOF 3
