REMARK SMILES COc1ccc([C@@H]2c3c(noc3C)C[C@@](C)(O)[C@H]2C(C)=O)cc1OC
REMARK SMILES IDX 7 1 8 2 12 3 13 4 11 5 10 6 9 7 14 8 15 9 16 10 18 11 6 12
REMARK SMILES IDX 3 13 4 14 23 15 5 16 22 17 2 18 1 19 24 20 25 21 19 22 21 23
REMARK SMILES IDX 20 24 17 25
REMARK H PARENT 17 26
ROOT
ATOM      1  C   UNL     1      -0.973   0.168  -0.615  1.00  0.00     0.068 C 
ATOM      2  C   UNL     1      -1.636   1.413  -0.045  1.00  0.00     0.026 A 
ATOM      3  C   UNL     1      -1.244   2.659   0.437  1.00  0.00     0.137 A 
ATOM      4  C   UNL     1       0.108   3.297   0.489  1.00  0.00     0.091 C 
ATOM      5  O   UNL     1      -2.329   3.276   0.870  1.00  0.00    -0.361 OA
ATOM      6  N   UNL     1      -3.398   2.546   0.708  1.00  0.00    -0.084 NA
ATOM      7  C   UNL     1      -2.987   1.404   0.134  1.00  0.00     0.090 A 
ATOM      8  C   UNL     1      -3.803   0.236  -0.290  1.00  0.00     0.096 C 
ATOM      9  C   UNL     1      -3.160  -1.101   0.204  1.00  0.00     0.078 C 
ATOM     10  C   UNL     1      -3.635  -1.417   1.640  1.00  0.00     0.043 C 
ATOM     11  C   UNL     1      -1.558  -1.036   0.205  1.00  0.00     0.100 C 
ENDROOT
BRANCH   1  12
ATOM     12  C   UNL     1       0.546   0.207  -0.590  1.00  0.00    -0.036 A 
ATOM     13  C   UNL     1       3.371   0.279  -0.590  1.00  0.00     0.160 A 
ATOM     14  C   UNL     1       2.652   0.270  -1.801  1.00  0.00     0.051 A 
ATOM     15  C   UNL     1       2.673   0.240   0.628  1.00  0.00     0.161 A 
ATOM     16  C   UNL     1       1.258   0.228  -1.798  1.00  0.00     0.008 A 
ATOM     17  C   UNL     1       1.263   0.210   0.623  1.00  0.00     0.054 A 
BRANCH  13  18
ATOM     18  O   UNL     1       4.730   0.324  -0.555  1.00  0.00    -0.493 OA
ATOM     19  C   UNL     1       5.564   0.407  -1.651  1.00  0.00     0.278 C 
ENDBRANCH  13  18
BRANCH  15  20
ATOM     20  O   UNL     1       3.393   0.234   1.782  1.00  0.00    -0.493 OA
ATOM     21  C   UNL     1       2.876   0.146   3.058  1.00  0.00     0.278 C 
ENDBRANCH  15  20
ENDBRANCH   1  12
BRANCH  11  22
ATOM     22  C   UNL     1      -0.904  -2.364  -0.143  1.00  0.00     0.136 C 
ATOM     23  O   UNL     1      -0.274  -2.963   0.715  1.00  0.00    -0.300 OA
ATOM     24  C   UNL     1      -0.977  -2.952  -1.523  1.00  0.00     0.088 C 
ENDBRANCH  11  22
BRANCH   9  25
ATOM     25  O   UNL     1      -3.606  -2.130  -0.651  1.00  0.00    -0.389 OA
ATOM     26  H   UNL     1      -4.599  -2.163  -0.611  1.00  0.00     0.211 HD
ENDBRANCH   9  25
TORSDOF 5
