REMARK SMILES CCCCCCCCCCCC(=O)C[C@H](O)C[C@@H]1CC=CC(=O)O1
REMARK SMILES IDX 8 1 7 2 6 3 5 4 4 5 3 6 2 7 1 8 9 9 10 10 11 11 12 12 13 13
REMARK SMILES IDX 14 14 15 15 16 16 17 18 18 19 19 20 24 21 20 22 22 23 21 24
REMARK SMILES IDX 23 25
REMARK H PARENT 16 17
ROOT
ATOM      1  C   UNL     1      -2.615  -3.136   1.102  1.00  0.00     0.000 C 
ENDROOT
BRANCH   1   2
ATOM      2  C   UNL     1      -3.231  -2.802  -0.272  1.00  0.00     0.000 C 
BRANCH   2   3
ATOM      3  C   UNL     1      -4.731  -2.469  -0.188  1.00  0.00     0.000 C 
BRANCH   3   4
ATOM      4  C   UNL     1      -5.076  -1.251   0.698  1.00  0.00    -0.000 C 
BRANCH   4   5
ATOM      5  C   UNL     1      -4.367   0.064   0.322  1.00  0.00    -0.000 C 
BRANCH   5   6
ATOM      6  C   UNL     1      -4.723   0.560  -1.090  1.00  0.00    -0.000 C 
BRANCH   6   7
ATOM      7  C   UNL     1      -4.013   1.872  -1.466  1.00  0.00    -0.003 C 
ATOM      8  C   UNL     1      -4.412   3.057  -0.586  1.00  0.00     0.004 C 
ENDBRANCH   6   7
ENDBRANCH   5   6
ENDBRANCH   4   5
ENDBRANCH   3   4
ENDBRANCH   2   3
ENDBRANCH   1   2
BRANCH   1   9
ATOM      9  C   UNL     1      -1.138  -3.577   1.060  1.00  0.00     0.000 C 
BRANCH   9  10
ATOM     10  C   UNL     1      -0.071  -2.462   0.995  1.00  0.00     0.008 C 
BRANCH  10  11
ATOM     11  C   UNL     1      -0.036  -1.628  -0.295  1.00  0.00     0.075 C 
BRANCH  11  12
ATOM     12  C   UNL     1       1.103  -0.634  -0.371  1.00  0.00     0.135 C 
ATOM     13  O   UNL     1       1.174   0.059  -1.374  1.00  0.00    -0.300 OA
BRANCH  12  14
ATOM     14  C   UNL     1       2.113  -0.469   0.753  1.00  0.00     0.107 C 
BRANCH  14  15
ATOM     15  C   UNL     1       3.188   0.626   0.570  1.00  0.00     0.125 C 
BRANCH  15  16
ATOM     16  O   UNL     1       2.595   1.900   0.484  1.00  0.00    -0.393 OA
ATOM     17  H   UNL     1       2.248   2.023  -0.435  1.00  0.00     0.210 HD
ENDBRANCH  15  16
BRANCH  15  18
ATOM     18  C   UNL     1       4.166   0.341  -0.602  1.00  0.00     0.077 C 
BRANCH  18  19
ATOM     19  C   UNL     1       5.285   1.390  -0.765  1.00  0.00     0.183 C 
ATOM     20  C   UNL     1       6.231   1.496   0.453  1.00  0.00     0.073 C 
ATOM     21  O   UNL     1       4.753   2.634  -1.067  1.00  0.00    -0.459 OA
ATOM     22  C   UNL     1       7.225   2.615   0.235  1.00  0.00    -0.016 C 
ATOM     23  C   UNL     1       5.550   3.731  -1.129  1.00  0.00     0.330 C 
ATOM     24  C   UNL     1       6.886   3.690  -0.496  1.00  0.00     0.089 C 
ATOM     25  O   UNL     1       5.155   4.746  -1.681  1.00  0.00    -0.247 OA
ENDBRANCH  18  19
ENDBRANCH  15  18
ENDBRANCH  14  15
ENDBRANCH  12  14
ENDBRANCH  11  12
ENDBRANCH  10  11
ENDBRANCH   9  10
ENDBRANCH   1   9
TORSDOF 15
