REMARK SMILES C=C(C)C=Cc1c(O)nc2ccccc2c1OC
REMARK SMILES IDX 6 1 7 2 9 3 10 4 11 5 12 6 13 7 14 8 15 9 16 10 5 11 4 12
REMARK SMILES IDX 2 13 1 14 3 15 8 16 17 18 18 19
REMARK H PARENT 8 17
ROOT
ATOM      1  C   UNL     1      -0.011   0.615   0.425  1.00  0.00     0.079 A 
ATOM      2  C   UNL     1      -0.551   1.637   1.285  1.00  0.00     0.222 A 
ATOM      3  N   UNL     1      -1.879   1.641   1.570  1.00  0.00    -0.213 NA
ATOM      4  C   UNL     1      -2.757   0.742   1.070  1.00  0.00     0.078 A 
ATOM      5  C   UNL     1      -4.113   0.843   1.400  1.00  0.00     0.029 A 
ATOM      6  C   UNL     1      -5.032  -0.069   0.873  1.00  0.00     0.002 A 
ATOM      7  C   UNL     1      -4.595  -1.083   0.016  1.00  0.00     0.001 A 
ATOM      8  C   UNL     1      -3.240  -1.186  -0.313  1.00  0.00     0.014 A 
ATOM      9  C   UNL     1      -2.308  -0.271   0.213  1.00  0.00     0.043 A 
ATOM     10  C   UNL     1      -0.934  -0.341  -0.097  1.00  0.00     0.140 A 
ENDROOT
BRANCH   1  11
ATOM     11  C   UNL     1       1.433   0.429  -0.004  1.00  0.00     0.018 C 
ATOM     12  C   UNL     1       2.565   1.040   0.412  1.00  0.00     0.004 C 
BRANCH  12  13
ATOM     13  C   UNL     1       3.915   0.711  -0.147  1.00  0.00    -0.058 C 
ATOM     14  C   UNL     1       4.980   1.422   0.259  1.00  0.00     0.012 C 
ATOM     15  C   UNL     1       4.112  -0.400  -1.154  1.00  0.00     0.043 C 
ENDBRANCH  12  13
ENDBRANCH   1  11
BRANCH   2  16
ATOM     16  O   UNL     1       0.151   2.650   1.827  1.00  0.00    -0.493 OA
ATOM     17  H   UNL     1       1.038   2.935   1.618  1.00  0.00     0.295 HD
ENDBRANCH   2  16
BRANCH  10  18
ATOM     18  O   UNL     1      -0.501  -1.335  -0.912  1.00  0.00    -0.495 OA
ATOM     19  C   UNL     1      -0.158  -2.581  -0.429  1.00  0.00     0.278 C 
ENDBRANCH  10  18
TORSDOF 4
