REMARK SMILES CC[C@H](C)C(=O)O[C@H]1[C@@H](O)[C@H]2[C@H](CN3C[C@@H](C)CC[C@H]3[C@@]2(C)O)[C@@H]2C[C@@]34O[C@@]5(O)[C@@H](C[C@@H](OC(C)=O)[C@@H]3[C@@]21O)[C@]4(C)CC[C@H]5OC(=O)[C@](C)(O)[C@H](C)OC(C)=O
REMARK SMILES IDX 45 1 44 2 8 3 9 4 38 5 11 6 37 7 24 8 12 9 21 10 32 11 26 12
REMARK SMILES IDX 25 13 13 14 20 15 31 16 27 17 40 18 14 19 19 20 30 21 28 22
REMARK SMILES IDX 42 23 15 24 18 25 43 26 16 27 22 28 41 29 17 30 7 31 5 32
REMARK SMILES IDX 6 33 3 34 4 35 2 36 1 37 10 38 39 40 23 42 33 44 34 45 36 46
REMARK SMILES IDX 35 47 29 48 46 50 47 51 48 52 49 53 50 54 51 56 52 57 53 58
REMARK SMILES IDX 54 59 56 60 55 61
REMARK H PARENT 10 39 39 41 23 43 29 49 50 55
ROOT
ATOM      1  O   UNL     1       5.157   0.551   0.261  1.00  0.00    -0.454 OA
ENDROOT
BRANCH   1   2
ATOM      2  C   UNL     1       4.470   1.538   0.959  1.00  0.00     0.236 C 
ATOM      3  C   UNL     1      -2.174   1.452   0.582  1.00  0.00     0.238 C 
ATOM      4  C   UNL     1      -2.692   0.351   1.554  1.00  0.00     0.164 C 
ATOM      5  C   UNL     1      -1.154   0.929  -0.498  1.00  0.00     0.116 C 
ATOM      6  C   UNL     1      -3.125  -0.905   0.746  1.00  0.00     0.060 C 
ATOM      7  C   UNL     1       0.229   1.627  -0.464  1.00  0.00     0.099 C 
ATOM      8  C   UNL     1      -0.700  -0.540  -0.298  1.00  0.00     0.033 C 
ATOM      9  C   UNL     1      -1.891  -1.530  -0.023  1.00  0.00     0.018 C 
ATOM     10  C   UNL     1      -3.953  -1.986   1.547  1.00  0.00     0.083 C 
ATOM     11  C   UNL     1       0.405   3.160  -0.589  1.00  0.00     0.186 C 
ATOM     12  C   UNL     1       1.196   0.882   0.509  1.00  0.00     0.087 C 
ATOM     13  C   UNL     1       0.462  -0.476   0.728  1.00  0.00     0.044 C 
ATOM     14  C   UNL     1      -1.405  -2.842   0.622  1.00  0.00     0.089 C 
ATOM     15  C   UNL     1      -3.877  -3.324   0.739  1.00  0.00     0.088 C 
ATOM     16  C   UNL     1       1.250   3.738   0.563  1.00  0.00     0.055 C 
ATOM     17  O   UNL     1       2.431   0.810  -0.197  1.00  0.00    -0.339 OA
ATOM     18  C   UNL     1       1.633   1.544   1.856  1.00  0.00     0.006 C 
ATOM     19  N   UNL     1      -2.483  -3.853   0.781  1.00  0.00    -0.297 NA
ATOM     20  C   UNL     1      -4.851  -4.428   1.230  1.00  0.00     0.022 C 
ATOM     21  C   UNL     1       2.297   2.767   1.200  1.00  0.00     0.065 C 
ATOM     22  C   UNL     1       3.185   1.976   0.201  1.00  0.00     0.207 C 
ATOM     23  C   UNL     1       2.712   0.588   2.562  1.00  0.00     0.014 C 
ATOM     24  C   UNL     1      -2.313  -5.032  -0.093  1.00  0.00     0.088 C 
ATOM     25  C   UNL     1      -4.685  -5.690   0.374  1.00  0.00     0.006 C 
ATOM     26  C   UNL     1       4.151   1.101   2.406  1.00  0.00     0.052 C 
ATOM     27  C   UNL     1      -3.228  -6.178   0.380  1.00  0.00    -0.000 C 
ATOM     28  C   UNL     1      -5.428  -1.519   1.720  1.00  0.00     0.044 C 
ATOM     29  C   UNL     1       0.565   1.899   2.922  1.00  0.00     0.015 C 
ATOM     30  C   UNL     1      -2.801  -6.699   1.765  1.00  0.00     0.009 C 
BRANCH   3  31
ATOM     31  O   UNL     1      -3.274   1.980  -0.086  1.00  0.00    -0.456 OA
BRANCH  31  32
ATOM     32  C   UNL     1      -3.776   3.238   0.024  1.00  0.00     0.309 C 
ATOM     33  O   UNL     1      -3.241   4.066   0.750  1.00  0.00    -0.252 OA
BRANCH  32  34
ATOM     34  C   UNL     1      -5.047   3.569  -0.732  1.00  0.00     0.096 C 
ATOM     35  C   UNL     1      -5.601   4.959  -0.374  1.00  0.00     0.020 C 
BRANCH  34  36
ATOM     36  C   UNL     1      -4.847   3.402  -2.256  1.00  0.00     0.011 C 
ATOM     37  C   UNL     1      -3.804   4.348  -2.856  1.00  0.00     0.005 C 
ENDBRANCH  34  36
ENDBRANCH  32  34
ENDBRANCH  31  32
ENDBRANCH   3  31
BRANCH   4  38
ATOM     38  O   UNL     1      -3.706   0.878   2.373  1.00  0.00    -0.389 OA
ATOM     39  H   UNL     1      -4.444   1.202   1.797  1.00  0.00     0.211 HD
ENDBRANCH   4  38
BRANCH   5  40
ATOM     40  O   UNL     1      -1.743   1.014  -1.782  1.00  0.00    -0.385 OA
ATOM     41  H   UNL     1      -1.697   1.960  -2.077  1.00  0.00     0.211 HD
ENDBRANCH   5  40
BRANCH  10  42
ATOM     42  O   UNL     1      -3.360  -2.170   2.814  1.00  0.00    -0.388 OA
ATOM     43  H   UNL     1      -3.948  -2.759   3.354  1.00  0.00     0.211 HD
ENDBRANCH  10  42
BRANCH  11  44
ATOM     44  O   UNL     1       1.054   3.452  -1.784  1.00  0.00    -0.462 OA
BRANCH  44  45
ATOM     45  C   UNL     1       0.603   4.312  -2.737  1.00  0.00     0.302 C 
ATOM     46  O   UNL     1      -0.404   4.981  -2.562  1.00  0.00    -0.253 OA
ATOM     47  C   UNL     1       1.365   4.470  -4.011  1.00  0.00     0.139 C 
ENDBRANCH  44  45
ENDBRANCH  11  44
BRANCH  22  48
ATOM     48  O   UNL     1       3.541   2.756  -0.911  1.00  0.00    -0.362 OA
ATOM     49  H   UNL     1       3.821   2.130  -1.628  1.00  0.00     0.214 HD
ENDBRANCH  22  48
ENDBRANCH   1   2
BRANCH   1  50
ATOM     50  C   UNL     1       6.369   0.754  -0.339  1.00  0.00     0.342 C 
ATOM     51  O   UNL     1       6.806   1.890  -0.477  1.00  0.00    -0.249 OA
BRANCH  50  52
ATOM     52  C   UNL     1       7.197  -0.420  -0.844  1.00  0.00     0.196 C 
ATOM     53  C   UNL     1       7.553  -1.341   0.342  1.00  0.00     0.059 C 
BRANCH  52  54
ATOM     54  O   UNL     1       8.393   0.046  -1.434  1.00  0.00    -0.375 OA
ATOM     55  H   UNL     1       8.937   0.493  -0.732  1.00  0.00     0.212 HD
ENDBRANCH  52  54
BRANCH  52  56
ATOM     56  C   UNL     1       6.426  -1.232  -1.921  1.00  0.00     0.216 C 
ATOM     57  C   UNL     1       6.059  -0.382  -3.145  1.00  0.00     0.057 C 
BRANCH  56  58
ATOM     58  O   UNL     1       5.266  -1.767  -1.381  1.00  0.00    -0.459 OA
BRANCH  58  59
ATOM     59  C   UNL     1       4.990  -3.092  -1.264  1.00  0.00     0.303 C 
ATOM     60  O   UNL     1       5.768  -3.942  -1.671  1.00  0.00    -0.253 OA
ATOM     61  C   UNL     1       3.717  -3.520  -0.610  1.00  0.00     0.139 C 
ENDBRANCH  58  59
ENDBRANCH  56  58
ENDBRANCH  52  56
ENDBRANCH  50  52
ENDBRANCH   1  50
TORSDOF 17
