REMARK SMILES O=C1[C@@H]2[C@H](C(=O)N1c1ccccc1Cl)[C@]1(Br)c3ccccc3[C@@]2(Br)c2ccccc21
REMARK SMILES IDX 1 1 2 2 3 3 4 4 5 5 6 6 7 7 15 8 16 9 17 10 18 11 19 12
REMARK SMILES IDX 20 13 21 14 22 15 23 16 24 17 25 18 26 19 27 20 28 21 29 22
REMARK SMILES IDX 30 23 8 24 9 25 13 26 10 27 12 28 11 29 14 30
REMARK H PARENT
ROOT
ATOM      1  O   UNL     1       1.672   0.099  -2.279  1.00  0.00    -0.274 OA
ATOM      2  C   UNL     1       1.351   0.427  -1.147  1.00  0.00     0.239 C 
ATOM      3  C   UNL     1       0.190   1.332  -0.847  1.00  0.00     0.120 C 
ATOM      4  C   UNL     1       0.211   1.394   0.725  1.00  0.00     0.120 C 
ATOM      5  C   UNL     1       1.345   0.461   1.060  1.00  0.00     0.239 C 
ATOM      6  O   UNL     1       1.713   0.225   2.201  1.00  0.00    -0.274 OA
ATOM      7  N   UNL     1       1.969  -0.029  -0.035  1.00  0.00    -0.248 N 
ATOM      8  C   UNL     1      -1.178   0.978   1.312  1.00  0.00     0.089 C 
ATOM      9  Br  UNL     1      -1.167   1.115   3.270  1.00  0.00    -0.074 Br
ATOM     10  C   UNL     1      -1.486  -0.425   0.781  1.00  0.00    -0.021 A 
ATOM     11  C   UNL     1      -1.754  -1.558   1.564  1.00  0.00     0.006 A 
ATOM     12  C   UNL     1      -2.026  -2.779   0.941  1.00  0.00     0.000 A 
ATOM     13  C   UNL     1      -2.032  -2.876  -0.455  1.00  0.00     0.000 A 
ATOM     14  C   UNL     1      -1.767  -1.751  -1.246  1.00  0.00     0.006 A 
ATOM     15  C   UNL     1      -1.492  -0.520  -0.631  1.00  0.00    -0.021 A 
ATOM     16  C   UNL     1      -1.199   0.804  -1.351  1.00  0.00     0.089 C 
ATOM     17  Br  UNL     1      -1.233   0.679  -3.310  1.00  0.00    -0.074 Br
ATOM     18  C   UNL     1      -2.219   1.797  -0.782  1.00  0.00    -0.021 A 
ATOM     19  C   UNL     1      -3.117   2.575  -1.529  1.00  0.00     0.006 A 
ATOM     20  C   UNL     1      -3.989   3.446  -0.870  1.00  0.00     0.000 A 
ATOM     21  C   UNL     1      -3.974   3.545   0.526  1.00  0.00     0.000 A 
ATOM     22  C   UNL     1      -3.087   2.771   1.282  1.00  0.00     0.006 A 
ATOM     23  C   UNL     1      -2.204   1.894   0.633  1.00  0.00    -0.021 A 
ENDROOT
BRANCH   7  24
ATOM     24  C   UNL     1       3.104  -0.906  -0.009  1.00  0.00     0.070 A 
ATOM     25  C   UNL     1       3.108  -2.007   0.873  1.00  0.00     0.028 A 
ATOM     26  C   UNL     1       4.243  -0.697  -0.834  1.00  0.00     0.065 A 
ATOM     27  C   UNL     1       4.193  -2.885   0.917  1.00  0.00     0.002 A 
ATOM     28  C   UNL     1       5.327  -1.581  -0.768  1.00  0.00     0.023 A 
ATOM     29  C   UNL     1       5.300  -2.673   0.097  1.00  0.00     0.002 A 
ATOM     30  Cl  UNL     1       4.418   0.695  -1.901  1.00  0.00    -0.082 Cl
ENDBRANCH   7  24
TORSDOF 1
