REMARK SMILES O=C(NCc1ccccc1)[C@H]1CN2CC[C@H]1C[C@@H]2Cn1cc(COc2ccccc2)nn1
REMARK SMILES IDX 19 1 18 2 11 3 12 4 16 5 13 6 15 7 17 8 14 9 2 10 1 11 3 12
REMARK SMILES IDX 4 14 5 15 6 16 10 17 7 18 9 19 8 20 20 21 21 22 32 23 22 24
REMARK SMILES IDX 31 25 23 26 24 27 25 28 26 29 30 30 27 31 29 32 28 33
REMARK H PARENT 3 13
ROOT
ATOM      1  C   UNL     1      -0.882  -2.546  -0.673  1.00  0.00     0.165 C 
ENDROOT
BRANCH   1   2
ATOM      2  C   UNL     1      -0.409  -1.691   0.513  1.00  0.00     0.078 C 
ATOM      3  C   UNL     1       2.019   0.169   0.472  1.00  0.00     0.096 C 
ATOM      4  C   UNL     1       0.767   0.215  -0.479  1.00  0.00     0.098 C 
ATOM      5  C   UNL     1       1.672  -0.821   1.623  1.00  0.00     0.005 C 
ATOM      6  N   UNL     1      -0.466  -0.221   0.247  1.00  0.00    -0.298 NA
ATOM      7  C   UNL     1       0.605  -0.115   2.507  1.00  0.00     0.020 C 
ATOM      8  C   UNL     1       1.020  -2.088   1.008  1.00  0.00     0.025 C 
ATOM      9  C   UNL     1      -0.491   0.475   1.563  1.00  0.00     0.085 C 
BRANCH   3  10
ATOM     10  C   UNL     1       3.324  -0.115  -0.260  1.00  0.00     0.224 C 
ATOM     11  O   UNL     1       3.331  -0.224  -1.479  1.00  0.00    -0.275 OA
ATOM     12  N   UNL     1       4.492  -0.223   0.438  1.00  0.00    -0.352 N 
ATOM     13  H   UNL     1       4.478  -0.170   1.467  1.00  0.00     0.163 HD
BRANCH  12  14
ATOM     14  C   UNL     1       5.773  -0.419  -0.214  1.00  0.00     0.151 C 
BRANCH  14  15
ATOM     15  C   UNL     1       6.194   0.847  -0.916  1.00  0.00    -0.029 A 
ATOM     16  C   UNL     1       6.343   0.892  -2.312  1.00  0.00     0.005 A 
ATOM     17  C   UNL     1       6.449   2.004  -0.159  1.00  0.00     0.005 A 
ATOM     18  C   UNL     1       6.735   2.081  -2.938  1.00  0.00     0.000 A 
ATOM     19  C   UNL     1       6.848   3.186  -0.788  1.00  0.00     0.000 A 
ATOM     20  C   UNL     1       6.989   3.226  -2.177  1.00  0.00     0.000 A 
ENDBRANCH  14  15
ENDBRANCH  12  14
ENDBRANCH   3  10
ENDBRANCH   1   2
BRANCH   1  21
ATOM     21  N   UNL     1      -2.269  -2.242  -1.029  1.00  0.00    -0.251 N 
ATOM     22  C   UNL     1      -3.365  -2.428  -0.271  1.00  0.00     0.138 A 
ATOM     23  N   UNL     1      -2.650  -1.774  -2.208  1.00  0.00    -0.067 NA
ATOM     24  C   UNL     1      -4.439  -2.059  -1.052  1.00  0.00     0.120 A 
ATOM     25  N   UNL     1      -3.970  -1.653  -2.249  1.00  0.00    -0.132 NA
BRANCH  24  26
ATOM     26  C   UNL     1      -5.894  -2.156  -0.697  1.00  0.00     0.289 C 
BRANCH  26  27
ATOM     27  O   UNL     1      -6.227  -1.399   0.410  1.00  0.00    -0.487 OA
BRANCH  27  28
ATOM     28  C   UNL     1      -6.330  -0.044   0.482  1.00  0.00     0.119 A 
ATOM     29  C   UNL     1      -6.794   0.520   1.679  1.00  0.00     0.046 A 
ATOM     30  C   UNL     1      -6.018   0.807  -0.599  1.00  0.00     0.046 A 
ATOM     31  C   UNL     1      -6.948   1.904   1.801  1.00  0.00     0.004 A 
ATOM     32  C   UNL     1      -6.169   2.192  -0.470  1.00  0.00     0.004 A 
ATOM     33  C   UNL     1      -6.636   2.740   0.727  1.00  0.00     0.000 A 
ENDBRANCH  27  28
ENDBRANCH  26  27
ENDBRANCH  24  26
ENDBRANCH   1  21
TORSDOF 8
