REMARK SMILES CC1(C)CC[C@@]2(C)CC[C@]3(C)C(=CC[C@H]4[C@]5(C)CC[C@@H](O)C(C)(C)[C@H]5[C@H](O)C[C@]43C)[C@H]2C1
REMARK SMILES IDX 1 1 2 2 3 3 4 4 5 5 6 6 7 7 8 8 9 9 10 10 11 11 12 12 13 13
REMARK SMILES IDX 14 14 15 15 16 16 17 17 18 18 19 19 20 20 22 21 23 22 24 23
REMARK SMILES IDX 25 24 26 25 28 26 29 27 30 28 31 29 32 30 27 31 21 33
REMARK H PARENT 27 32 21 34
ROOT
ATOM      1  C   UNL     1      -6.013  -2.254   1.886  1.00  0.00     0.011 C 
ATOM      2  C   UNL     1      -5.438  -1.341   0.780  1.00  0.00    -0.035 C 
ATOM      3  C   UNL     1      -5.884  -1.925  -0.582  1.00  0.00     0.011 C 
ATOM      4  C   UNL     1      -5.998   0.115   0.951  1.00  0.00     0.007 C 
ATOM      5  C   UNL     1      -4.895   1.163   1.202  1.00  0.00     0.008 C 
ATOM      6  C   UNL     1      -3.790   1.136   0.098  1.00  0.00    -0.026 C 
ATOM      7  C   UNL     1      -4.429   1.676  -1.213  1.00  0.00     0.012 C 
ATOM      8  C   UNL     1      -2.661   2.113   0.524  1.00  0.00     0.008 C 
ATOM      9  C   UNL     1      -1.404   2.088  -0.403  1.00  0.00     0.012 C 
ATOM     10  C   UNL     1      -0.876   0.649  -0.826  1.00  0.00    -0.006 C 
ATOM     11  C   UNL     1      -1.304   0.341  -2.307  1.00  0.00     0.017 C 
ATOM     12  C   UNL     1      -1.632  -0.307   0.098  1.00  0.00    -0.064 C 
ATOM     13  C   UNL     1      -0.993  -0.972   1.078  1.00  0.00    -0.027 C 
ATOM     14  C   UNL     1       0.459  -0.821   1.396  1.00  0.00     0.032 C 
ATOM     15  C   UNL     1       1.210   0.403   0.735  1.00  0.00     0.006 C 
ATOM     16  C   UNL     1       2.828   0.325   0.901  1.00  0.00    -0.023 C 
ATOM     17  C   UNL     1       3.097  -0.412   2.256  1.00  0.00     0.012 C 
ATOM     18  C   UNL     1       3.478   1.758   1.041  1.00  0.00     0.010 C 
ATOM     19  C   UNL     1       4.900   1.902   0.409  1.00  0.00     0.033 C 
ATOM     20  C   UNL     1       5.779   0.641   0.570  1.00  0.00     0.120 C 
ATOM     21  C   UNL     1       5.116  -0.618  -0.156  1.00  0.00    -0.004 C 
ATOM     22  C   UNL     1       5.793  -0.724  -1.560  1.00  0.00     0.014 C 
ATOM     23  C   UNL     1       5.459  -1.947   0.565  1.00  0.00     0.014 C 
ATOM     24  C   UNL     1       3.542  -0.380  -0.344  1.00  0.00     0.032 C 
ATOM     25  C   UNL     1       2.626  -1.469  -0.935  1.00  0.00     0.119 C 
ATOM     26  C   UNL     1       1.255  -0.850  -1.431  1.00  0.00     0.040 C 
ATOM     27  C   UNL     1       0.745   0.497  -0.745  1.00  0.00    -0.017 C 
ATOM     28  C   UNL     1       1.351   1.757  -1.488  1.00  0.00     0.013 C 
ATOM     29  C   UNL     1      -3.184  -0.342  -0.050  1.00  0.00     0.022 C 
ATOM     30  C   UNL     1      -3.886  -1.356   0.902  1.00  0.00     0.015 C 
ENDROOT
BRANCH  25  31
ATOM     31  O   UNL     1       3.206  -2.208  -1.978  1.00  0.00    -0.393 OA
ATOM     32  H   UNL     1       3.310  -1.599  -2.756  1.00  0.00     0.210 HD
ENDBRANCH  25  31
BRANCH  20  33
ATOM     33  O   UNL     1       6.045   0.413   1.928  1.00  0.00    -0.393 OA
ATOM     34  H   UNL     1       6.664   1.128   2.234  1.00  0.00     0.210 HD
ENDBRANCH  20  33
TORSDOF 2
