REMARK SMILES O=C(O)c1cc2c(c3nc4cccc(O)c4nc13)[C@@H]1Cc3nc4cccc(O)c4nc3[C@@](O)(C1)O2
REMARK SMILES IDX 4 1 5 2 6 3 7 4 8 5 9 6 10 7 11 8 12 9 13 10 14 11 16 12
REMARK SMILES IDX 17 13 18 14 19 15 20 16 21 17 22 18 23 19 24 20 25 21 26 22
REMARK SMILES IDX 27 23 29 24 30 25 31 26 32 27 34 28 35 29 2 30 1 31 3 32
REMARK SMILES IDX 33 34 15 36 28 38
REMARK H PARENT 3 33 33 35 15 37 28 39
ROOT
ATOM      1  C   UNL     1      -2.279  -2.456  -0.260  1.00  0.00     0.091 A 
ATOM      2  C   UNL     1      -0.907  -2.593   0.056  1.00  0.00     0.065 A 
ATOM      3  C   UNL     1      -0.156  -1.510   0.521  1.00  0.00     0.130 A 
ATOM      4  C   UNL     1      -0.742  -0.246   0.659  1.00  0.00     0.026 A 
ATOM      5  C   UNL     1      -2.106  -0.080   0.362  1.00  0.00     0.098 A 
ATOM      6  N   UNL     1      -2.703   1.133   0.517  1.00  0.00    -0.244 NA
ATOM      7  C   UNL     1      -4.020   1.321   0.257  1.00  0.00     0.093 A 
ATOM      8  C   UNL     1      -4.606   2.577   0.434  1.00  0.00     0.031 A 
ATOM      9  C   UNL     1      -5.968   2.753   0.172  1.00  0.00     0.006 A 
ATOM     10  C   UNL     1      -6.745   1.674  -0.267  1.00  0.00     0.048 A 
ATOM     11  C   UNL     1      -6.162   0.409  -0.450  1.00  0.00     0.143 A 
ATOM     12  C   UNL     1      -4.794   0.234  -0.188  1.00  0.00     0.131 A 
ATOM     13  N   UNL     1      -4.201  -0.978  -0.354  1.00  0.00    -0.240 NA
ATOM     14  C   UNL     1      -2.876  -1.178  -0.093  1.00  0.00     0.105 A 
ATOM     15  C   UNL     1       0.111   0.891   1.190  1.00  0.00     0.038 C 
ATOM     16  C   UNL     1       0.924   1.597   0.069  1.00  0.00     0.067 C 
ATOM     17  C   UNL     1       2.291   1.008  -0.214  1.00  0.00     0.070 A 
ATOM     18  N   UNL     1       3.103   1.633  -1.110  1.00  0.00    -0.249 NA
ATOM     19  C   UNL     1       4.391   1.242  -1.296  1.00  0.00     0.093 A 
ATOM     20  C   UNL     1       5.213   1.912  -2.209  1.00  0.00     0.031 A 
ATOM     21  C   UNL     1       6.546   1.518  -2.365  1.00  0.00     0.006 A 
ATOM     22  C   UNL     1       7.060   0.457  -1.611  1.00  0.00     0.048 A 
ATOM     23  C   UNL     1       6.242  -0.224  -0.695  1.00  0.00     0.143 A 
ATOM     24  C   UNL     1       4.904   0.169  -0.540  1.00  0.00     0.131 A 
ATOM     25  N   UNL     1       4.091  -0.464   0.347  1.00  0.00    -0.238 NA
ATOM     26  C   UNL     1       2.798  -0.079   0.526  1.00  0.00     0.134 A 
ATOM     27  C   UNL     1       1.928  -0.761   1.550  1.00  0.00     0.254 C 
ATOM     28  C   UNL     1       1.045   0.307   2.260  1.00  0.00     0.096 C 
ATOM     29  O   UNL     1       1.144  -1.691   0.870  1.00  0.00    -0.456 OA
ENDROOT
BRANCH   1  30
ATOM     30  C   UNL     1      -3.081  -3.639  -0.739  1.00  0.00     0.338 C 
ATOM     31  O   UNL     1      -4.264  -3.504  -1.007  1.00  0.00    -0.246 OA
BRANCH  30  32
ATOM     32  O   UNL     1      -2.547  -4.874  -0.887  1.00  0.00    -0.478 OA
ATOM     33  H   UNL     1      -1.631  -5.107  -0.703  1.00  0.00     0.297 HD
ENDBRANCH  30  32
ENDBRANCH   1  30
BRANCH  27  34
ATOM     34  O   UNL     1       2.708  -1.453   2.494  1.00  0.00    -0.351 OA
ATOM     35  H   UNL     1       3.268  -0.785   2.970  1.00  0.00     0.215 HD
ENDBRANCH  27  34
BRANCH  11  36
ATOM     36  O   UNL     1      -6.907  -0.635  -0.870  1.00  0.00    -0.506 OA
ATOM     37  H   UNL     1      -7.854  -0.550  -1.051  1.00  0.00     0.293 HD
ENDBRANCH  11  36
BRANCH  23  38
ATOM     38  O   UNL     1       6.735  -1.243   0.040  1.00  0.00    -0.506 OA
ATOM     39  H   UNL     1       7.657  -1.530  -0.033  1.00  0.00     0.293 HD
ENDBRANCH  23  38
TORSDOF 5
