REMARK SMILES CC1=CC[C@@H]([C@H](C)[C@H]2CC[C@]3(C)[C@H]4[C@H](O)C[C@H]5C(C)(C)OC(=O)C=C[C@]56C[C@]46CC[C@]23C)OC1=O
REMARK SMILES IDX 8 1 9 2 10 3 11 4 12 5 13 6 14 7 16 8 17 9 26 10 27 11 28 12
REMARK SMILES IDX 29 13 30 14 31 15 32 16 6 17 7 18 5 19 2 20 3 21 34 22 4 23
REMARK SMILES IDX 33 24 35 25 1 26 15 27 25 29 24 30 18 32 19 33 20 34 21 35
REMARK SMILES IDX 22 36 23 37
REMARK H PARENT 15 28
REMARK Flexibility Score:   23.900
ROOT
ATOM      1  C   UNL     1       2.252  -1.264  -0.132  1.00  0.00     0.002 C 
ATOM      2  C   UNL     1       1.434  -2.571  -0.022  1.00  0.00     0.005 C 
ATOM      3  C   UNL     1       0.516  -2.334   1.149  1.00  0.00     0.008 C 
ATOM      4  C   UNL     1      -0.115  -0.956   0.838  1.00  0.00    -0.021 C 
ATOM      5  C   UNL     1      -0.789  -0.421   2.141  1.00  0.00     0.012 C 
ATOM      6  C   UNL     1      -1.241  -1.017  -0.301  1.00  0.00     0.031 C 
ATOM      7  C   UNL     1      -2.460  -1.942   0.066  1.00  0.00     0.119 C 
ATOM      8  C   UNL     1      -3.705  -1.171   0.524  1.00  0.00     0.040 C 
ATOM      9  C   UNL     1      -4.229  -0.254  -0.599  1.00  0.00     0.046 C 
ATOM     10  C   UNL     1      -3.159   0.839  -0.946  1.00  0.00     0.002 C 
ATOM     11  C   UNL     1      -2.263   0.492  -2.148  1.00  0.00     0.020 C 
ATOM     12  C   UNL     1      -1.651   0.443  -0.745  1.00  0.00    -0.013 C 
ATOM     13  C   UNL     1      -0.493   1.491  -0.712  1.00  0.00     0.009 C 
ATOM     14  C   UNL     1       0.851   0.780  -0.887  1.00  0.00     0.008 C 
ATOM     15  C   UNL     1       1.182  -0.139   0.331  1.00  0.00    -0.024 C 
ATOM     16  C   UNL     1       1.702   0.780   1.494  1.00  0.00     0.012 C 
ENDROOT
BRANCH   1  17
ATOM     17  C   UNL     1       3.649  -1.304   0.641  1.00  0.00     0.031 C 
ATOM     18  C   UNL     1       4.295  -2.714   0.647  1.00  0.00     0.012 C 
BRANCH  17  19
ATOM     19  C   UNL     1       4.701  -0.317   0.014  1.00  0.00     0.183 C 
ATOM     20  C   UNL     1       6.385   1.929  -0.420  1.00  0.00     0.030 C 
ATOM     21  C   UNL     1       6.867   0.915   0.320  1.00  0.00    -0.012 C 
ATOM     22  C   UNL     1       4.922   1.969  -0.677  1.00  0.00     0.333 C 
ATOM     23  C   UNL     1       5.924  -0.089   0.938  1.00  0.00     0.073 C 
ATOM     24  O   UNL     1       4.152   0.916  -0.296  1.00  0.00    -0.458 OA
ATOM     25  O   UNL     1       4.408   2.934  -1.221  1.00  0.00    -0.247 OA
ATOM     26  C   UNL     1       7.299   2.987  -0.978  1.00  0.00     0.052 C 
ENDBRANCH  17  19
ENDBRANCH   1  17
BRANCH   7  27
ATOM     27  O   UNL     1      -2.798  -2.848  -0.962  1.00  0.00    -0.393 OA
ATOM     28  H   UNL     1      -2.692  -2.419  -1.843  1.00  0.00     0.210 HD
ENDBRANCH   7  27
BRANCH  10  29
ATOM     29  C   UNL     1      -3.375   2.318  -0.666  1.00  0.00    -0.012 C 
ATOM     30  C   UNL     1      -4.470   3.000  -1.022  1.00  0.00     0.089 CG0
ATOM     31  G   UNL     1      -5.686   2.406  -1.608  1.00  0.00     0.000 G0
ENDBRANCH  10  29
BRANCH   9  32
ATOM     32  C   UNL     1      -5.685   0.278  -0.342  1.00  0.00     0.111 C 
ATOM     33  C   UNL     1      -6.691  -0.898  -0.383  1.00  0.00     0.057 C 
ATOM     34  C   UNL     1      -5.857   0.967   1.038  1.00  0.00     0.057 C 
BRANCH  32  35
ATOM     35  O   UNL     1      -6.086   1.131  -1.365  1.00  0.00    -0.456 OA
BRANCH  35  36
ATOM     36  C   UNL     1      -5.686   2.406  -1.608  1.00  0.00     0.330 CG0
ATOM     37  O   UNL     1      -6.435   3.135  -2.236  1.00  0.00    -0.247 OA
ATOM     38  G   UNL     1      -4.470   3.000  -1.022  1.00  0.00     0.000 G0
ENDBRANCH  35  36
ENDBRANCH  32  35
ENDBRANCH   9  32
TORSDOF 3
