REMARK SMILES COCCNC(=O)[C@H](C(C)C)N1C(=O)N2CCc3c([nH]c4ccccc34)[C@@]2(C)C1=O
REMARK SMILES IDX 5 1 6 2 7 3 4 5 3 6 2 7 1 8 8 9 9 10 10 11 11 12 12 13 13 14
REMARK SMILES IDX 29 15 14 16 15 17 27 18 30 19 16 20 19 21 17 22 18 23 20 24
REMARK SMILES IDX 26 25 21 26 25 27 22 28 24 29 23 30 28 31
REMARK H PARENT 5 4 20 32
ROOT
ATOM      1  N   UNL     1       3.899  -0.762   1.067  1.00  0.00    -0.352 N 
ATOM      2  C   UNL     1       2.732  -0.137   0.745  1.00  0.00     0.243 C 
ATOM      3  O   UNL     1       2.597   1.053   0.997  1.00  0.00    -0.273 OA
ATOM      4  H   UNL     1       3.979  -1.781   0.946  1.00  0.00     0.163 HD
ENDROOT
BRANCH   1   5
ATOM      5  C   UNL     1       5.038  -0.066   1.636  1.00  0.00     0.144 C 
BRANCH   5   6
ATOM      6  C   UNL     1       5.632   0.947   0.642  1.00  0.00     0.181 C 
BRANCH   6   7
ATOM      7  O   UNL     1       5.920   0.354  -0.612  1.00  0.00    -0.383 OA
ATOM      8  C   UNL     1       7.114  -0.395  -0.550  1.00  0.00     0.194 C 
ENDBRANCH   6   7
ENDBRANCH   5   6
ENDBRANCH   1   5
BRANCH   2   9
ATOM      9  C   UNL     1       1.561  -0.919   0.156  1.00  0.00     0.187 C 
BRANCH   9  10
ATOM     10  C   UNL     1       1.771  -1.454  -1.310  1.00  0.00     0.016 C 
ATOM     11  C   UNL     1       2.861  -2.539  -1.383  1.00  0.00     0.010 C 
ATOM     12  C   UNL     1       2.101  -0.383  -2.362  1.00  0.00     0.010 C 
ENDBRANCH   9  10
BRANCH   9  13
ATOM     13  N   UNL     1       0.302  -0.173   0.343  1.00  0.00    -0.249 N 
ATOM     14  C   UNL     1      -0.046   1.056  -0.120  1.00  0.00     0.328 C 
ATOM     15  C   UNL     1      -0.740  -0.613   1.094  1.00  0.00     0.263 C 
ATOM     16  O   UNL     1       0.651   1.744  -0.850  1.00  0.00    -0.248 OA
ATOM     17  N   UNL     1      -1.269   1.448   0.303  1.00  0.00    -0.304 N 
ATOM     18  C   UNL     1      -1.803   0.440   1.203  1.00  0.00     0.161 C 
ATOM     19  O   UNL     1      -0.763  -1.690   1.672  1.00  0.00    -0.271 OA
ATOM     20  C   UNL     1      -2.028   2.594  -0.223  1.00  0.00     0.128 C 
ATOM     21  C   UNL     1      -3.177   0.110   0.708  1.00  0.00     0.055 A 
ATOM     22  C   UNL     1      -3.503   2.569   0.270  1.00  0.00     0.060 C 
ATOM     23  C   UNL     1      -3.986   1.138   0.261  1.00  0.00    -0.015 A 
ATOM     24  N   UNL     1      -3.782  -1.090   0.580  1.00  0.00    -0.356 N 
ATOM     25  C   UNL     1      -5.157   0.542  -0.150  1.00  0.00     0.003 A 
ATOM     26  C   UNL     1      -5.001  -0.813   0.067  1.00  0.00     0.046 A 
ATOM     27  C   UNL     1      -6.332   1.075  -0.674  1.00  0.00     0.010 A 
ATOM     28  C   UNL     1      -6.019  -1.718  -0.228  1.00  0.00     0.026 A 
ATOM     29  C   UNL     1      -7.377   0.181  -0.973  1.00  0.00     0.001 A 
ATOM     30  C   UNL     1      -7.222  -1.207  -0.751  1.00  0.00     0.002 A 
ATOM     31  C   UNL     1      -1.849   0.937   2.661  1.00  0.00     0.053 C 
ATOM     32  H   UNL     1      -3.397  -2.027   0.831  1.00  0.00     0.166 HD
ENDBRANCH   9  13
ENDBRANCH   2   9
TORSDOF 6
