REMARK SMILES C=CC(C)(C)c1c(OC)cc(O)c2c(=O)c3c(CC=C(C)C)c(O)c(O)cc3oc12
REMARK SMILES IDX 6 1 7 2 10 3 11 4 13 5 30 6 29 7 28 8 27 9 25 10 23 11 17 12
REMARK SMILES IDX 16 13 14 14 15 15 3 16 4 17 5 18 2 19 1 20 8 21 9 22 12 23
REMARK SMILES IDX 18 25 19 26 20 27 21 28 22 29 26 30 24 32
REMARK H PARENT 12 24 26 31 24 33
ROOT
ATOM      1  C   UNL     1      -2.719   0.023  -0.036  1.00  0.00     0.047 A 
ATOM      2  C   UNL     1      -3.250   1.242  -0.548  1.00  0.00     0.130 A 
ATOM      3  C   UNL     1      -2.426   2.371  -0.679  1.00  0.00     0.094 A 
ATOM      4  C   UNL     1      -1.080   2.333  -0.331  1.00  0.00     0.134 A 
ATOM      5  C   UNL     1      -0.517   1.142   0.179  1.00  0.00     0.108 A 
ATOM      6  C   UNL     1      -1.336  -0.002   0.332  1.00  0.00     0.150 A 
ATOM      7  O   UNL     1      -0.796  -1.107   0.818  1.00  0.00    -0.455 OA
ATOM      8  C   UNL     1       0.472  -1.240   1.172  1.00  0.00     0.142 A 
ATOM      9  C   UNL     1       0.879  -2.479   1.657  1.00  0.00     0.098 A 
ATOM     10  C   UNL     1       2.201  -2.702   2.025  1.00  0.00     0.161 A 
ATOM     11  C   UNL     1       3.143  -1.671   1.906  1.00  0.00     0.162 A 
ATOM     12  C   UNL     1       2.761  -0.390   1.423  1.00  0.00     0.016 A 
ATOM     13  C   UNL     1       1.386  -0.166   1.048  1.00  0.00     0.073 A 
ATOM     14  C   UNL     1       0.852   1.048   0.535  1.00  0.00     0.204 A 
ATOM     15  O   UNL     1       1.562   2.022   0.384  1.00  0.00    -0.288 OA
ENDROOT
BRANCH   1  16
ATOM     16  C   UNL     1      -3.667  -1.220   0.056  1.00  0.00     0.015 C 
ATOM     17  C   UNL     1      -4.792  -0.941   1.083  1.00  0.00     0.021 C 
ATOM     18  C   UNL     1      -3.001  -2.547   0.502  1.00  0.00     0.021 C 
BRANCH  16  19
ATOM     19  C   UNL     1      -4.275  -1.469  -1.319  1.00  0.00    -0.024 C 
ATOM     20  C   UNL     1      -3.525  -1.703  -2.404  1.00  0.00     0.005 C 
ENDBRANCH  16  19
ENDBRANCH   1  16
BRANCH   2  21
ATOM     21  O   UNL     1      -4.557   1.297  -0.924  1.00  0.00    -0.496 OA
ATOM     22  C   UNL     1      -5.221   2.383  -1.456  1.00  0.00     0.278 C 
ENDBRANCH   2  21
BRANCH   4  23
ATOM     23  O   UNL     1      -0.330   3.446  -0.492  1.00  0.00    -0.507 OA
ATOM     24  H   UNL     1      -0.690   4.273  -0.844  1.00  0.00     0.293 HD
ENDBRANCH   4  23
BRANCH  12  25
ATOM     25  C   UNL     1       3.876   0.648   1.310  1.00  0.00     0.067 C 
BRANCH  25  26
ATOM     26  C   UNL     1       4.722   0.323   0.096  1.00  0.00    -0.023 C 
ATOM     27  C   UNL     1       4.947   1.116  -0.982  1.00  0.00    -0.080 C 
ATOM     28  C   UNL     1       5.791   0.589  -2.116  1.00  0.00     0.039 C 
ATOM     29  C   UNL     1       4.405   2.515  -1.162  1.00  0.00     0.039 C 
ENDBRANCH  25  26
ENDBRANCH  12  25
BRANCH  10  30
ATOM     30  O   UNL     1       2.578  -3.912   2.491  1.00  0.00    -0.504 OA
ATOM     31  H   UNL     1       1.956  -4.647   2.586  1.00  0.00     0.293 HD
ENDBRANCH  10  30
BRANCH  11  32
ATOM     32  O   UNL     1       4.429  -1.896   2.261  1.00  0.00    -0.504 OA
ATOM     33  H   UNL     1       4.747  -2.745   2.599  1.00  0.00     0.293 HD
ENDBRANCH  11  32
TORSDOF 8
