REMARK SMILES CCN(CC)C(=O)[C@@H](C)[C@@H]1CC[C@@]2(C)Cc3sc(-c4ccccc4)nc3[C@@H](C)[C@@H]2[C@H]1O
REMARK SMILES IDX 8 1 9 2 6 3 3 4 7 5 2 6 1 7 4 8 5 9 10 10 11 11 30 12 12 13
REMARK SMILES IDX 29 14 13 15 27 16 15 17 26 18 16 19 25 20 17 21 18 22 14 23
REMARK SMILES IDX 28 24 31 25 19 27 20 28 24 29 21 30 23 31 22 32
REMARK H PARENT 31 26
ROOT
ATOM      1  C   UNL     1      -3.009  -0.357  -1.338  1.00  0.00     0.081 C 
ATOM      2  C   UNL     1      -3.648  -0.660  -2.715  1.00  0.00     0.018 C 
ENDROOT
BRANCH   1   3
ATOM      3  C   UNL     1      -3.846   0.744  -0.665  1.00  0.00     0.225 C 
ATOM      4  N   UNL     1      -5.076   0.521  -0.068  1.00  0.00    -0.343 N 
ATOM      5  O   UNL     1      -3.427   1.892  -0.744  1.00  0.00    -0.275 OA
BRANCH   4   6
ATOM      6  C   UNL     1      -5.858   1.663   0.421  1.00  0.00     0.116 C 
ATOM      7  C   UNL     1      -5.202   2.319   1.639  1.00  0.00     0.027 C 
ENDBRANCH   4   6
BRANCH   4   8
ATOM      8  C   UNL     1      -5.654  -0.818   0.098  1.00  0.00     0.116 C 
ATOM      9  C   UNL     1      -5.043  -1.544   1.296  1.00  0.00     0.027 C 
ENDBRANCH   4   8
ENDBRANCH   1   3
BRANCH   1  10
ATOM     10  C   UNL     1      -1.503   0.073  -1.530  1.00  0.00     0.030 C 
ATOM     11  C   UNL     1      -0.606  -0.972  -2.260  1.00  0.00     0.007 C 
ATOM     12  C   UNL     1      -0.789   0.609  -0.212  1.00  0.00     0.122 C 
ATOM     13  C   UNL     1      -0.081  -2.127  -1.373  1.00  0.00     0.008 C 
ATOM     14  C   UNL     1       0.593  -0.093   0.049  1.00  0.00     0.033 C 
ATOM     15  C   UNL     1       0.390  -1.677   0.054  1.00  0.00    -0.022 C 
ATOM     16  C   UNL     1       1.491   0.342   1.257  1.00  0.00     0.042 C 
ATOM     17  C   UNL     1       1.688  -2.456   0.515  1.00  0.00     0.055 C 
ATOM     18  C   UNL     1       2.842  -0.276   0.924  1.00  0.00     0.058 A 
ATOM     19  C   UNL     1       2.903  -1.593   0.509  1.00  0.00     0.029 A 
ATOM     20  N   UNL     1       4.018   0.402   0.828  1.00  0.00    -0.241 NA
ATOM     21  S   UNL     1       4.465  -1.955   0.019  1.00  0.00    -0.119 S 
ATOM     22  C   UNL     1       5.019  -0.387   0.362  1.00  0.00     0.123 A 
ATOM     23  C   UNL     1      -0.705  -2.106   1.081  1.00  0.00     0.012 C 
ATOM     24  C   UNL     1       1.633   1.858   1.448  1.00  0.00     0.015 C 
BRANCH  12  25
ATOM     25  O   UNL     1      -0.647   2.005  -0.296  1.00  0.00    -0.392 OA
ATOM     26  H   UNL     1      -0.019   2.197  -1.042  1.00  0.00     0.210 HD
ENDBRANCH  12  25
BRANCH  22  27
ATOM     27  C   UNL     1       6.402   0.103   0.155  1.00  0.00     0.010 A 
ATOM     28  C   UNL     1       6.726   1.443   0.439  1.00  0.00     0.011 A 
ATOM     29  C   UNL     1       7.410  -0.752  -0.331  1.00  0.00     0.011 A 
ATOM     30  C   UNL     1       8.027   1.915   0.241  1.00  0.00     0.001 A 
ATOM     31  C   UNL     1       8.710  -0.275  -0.526  1.00  0.00     0.001 A 
ATOM     32  C   UNL     1       9.018   1.057  -0.240  1.00  0.00     0.000 A 
ENDBRANCH  22  27
ENDBRANCH   1  10
TORSDOF 6
