REMARK SMILES C[C@@H]1O[C@@H](OC[C@H]2O[C@@H](Oc3c(-c4ccc(O)c(O)c4)oc4c5c(cc(O)c4c3=O)Oc3cc(O)c(O)cc3[C@@H]5CO[C@@H]3O[C@H](CO[C@@H]4O[C@@H](C)[C@H](O)[C@@H](O)[C@H]4O)[C@@H](OC(=O)/C=C/c4ccc(O)c(O)c4)[C@H](O)[C@H]3O)[C@H](O)[C@@H](O)[C@@H]2O)[C@H](O)[C@H](O)[C@H]1O
REMARK SMILES IDX 41 1 40 2 11 3 12 4 29 5 21 6 28 7 30 8 22 9 26 10 23 11
REMARK SMILES IDX 25 12 24 13 31 14 39 15 32 16 38 17 33 18 36 19 34 20 10 21
REMARK SMILES IDX 9 22 7 23 8 24 80 25 78 26 76 27 6 28 5 29 4 30 2 31 3 32
REMARK SMILES IDX 86 33 84 34 82 35 1 36 87 37 85 39 83 41 81 43 79 45 77 47
REMARK SMILES IDX 13 49 14 50 20 51 15 52 18 53 16 54 19 55 17 57 27 59 37 61
REMARK SMILES IDX 35 63 42 65 43 66 44 67 74 68 45 69 72 70 58 71 75 72 46 74
REMARK SMILES IDX 47 75 48 76 49 77 56 78 50 79 54 80 52 81 51 82 57 83 55 85
REMARK SMILES IDX 53 87 73 89 59 91 60 92 61 93 62 94 63 95 64 96 65 97 71 98
REMARK SMILES IDX 66 99 69 100 67 101 70 102 68 104
REMARK H PARENT 87 38 85 40 83 42 81 44 79 46 77 48 19 56 17 58 27 60 37 62
REMARK H PARENT 35 64 75 73 57 84 55 86 53 88 73 90 70 103 68 105
ROOT
ATOM      1  C   UNL     1      -1.441  -1.601  -1.271  1.00  0.00     0.177 C 
ENDROOT
BRANCH   1   2
ATOM      2  C   UNL     1      -1.729  -2.806  -0.341  1.00  0.00     0.087 C 
ATOM      3  C   UNL     1       2.636  -0.890   1.934  1.00  0.00     0.214 A 
ATOM      4  C   UNL     1       1.861  -0.557   0.796  1.00  0.00     0.180 A 
ATOM      5  C   UNL     1       2.250  -2.007   2.703  1.00  0.00     0.239 A 
ATOM      6  O   UNL     1       0.812  -1.329   0.479  1.00  0.00    -0.451 OA
ATOM      7  C   UNL     1       1.140  -2.783   2.324  1.00  0.00     0.111 A 
ATOM      8  O   UNL     1       2.882  -2.294   3.705  1.00  0.00    -0.285 OA
ATOM      9  C   UNL     1       0.413  -2.400   1.167  1.00  0.00     0.150 A 
ATOM     10  C   UNL     1       0.739  -3.920   3.068  1.00  0.00     0.134 A 
ATOM     11  C   UNL     1      -0.734  -3.159   0.774  1.00  0.00     0.048 A 
ATOM     12  C   UNL     1      -0.355  -4.672   2.649  1.00  0.00     0.094 A 
ATOM     13  C   UNL     1      -1.077  -4.313   1.522  1.00  0.00     0.138 A 
ATOM     14  O   UNL     1      -2.083  -5.136   1.124  1.00  0.00    -0.456 OA
ATOM     15  C   UNL     1      -2.338  -4.042  -0.990  1.00  0.00     0.009 A 
ATOM     16  C   UNL     1      -2.564  -5.141  -0.142  1.00  0.00     0.135 A 
ATOM     17  C   UNL     1      -2.796  -4.104  -2.324  1.00  0.00     0.058 A 
ATOM     18  C   UNL     1      -3.255  -6.263  -0.605  1.00  0.00     0.097 A 
ATOM     19  C   UNL     1      -3.489  -5.230  -2.787  1.00  0.00     0.157 A 
ATOM     20  C   UNL     1      -3.727  -6.312  -1.922  1.00  0.00     0.161 A 
BRANCH   3  21
ATOM     21  O   UNL     1       3.754  -0.178   2.248  1.00  0.00    -0.454 OA
BRANCH  21  22
ATOM     22  C   UNL     1       5.020  -0.719   2.436  1.00  0.00     0.339 C 
ATOM     23  C   UNL     1       7.216  -0.193   3.212  1.00  0.00     0.180 C 
ATOM     24  O   UNL     1       5.902   0.294   2.895  1.00  0.00    -0.332 OA
ATOM     25  C   UNL     1       7.564  -1.609   2.637  1.00  0.00     0.177 C 
ATOM     26  C   UNL     1       7.022  -1.781   1.199  1.00  0.00     0.180 C 
ATOM     27  C   UNL     1       5.561  -1.264   1.088  1.00  0.00     0.214 C 
BRANCH  23  28
ATOM     28  C   UNL     1       8.265   0.881   2.853  1.00  0.00     0.198 C 
BRANCH  28  29
ATOM     29  O   UNL     1       8.320   1.161   1.467  1.00  0.00    -0.347 OA
BRANCH  29  30
ATOM     30  C   UNL     1       9.339   2.125   1.193  1.00  0.00     0.281 C 
ATOM     31  C   UNL     1       8.587   2.459  -1.017  1.00  0.00     0.150 C 
ATOM     32  O   UNL     1       8.876   3.069   0.236  1.00  0.00    -0.344 OA
ATOM     33  C   UNL     1       9.867   1.843  -1.644  1.00  0.00     0.174 C 
ATOM     34  C   UNL     1      10.474   0.821  -0.663  1.00  0.00     0.179 C 
ATOM     35  C   UNL     1      10.666   1.463   0.723  1.00  0.00     0.202 C 
ATOM     36  C   UNL     1       8.002   3.528  -1.940  1.00  0.00     0.041 C 
BRANCH  33  37
ATOM     37  O   UNL     1       9.596   1.238  -2.885  1.00  0.00    -0.388 OA
ATOM     38  H   UNL     1       8.903   0.543  -2.736  1.00  0.00     0.211 HD
ENDBRANCH  33  37
BRANCH  34  39
ATOM     39  O   UNL     1      11.672   0.267  -1.149  1.00  0.00    -0.387 OA
ATOM     40  H   UNL     1      12.287   1.014  -1.365  1.00  0.00     0.211 HD
ENDBRANCH  34  39
BRANCH  35  41
ATOM     41  O   UNL     1      11.716   2.404   0.701  1.00  0.00    -0.385 OA
ATOM     42  H   UNL     1      11.407   3.222   0.235  1.00  0.00     0.211 HD
ENDBRANCH  35  41
ENDBRANCH  29  30
ENDBRANCH  28  29
ENDBRANCH  23  28
BRANCH  25  43
ATOM     43  O   UNL     1       6.970  -2.579   3.468  1.00  0.00    -0.387 OA
ATOM     44  H   UNL     1       7.348  -3.461   3.213  1.00  0.00     0.211 HD
ENDBRANCH  25  43
BRANCH  26  45
ATOM     45  O   UNL     1       7.835  -1.104   0.287  1.00  0.00    -0.387 OA
ATOM     46  H   UNL     1       7.536  -1.369  -0.622  1.00  0.00     0.211 HD
ENDBRANCH  26  45
BRANCH  27  47
ATOM     47  O   UNL     1       4.729  -2.244   0.524  1.00  0.00    -0.384 OA
ATOM     48  H   UNL     1       4.663  -2.984   1.181  1.00  0.00     0.211 HD
ENDBRANCH  27  47
ENDBRANCH  21  22
ENDBRANCH   3  21
BRANCH   4  49
ATOM     49  C   UNL     1       2.191   0.595  -0.120  1.00  0.00     0.025 A 
ATOM     50  C   UNL     1       1.664   0.592  -1.426  1.00  0.00     0.016 A 
ATOM     51  C   UNL     1       3.010   1.691   0.249  1.00  0.00     0.062 A 
ATOM     52  C   UNL     1       1.951   1.618  -2.330  1.00  0.00     0.051 A 
ATOM     53  C   UNL     1       3.298   2.724  -0.652  1.00  0.00     0.158 A 
ATOM     54  C   UNL     1       2.769   2.686  -1.951  1.00  0.00     0.157 A 
BRANCH  53  55
ATOM     55  O   UNL     1       4.085   3.744  -0.248  1.00  0.00    -0.504 OA
ATOM     56  H   UNL     1       4.321   4.484  -0.824  1.00  0.00     0.293 HD
ENDBRANCH  53  55
BRANCH  54  57
ATOM     57  O   UNL     1       3.050   3.675  -2.826  1.00  0.00    -0.504 OA
ATOM     58  H   UNL     1       2.706   3.677  -3.731  1.00  0.00     0.293 HD
ENDBRANCH  54  57
ENDBRANCH   4  49
BRANCH  10  59
ATOM     59  O   UNL     1       1.412  -4.306   4.175  1.00  0.00    -0.507 OA
ATOM     60  H   UNL     1       1.159  -5.083   4.696  1.00  0.00     0.293 HD
ENDBRANCH  10  59
BRANCH  19  61
ATOM     61  O   UNL     1      -3.936  -5.242  -4.061  1.00  0.00    -0.504 OA
ATOM     62  H   UNL     1      -4.439  -5.980  -4.432  1.00  0.00     0.293 HD
ENDBRANCH  19  61
BRANCH  20  63
ATOM     63  O   UNL     1      -4.407  -7.392  -2.361  1.00  0.00    -0.504 OA
ATOM     64  H   UNL     1      -4.600  -8.148  -1.789  1.00  0.00     0.293 HD
ENDBRANCH  20  63
ENDBRANCH   1   2
BRANCH   1  65
ATOM     65  O   UNL     1      -1.310  -0.393  -0.536  1.00  0.00    -0.349 OA
BRANCH  65  66
ATOM     66  C   UNL     1      -2.581   0.172  -0.252  1.00  0.00     0.282 C 
ATOM     67  O   UNL     1      -2.923   1.075  -1.301  1.00  0.00    -0.340 OA
ATOM     68  C   UNL     1      -2.515   0.891   1.105  1.00  0.00     0.203 C 
ATOM     69  C   UNL     1      -3.941   2.043  -1.001  1.00  0.00     0.191 C 
ATOM     70  C   UNL     1      -3.928   1.405   1.492  1.00  0.00     0.192 C 
ATOM     71  C   UNL     1      -4.810   1.660   0.238  1.00  0.00     0.239 C 
BRANCH  68  72
ATOM     72  O   UNL     1      -1.975   0.088   2.125  1.00  0.00    -0.385 OA
ATOM     73  H   UNL     1      -2.484  -0.764   2.135  1.00  0.00     0.211 HD
ENDBRANCH  68  72
BRANCH  69  74
ATOM     74  C   UNL     1      -3.301   3.456  -0.958  1.00  0.00     0.199 C 
BRANCH  74  75
ATOM     75  O   UNL     1      -4.169   4.496  -1.376  1.00  0.00    -0.347 OA
BRANCH  75  76
ATOM     76  C   UNL     1      -5.163   4.860  -0.430  1.00  0.00     0.281 C 
ATOM     77  O   UNL     1      -6.411   4.319  -0.837  1.00  0.00    -0.344 OA
ATOM     78  C   UNL     1      -5.268   6.414  -0.318  1.00  0.00     0.202 C 
ATOM     79  C   UNL     1      -6.740   4.670  -2.193  1.00  0.00     0.150 C 
ATOM     80  C   UNL     1      -6.287   7.011  -1.340  1.00  0.00     0.179 C 
ATOM     81  C   UNL     1      -6.319   6.131  -2.600  1.00  0.00     0.174 C 
ATOM     82  C   UNL     1      -8.250   4.462  -2.382  1.00  0.00     0.041 C 
BRANCH  78  83
ATOM     83  O   UNL     1      -5.568   6.855   0.986  1.00  0.00    -0.385 OA
ATOM     84  H   UNL     1      -6.241   6.239   1.379  1.00  0.00     0.211 HD
ENDBRANCH  78  83
BRANCH  80  85
ATOM     85  O   UNL     1      -7.588   7.135  -0.809  1.00  0.00    -0.387 OA
ATOM     86  H   UNL     1      -7.785   6.358  -0.229  1.00  0.00     0.211 HD
ENDBRANCH  80  85
BRANCH  81  87
ATOM     87  O   UNL     1      -5.039   6.110  -3.183  1.00  0.00    -0.388 OA
ATOM     88  H   UNL     1      -4.890   7.003  -3.592  1.00  0.00     0.211 HD
ENDBRANCH  81  87
ENDBRANCH  75  76
ENDBRANCH  74  75
ENDBRANCH  69  74
BRANCH  70  89
ATOM     89  O   UNL     1      -3.867   2.513   2.359  1.00  0.00    -0.386 OA
ATOM     90  H   UNL     1      -3.179   3.144   2.033  1.00  0.00     0.211 HD
ENDBRANCH  70  89
BRANCH  71  91
ATOM     91  O   UNL     1      -5.470   0.472  -0.068  1.00  0.00    -0.453 OA
BRANCH  91  92
ATOM     92  C   UNL     1      -6.814   0.327  -0.214  1.00  0.00     0.331 C 
ATOM     93  O   UNL     1      -7.538   1.307  -0.316  1.00  0.00    -0.247 OA
BRANCH  92  94
ATOM     94  C   UNL     1      -7.433  -1.015  -0.252  1.00  0.00     0.094 C 
ATOM     95  C   UNL     1      -6.730  -2.151  -0.074  1.00  0.00     0.016 C 
BRANCH  95  96
ATOM     96  C   UNL     1      -7.331  -3.519  -0.073  1.00  0.00    -0.021 A 
ATOM     97  C   UNL     1      -8.698  -3.761  -0.329  1.00  0.00     0.012 A 
ATOM     98  C   UNL     1      -6.497  -4.618   0.206  1.00  0.00     0.058 A 
ATOM     99  C   UNL     1      -9.207  -5.062  -0.306  1.00  0.00     0.051 A 
ATOM    100  C   UNL     1      -7.007  -5.923   0.234  1.00  0.00     0.157 A 
ATOM    101  C   UNL     1      -8.370  -6.148  -0.024  1.00  0.00     0.157 A 
BRANCH 100 102
ATOM    102  O   UNL     1      -6.174  -6.947   0.515  1.00  0.00    -0.504 OA
ATOM    103  H   UNL     1      -6.469  -7.868   0.550  1.00  0.00     0.293 HD
ENDBRANCH 100 102
BRANCH 101 104
ATOM    104  O   UNL     1      -8.868  -7.402   0.001  1.00  0.00    -0.504 OA
ATOM    105  H   UNL     1      -9.802  -7.590  -0.170  1.00  0.00     0.293 HD
ENDBRANCH 101 104
ENDBRANCH  95  96
ENDBRANCH  92  94
ENDBRANCH  91  92
ENDBRANCH  71  91
ENDBRANCH  65  66
ENDBRANCH   1  65
TORSDOF 34
