REMARK SMILES Nc1oc2cc(OCc3ccccc3)ccc2c(=O)c1-c1ccc(Cl)cc1
REMARK SMILES IDX 2 1 20 2 18 3 19 4 17 5 16 6 15 7 6 8 5 9 4 10 3 11 1 12
REMARK SMILES IDX 21 15 22 16 27 17 23 18 26 19 24 20 25 21 7 22 8 23 9 24
REMARK SMILES IDX 10 25 14 26 11 27 13 28 12 29
REMARK H PARENT 1 13 1 14
ROOT
ATOM      1  C   UNL     1       2.776   0.956   0.823  1.00  0.00     0.202 A 
ATOM      2  C   UNL     1       3.317  -0.037  -0.046  1.00  0.00     0.090 A 
ATOM      3  C   UNL     1       2.400  -0.829  -0.779  1.00  0.00     0.202 A 
ATOM      4  O   UNL     1       2.801  -1.708  -1.525  1.00  0.00    -0.288 OA
ATOM      5  C   UNL     1       1.019  -0.633  -0.622  1.00  0.00     0.066 A 
ATOM      6  C   UNL     1       0.068  -1.406  -1.312  1.00  0.00     0.020 A 
ATOM      7  C   UNL     1      -1.297  -1.175  -1.128  1.00  0.00     0.047 A 
ATOM      8  C   UNL     1      -1.738  -0.162  -0.253  1.00  0.00     0.123 A 
ATOM      9  C   UNL     1      -0.789   0.601   0.438  1.00  0.00     0.094 A 
ATOM     10  C   UNL     1       0.581   0.369   0.263  1.00  0.00     0.144 A 
ATOM     11  O   UNL     1       1.459   1.104   0.929  1.00  0.00    -0.440 OA
ENDROOT
BRANCH   1  12
ATOM     12  N   UNL     1       3.591   1.867   1.544  1.00  0.00    -0.369 N 
ATOM     13  H   UNL     1       4.608   1.930   1.417  1.00  0.00     0.159 HD
ATOM     14  H   UNL     1       3.144   2.572   2.148  1.00  0.00     0.159 HD
ENDBRANCH   1  12
BRANCH   2  15
ATOM     15  C   UNL     1       4.792  -0.270  -0.192  1.00  0.00    -0.009 A 
ATOM     16  C   UNL     1       5.365  -0.486  -1.462  1.00  0.00     0.010 A 
ATOM     17  C   UNL     1       5.634  -0.311   0.938  1.00  0.00     0.010 A 
ATOM     18  C   UNL     1       6.738  -0.713  -1.597  1.00  0.00     0.021 A 
ATOM     19  C   UNL     1       7.005  -0.548   0.799  1.00  0.00     0.021 A 
ATOM     20  C   UNL     1       7.559  -0.745  -0.468  1.00  0.00     0.041 A 
ATOM     21  Cl  UNL     1       9.280  -1.038  -0.639  1.00  0.00    -0.084 Cl
ENDBRANCH   2  15
BRANCH   8  22
ATOM     22  O   UNL     1      -3.054   0.112  -0.056  1.00  0.00    -0.489 OA
BRANCH  22  23
ATOM     23  C   UNL     1      -4.110  -0.552  -0.651  1.00  0.00     0.265 C 
BRANCH  23  24
ATOM     24  C   UNL     1      -5.408   0.068  -0.216  1.00  0.00    -0.011 A 
ATOM     25  C   UNL     1      -6.281   0.634  -1.161  1.00  0.00     0.007 A 
ATOM     26  C   UNL     1      -5.763   0.084   1.143  1.00  0.00     0.007 A 
ATOM     27  C   UNL     1      -7.489   1.207  -0.752  1.00  0.00     0.000 A 
ATOM     28  C   UNL     1      -6.972   0.658   1.549  1.00  0.00     0.000 A 
ATOM     29  C   UNL     1      -7.834   1.220   0.603  1.00  0.00     0.000 A 
ENDBRANCH  23  24
ENDBRANCH  22  23
ENDBRANCH   8  22
TORSDOF 5
