REMARK SMILES CC1(C)CCC[C@@]2(C)C1=CC(=O)c1c(O)c3c(c(O)c12)O[C@@H](CO)C3
REMARK SMILES IDX 1 1 2 2 3 3 4 4 5 5 6 6 7 7 8 8 9 9 10 10 11 11 12 12 13 13
REMARK SMILES IDX 14 14 16 15 17 16 21 17 22 18 25 19 18 20 20 21 19 22 15 24
REMARK SMILES IDX 23 26 24 27
REMARK H PARENT 19 23 15 25 24 28
ROOT
ATOM      1  C   UNL     1      -4.145   1.471   1.050  1.00  0.00     0.016 C 
ATOM      2  C   UNL     1      -3.668   0.563  -0.112  1.00  0.00    -0.013 C 
ATOM      3  C   UNL     1      -4.458   0.921  -1.391  1.00  0.00     0.016 C 
ATOM      4  C   UNL     1      -4.000  -0.899   0.267  1.00  0.00     0.011 C 
ATOM      5  C   UNL     1      -3.073  -1.500   1.340  1.00  0.00     0.002 C 
ATOM      6  C   UNL     1      -1.608  -0.997   1.290  1.00  0.00     0.016 C 
ATOM      7  C   UNL     1      -1.145  -0.416  -0.079  1.00  0.00     0.019 C 
ATOM      8  C   UNL     1      -1.190  -1.431  -1.260  1.00  0.00     0.021 C 
ATOM      9  C   UNL     1      -2.138   0.752  -0.329  1.00  0.00    -0.050 C 
ATOM     10  C   UNL     1      -1.700   1.990  -0.619  1.00  0.00     0.053 C 
ATOM     11  C   UNL     1      -0.287   2.346  -0.689  1.00  0.00     0.190 C 
ATOM     12  O   UNL     1      -0.017   3.490  -1.008  1.00  0.00    -0.289 OA
ATOM     13  C   UNL     1       0.760   1.367  -0.300  1.00  0.00     0.072 A 
ATOM     14  C   UNL     1       2.153   1.718  -0.229  1.00  0.00     0.134 A 
ATOM     15  C   UNL     1       3.063   0.742   0.152  1.00  0.00     0.044 A 
ATOM     16  C   UNL     1       2.688  -0.526   0.433  1.00  0.00     0.168 A 
ATOM     17  O   UNL     1       3.729  -1.300   0.771  1.00  0.00    -0.483 OA
ATOM     18  C   UNL     1       4.895  -0.556   0.830  1.00  0.00     0.203 C 
ATOM     19  C   UNL     1       4.537   0.850   0.280  1.00  0.00     0.091 C 
ATOM     20  C   UNL     1       1.358  -0.929   0.371  1.00  0.00     0.163 A 
ATOM     21  C   UNL     1       0.350   0.025   0.011  1.00  0.00     0.023 A 
ENDROOT
BRANCH  20  22
ATOM     22  O   UNL     1       1.053  -2.213   0.654  1.00  0.00    -0.504 OA
ATOM     23  H   UNL     1       1.720  -2.872   0.895  1.00  0.00     0.293 HD
ENDBRANCH  20  22
BRANCH  14  24
ATOM     24  O   UNL     1       2.662   2.944  -0.498  1.00  0.00    -0.507 OA
ATOM     25  H   UNL     1       2.182   3.733  -0.763  1.00  0.00     0.293 HD
ENDBRANCH  14  24
BRANCH  18  26
ATOM     26  C   UNL     1       6.046  -1.228   0.073  1.00  0.00     0.201 C 
BRANCH  26  27
ATOM     27  O   UNL     1       5.736  -1.388  -1.286  1.00  0.00    -0.393 OA
ATOM     28  H   UNL     1       5.213  -2.228  -1.362  1.00  0.00     0.210 HD
ENDBRANCH  26  27
ENDBRANCH  18  26
TORSDOF 4
