REMARK SMILES CCCCCCC=CCCCCCCCCC=CO[C][C@H](CO[P@](=O)(O)O[C][C]N)OC(=O)CCCCCCCC=CCCCCCC
REMARK SMILES IDX 20 1 19 2 18 3 17 4 16 5 15 6 14 7 13 8 12 9 11 10 10 11
REMARK SMILES IDX 9 12 8 13 7 14 6 15 5 16 4 17 3 18 2 19 1 20 21 21 22 22
REMARK SMILES IDX 23 23 24 24 25 25 26 26 27 28 28 29 29 30 30 31 31 34 32 35
REMARK SMILES IDX 33 36 34 37 35 38 36 39 37 40 38 41 39 42 40 43 41 44 42 45
REMARK SMILES IDX 43 46 44 47 45 48 46 49 47 50 48 51
REMARK H PARENT 26 27 30 32 30 33
ROOT
ATOM      1  C   UNL     1      16.887  -5.250   0.000  1.00  0.00     0.241 C 
ENDROOT
BRANCH   1   2
ATOM      2  O   UNL     1      15.588  -6.000   0.000  1.00  0.00    -0.482 OA
BRANCH   2   3
ATOM      3  C   UNL     1      14.404  -5.246  -0.007  1.00  0.00     0.184 C 
ATOM      4  C   UNL     1      13.168  -5.827  -0.005  1.00  0.00     0.011 C 
BRANCH   4   5
ATOM      5  C   UNL     1      11.691  -5.250   0.000  1.00  0.00     0.030 C 
BRANCH   5   6
ATOM      6  C   UNL     1      10.392  -4.500   0.000  1.00  0.00     0.004 C 
BRANCH   6   7
ATOM      7  C   UNL     1       9.093  -3.750   0.000  1.00  0.00     0.000 C 
BRANCH   7   8
ATOM      8  C   UNL     1       7.794  -3.000   0.000  1.00  0.00     0.000 C 
BRANCH   8   9
ATOM      9  C   UNL     1       6.495  -2.250   0.000  1.00  0.00     0.000 C 
BRANCH   9  10
ATOM     10  C   UNL     1       5.196  -1.500   0.000  1.00  0.00     0.000 C 
BRANCH  10  11
ATOM     11  C   UNL     1       3.539  -1.545   0.034  1.00  0.00     0.004 C 
BRANCH  11  12
ATOM     12  C   UNL     1       2.845  -0.040   0.003  1.00  0.00     0.027 C 
BRANCH  12  13
ATOM     13  C   UNL     1       1.433   0.799  -0.000  1.00  0.00    -0.031 C 
ATOM     14  C   UNL     1       0.023   0.658   0.017  1.00  0.00    -0.031 C 
BRANCH  14  15
ATOM     15  C   UNL     1      -0.980   1.949  -0.001  1.00  0.00     0.027 C 
BRANCH  15  16
ATOM     16  C   UNL     1      -2.622   1.864   0.010  1.00  0.00     0.004 C 
BRANCH  16  17
ATOM     17  C   UNL     1      -3.571   3.231  -0.004  1.00  0.00     0.000 C 
BRANCH  17  18
ATOM     18  C   UNL     1      -5.196   3.000   0.000  1.00  0.00    -0.000 C 
BRANCH  18  19
ATOM     19  C   UNL     1      -6.495   3.750   0.000  1.00  0.00    -0.003 C 
ATOM     20  C   UNL     1      -7.794   4.500   0.000  1.00  0.00     0.004 C 
ENDBRANCH  18  19
ENDBRANCH  17  18
ENDBRANCH  16  17
ENDBRANCH  15  16
ENDBRANCH  14  15
ENDBRANCH  12  13
ENDBRANCH  11  12
ENDBRANCH  10  11
ENDBRANCH   9  10
ENDBRANCH   8   9
ENDBRANCH   7   8
ENDBRANCH   6   7
ENDBRANCH   5   6
ENDBRANCH   4   5
ENDBRANCH   2   3
ENDBRANCH   1   2
BRANCH   1  21
ATOM     21  C   UNL     1      18.186  -4.500   0.000  1.00  0.00     0.255 C 
BRANCH  21  22
ATOM     22  C   UNL     1      19.470  -4.813   0.827  1.00  0.00     0.223 C 
BRANCH  22  23
ATOM     23  O   UNL     1      20.332  -3.669   0.746  1.00  0.00    -0.283 OA
BRANCH  23  24
ATOM     24  P   UNL     1      22.052  -3.989   0.408  1.00  0.00     0.473 P 
ATOM     25  O   UNL     1      22.143  -4.887  -0.856  1.00  0.00    -0.228 OA
BRANCH  24  26
ATOM     26  O   UNL     1      22.848  -4.783   1.732  1.00  0.00    -0.302 OA
ATOM     27  H   UNL     1      22.609  -5.739   1.634  1.00  0.00     0.223 HD
ENDBRANCH  24  26
BRANCH  24  28
ATOM     28  O   UNL     1      22.834  -2.451   0.000  1.00  0.00    -0.272 OA
BRANCH  28  29
ATOM     29  C   UNL     1      24.334  -2.451   0.000  1.00  0.00     0.171 C 
BRANCH  29  30
ATOM     30  C   UNL     1      25.834  -2.451   0.000  1.00  0.00     0.098 C 
BRANCH  30  31
ATOM     31  N   UNL     1      27.334  -2.451   0.000  1.00  0.00    -0.319 NA
ATOM     32  H   UNL     1      27.646  -3.297   0.526  1.00  0.00     0.119 HD
ATOM     33  H   UNL     1      27.646  -1.609   0.533  1.00  0.00     0.119 HD
ENDBRANCH  30  31
ENDBRANCH  29  30
ENDBRANCH  28  29
ENDBRANCH  24  28
ENDBRANCH  23  24
ENDBRANCH  22  23
ENDBRANCH  21  22
BRANCH  21  34
ATOM     34  O   UNL     1      17.658  -3.179   0.364  1.00  0.00    -0.455 OA
BRANCH  34  35
ATOM     35  C   UNL     1      17.444  -1.994  -0.396  1.00  0.00     0.306 C 
ATOM     36  O   UNL     1      18.116  -1.842  -1.404  1.00  0.00    -0.252 OA
BRANCH  35  37
ATOM     37  C   UNL     1      16.278  -0.877  -0.137  1.00  0.00     0.123 C 
BRANCH  37  38
ATOM     38  C   UNL     1      16.686   0.696   0.000  1.00  0.00     0.012 C 
BRANCH  38  39
ATOM     39  C   UNL     1      15.937   1.995  -0.000  1.00  0.00     0.001 C 
BRANCH  39  40
ATOM     40  C   UNL     1      15.187   3.294  -0.000  1.00  0.00     0.000 C 
BRANCH  40  41
ATOM     41  C   UNL     1      14.437   4.593   0.000  1.00  0.00     0.000 C 
BRANCH  41  42
ATOM     42  C   UNL     1      13.687   5.892   0.000  1.00  0.00     0.004 C 
BRANCH  42  43
ATOM     43  C   UNL     1      12.937   7.191   0.000  1.00  0.00     0.027 C 
BRANCH  43  44
ATOM     44  C   UNL     1      11.513   7.699   0.583  1.00  0.00    -0.031 C 
ATOM     45  C   UNL     1      10.936   8.961   0.256  1.00  0.00    -0.031 C 
BRANCH  45  46
ATOM     46  C   UNL     1       9.602   9.722   0.803  1.00  0.00     0.027 C 
BRANCH  46  47
ATOM     47  C   UNL     1       9.187  11.088   0.000  1.00  0.00     0.004 C 
BRANCH  47  48
ATOM     48  C   UNL     1       8.437  12.387   0.000  1.00  0.00     0.000 C 
BRANCH  48  49
ATOM     49  C   UNL     1       7.686  13.687   0.000  1.00  0.00    -0.000 C 
BRANCH  49  50
ATOM     50  C   UNL     1       6.936  14.986   0.000  1.00  0.00    -0.003 C 
ATOM     51  C   UNL     1       6.186  16.285   0.000  1.00  0.00     0.004 C 
ENDBRANCH  49  50
ENDBRANCH  48  49
ENDBRANCH  47  48
ENDBRANCH  46  47
ENDBRANCH  45  46
ENDBRANCH  43  44
ENDBRANCH  42  43
ENDBRANCH  41  42
ENDBRANCH  40  41
ENDBRANCH  39  40
ENDBRANCH  38  39
ENDBRANCH  37  38
ENDBRANCH  35  37
ENDBRANCH  34  35
ENDBRANCH  21  34
ENDBRANCH   1  21
TORSDOF 40
