REMARK SMILES CCOC(=O)C1=C(C)[C@H]2[C@H]3C(=O)N(c4ccccc4[N+](=O)[O-])C(=O)[C@@H]3[C@]1(C)[C@H]1C(=O)N(c3ccccc3[N+](=O)[O-])C(=O)[C@H]21
REMARK SMILES IDX 6 1 7 2 8 3 9 4 10 5 11 6 12 7 13 8 23 9 24 10 25 11 26 12
REMARK SMILES IDX 27 13 28 14 29 15 30 16 31 17 41 18 42 19 43 20 4 21 5 22
REMARK SMILES IDX 3 23 2 24 1 25 14 26 15 27 19 28 16 29 18 30 17 31 20 32
REMARK SMILES IDX 21 33 22 34 32 35 33 36 37 37 34 38 36 39 35 40 38 41 39 42
REMARK SMILES IDX 40 43
REMARK H PARENT
ROOT
ATOM      1  C   UNL     1      -0.041   2.040   0.774  1.00  0.00     0.044 C 
ATOM      2  C   UNL     1      -0.114   2.244  -0.614  1.00  0.00    -0.058 C 
ATOM      3  C   UNL     1      -0.258   3.552  -1.354  1.00  0.00     0.040 C 
ATOM      4  C   UNL     1      -0.163   0.951  -1.473  1.00  0.00     0.042 C 
ATOM      5  C   UNL     1      -1.379   0.239  -0.768  1.00  0.00     0.101 C 
ATOM      6  C   UNL     1      -2.375  -0.785  -1.171  1.00  0.00     0.238 C 
ATOM      7  O   UNL     1      -2.868  -0.896  -2.283  1.00  0.00    -0.274 OA
ATOM      8  N   UNL     1      -2.936  -1.293  -0.039  1.00  0.00    -0.243 N 
ATOM      9  C   UNL     1      -2.205  -0.918   1.049  1.00  0.00     0.238 C 
ATOM     10  O   UNL     1      -2.475  -1.238   2.197  1.00  0.00    -0.274 OA
ATOM     11  C   UNL     1      -0.903  -0.369   0.578  1.00  0.00     0.104 C 
ATOM     12  C   UNL     1       0.241   0.534   1.158  1.00  0.00     0.024 C 
ATOM     13  C   UNL     1       0.525   0.208   2.630  1.00  0.00     0.018 C 
ATOM     14  C   UNL     1       1.533   0.273   0.273  1.00  0.00     0.104 C 
ATOM     15  C   UNL     1       2.674  -0.688   0.311  1.00  0.00     0.238 C 
ATOM     16  O   UNL     1       3.228  -1.085   1.325  1.00  0.00    -0.274 OA
ATOM     17  N   UNL     1       3.225  -0.773  -0.934  1.00  0.00    -0.243 N 
ATOM     18  C   UNL     1       2.409  -0.157  -1.837  1.00  0.00     0.238 C 
ATOM     19  O   UNL     1       2.654  -0.056  -3.029  1.00  0.00    -0.274 OA
ATOM     20  C   UNL     1       1.091   0.074  -1.200  1.00  0.00     0.101 C 
ENDROOT
BRANCH   1  21
ATOM     21  C   UNL     1      -0.158   3.130   1.806  1.00  0.00     0.334 C 
ATOM     22  O   UNL     1       0.033   2.881   2.986  1.00  0.00    -0.247 OA
BRANCH  21  23
ATOM     23  O   UNL     1      -0.573   4.372   1.460  1.00  0.00    -0.463 OA
BRANCH  23  24
ATOM     24  C   UNL     1      -0.862   5.378   2.359  1.00  0.00     0.230 C 
ATOM     25  C   UNL     1      -1.312   6.618   1.604  1.00  0.00     0.049 C 
ENDBRANCH  23  24
ENDBRANCH  21  23
ENDBRANCH   1  21
BRANCH   8  26
ATOM     26  C   UNL     1      -4.153  -2.025   0.003  1.00  0.00     0.129 A 
ATOM     27  C   UNL     1      -5.353  -1.302  -0.075  1.00  0.00     0.034 A 
ATOM     28  C   UNL     1      -4.185  -3.443   0.123  1.00  0.00     0.293 A 
ATOM     29  C   UNL     1      -6.583  -1.956  -0.025  1.00  0.00     0.003 A 
ATOM     30  C   UNL     1      -5.446  -4.079   0.167  1.00  0.00     0.088 A 
ATOM     31  C   UNL     1      -6.629  -3.342   0.096  1.00  0.00     0.007 A 
BRANCH  28  32
ATOM     32  N   UNL     1      -2.992  -4.235   0.177  1.00  0.00     0.065 N 
ATOM     33  O   UNL     1      -3.065  -5.425   0.270  1.00  0.00    -0.258 OA
ATOM     34  O   UNL     1      -1.801  -3.687   0.074  1.00  0.00    -0.258 OA
ENDBRANCH  28  32
ENDBRANCH   8  26
BRANCH  17  35
ATOM     35  C   UNL     1       4.499  -1.340  -1.233  1.00  0.00     0.129 A 
ATOM     36  C   UNL     1       5.634  -0.762  -0.638  1.00  0.00     0.034 A 
ATOM     37  C   UNL     1       4.658  -2.445  -2.124  1.00  0.00     0.293 A 
ATOM     38  C   UNL     1       6.912  -1.234  -0.930  1.00  0.00     0.003 A 
ATOM     39  C   UNL     1       5.965  -2.904  -2.395  1.00  0.00     0.088 A 
ATOM     40  C   UNL     1       7.078  -2.300  -1.808  1.00  0.00     0.007 A 
BRANCH  37  41
ATOM     41  N   UNL     1       3.548  -3.137  -2.713  1.00  0.00     0.065 N 
ATOM     42  O   UNL     1       2.426  -2.896  -2.387  1.00  0.00    -0.258 OA
ATOM     43  O   UNL     1       3.758  -4.151  -3.526  1.00  0.00    -0.258 OA
ENDBRANCH  37  41
ENDBRANCH  17  35
TORSDOF 7
