REMARK SMILES COc1ccc(C[C@@H]2c3c(ccc(OC)c3O)CCN2C)cc1
REMARK SMILES IDX 7 1 6 2 3 3 4 4 23 5 5 6 22 7 2 8 1 9 8 10 9 11 20 12 16 13
REMARK SMILES IDX 10 14 19 15 13 16 11 17 18 18 12 19 21 20 17 21 14 23 15 24
REMARK H PARENT 17 22
ROOT
ATOM      1  C   UNL     1      -0.456   0.428  -0.931  1.00  0.00     0.059 C 
ENDROOT
BRANCH   1   2
ATOM      2  C   UNL     1      -1.949   0.397  -0.739  1.00  0.00    -0.046 A 
ATOM      3  C   UNL     1      -4.737   0.334  -0.347  1.00  0.00     0.118 A 
ATOM      4  C   UNL     1      -4.079  -0.754  -0.932  1.00  0.00     0.046 A 
ATOM      5  C   UNL     1      -3.987   1.462   0.040  1.00  0.00     0.046 A 
ATOM      6  C   UNL     1      -2.696  -0.727  -1.125  1.00  0.00     0.007 A 
ATOM      7  C   UNL     1      -2.605   1.492  -0.159  1.00  0.00     0.007 A 
BRANCH   3   8
ATOM      8  O   UNL     1      -6.082   0.255  -0.172  1.00  0.00    -0.497 OA
ATOM      9  C   UNL     1      -6.871   1.226   0.408  1.00  0.00     0.278 C 
ENDBRANCH   3   8
ENDBRANCH   1   2
BRANCH   1  10
ATOM     10  C   UNL     1       0.275  -0.255   0.253  1.00  0.00     0.095 C 
ATOM     11  C   UNL     1       1.792  -0.138   0.080  1.00  0.00     0.018 A 
ATOM     12  N   UNL     1      -0.188  -1.661   0.412  1.00  0.00    -0.299 NA
ATOM     13  C   UNL     1       2.453   1.116   0.232  1.00  0.00     0.162 A 
ATOM     14  C   UNL     1       2.569  -1.288  -0.213  1.00  0.00    -0.038 A 
ATOM     15  C   UNL     1       0.434  -2.569  -0.562  1.00  0.00     0.089 C 
ATOM     16  C   UNL     1       3.847   1.207   0.083  1.00  0.00     0.160 A 
ATOM     17  C   UNL     1       3.958  -1.180  -0.338  1.00  0.00     0.008 A 
ATOM     18  C   UNL     1       1.950  -2.650  -0.385  1.00  0.00     0.051 C 
ATOM     19  C   UNL     1       4.591   0.050  -0.202  1.00  0.00     0.051 A 
ATOM     20  C   UNL     1      -0.057  -2.143   1.799  1.00  0.00     0.106 C 
BRANCH  13  21
ATOM     21  O   UNL     1       1.790   2.253   0.548  1.00  0.00    -0.504 OA
ATOM     22  H   UNL     1       0.849   2.309   0.752  1.00  0.00     0.293 HD
ENDBRANCH  13  21
BRANCH  16  23
ATOM     23  O   UNL     1       4.433   2.424   0.234  1.00  0.00    -0.493 OA
ATOM     24  C   UNL     1       5.781   2.694   0.116  1.00  0.00     0.278 C 
ENDBRANCH  16  23
ENDBRANCH   1  10
TORSDOF 5
