REMARK SMILES C(=Nn1cnnc1)c1ccco1
REMARK SMILES IDX 1 1 2 2 8 3 9 4 12 5 10 6 11 7 3 8 4 9 7 10 5 11 6 12
REMARK H PARENT
ROOT
ATOM      1  C   UNL     1       0.030  -0.377  -0.225  1.00  0.00     0.181 C 
ATOM      2  N   UNL     1       0.827   0.569   0.135  1.00  0.00    -0.170 NA
ENDROOT
BRANCH   1   3
ATOM      3  C   UNL     1      -1.420  -0.204  -0.083  1.00  0.00     0.146 A 
ATOM      4  C   UNL     1      -2.377  -1.127  -0.448  1.00  0.00     0.052 A 
ATOM      5  O   UNL     1      -1.995   0.866   0.418  1.00  0.00    -0.463 OA
ATOM      6  C   UNL     1      -3.588  -0.552  -0.136  1.00  0.00     0.043 A 
ATOM      7  C   UNL     1      -3.298   0.687   0.400  1.00  0.00     0.196 A 
ENDBRANCH   1   3
BRANCH   2   8
ATOM      8  N   UNL     1       2.216   0.482   0.041  1.00  0.00    -0.208 N 
ATOM      9  C   UNL     1       3.077   1.464   0.343  1.00  0.00     0.249 A 
ATOM     10  C   UNL     1       2.986  -0.550  -0.348  1.00  0.00     0.249 A 
ATOM     11  N   UNL     1       4.344   1.050   0.144  1.00  0.00    -0.137 NA
ATOM     12  N   UNL     1       4.287  -0.205  -0.286  1.00  0.00    -0.137 NA
ENDBRANCH   2   8
TORSDOF 2
