REMARK SMILES Cc1ccc(NC2=N[C@H]3[C@@H](O)[C@H](O)C[C@H](C(=O)N4CCC(C(N)=O)CC4)[C@H]3S2)cc1Cl
REMARK SMILES IDX 6 1 7 2 8 3 9 4 10 5 12 6 14 7 15 8 27 9 28 10 5 12 2 13
REMARK SMILES IDX 3 14 30 15 4 16 29 17 1 18 31 19 11 20 16 22 17 23 18 24
REMARK SMILES IDX 19 25 26 26 20 27 25 28 21 29 22 30 23 31 24 32 13 35
REMARK H PARENT 6 11 11 21 23 33 23 34 13 36
ROOT
ATOM      1  N   UNL     1       4.070  -1.083   1.393  1.00  0.00    -0.335 N 
ATOM      2  C   UNL     1       2.789  -1.032   0.764  1.00  0.00     0.161 C 
ATOM      3  N   UNL     1       2.589  -0.469  -0.371  1.00  0.00    -0.255 NA
ATOM      4  C   UNL     1       1.219  -0.514  -0.802  1.00  0.00     0.154 C 
ATOM      5  C   UNL     1       0.962  -1.780  -1.704  1.00  0.00     0.169 C 
ATOM      6  C   UNL     1      -0.283  -2.615  -1.281  1.00  0.00     0.146 C 
ATOM      7  C   UNL     1      -1.430  -1.668  -0.943  1.00  0.00     0.049 C 
ATOM      8  C   UNL     1      -1.113  -0.781   0.305  1.00  0.00     0.097 C 
ATOM      9  C   UNL     1       0.425  -0.548   0.505  1.00  0.00     0.095 C 
ATOM     10  S   UNL     1       1.326  -1.775   1.516  1.00  0.00    -0.082 SA
ATOM     11  H   UNL     1       4.153  -1.728   2.194  1.00  0.00     0.169 HD
ENDROOT
BRANCH   1  12
ATOM     12  C   UNL     1       5.226  -0.307   1.045  1.00  0.00     0.041 A 
ATOM     13  C   UNL     1       7.562   1.197   0.488  1.00  0.00    -0.032 A 
ATOM     14  C   UNL     1       7.607   0.108   1.371  1.00  0.00     0.007 A 
ATOM     15  C   UNL     1       6.340   1.536  -0.118  1.00  0.00     0.046 A 
ATOM     16  C   UNL     1       6.454  -0.629   1.648  1.00  0.00     0.026 A 
ATOM     17  C   UNL     1       5.187   0.792   0.157  1.00  0.00     0.046 A 
ATOM     18  C   UNL     1       8.806   1.993   0.209  1.00  0.00     0.046 C 
ATOM     19  Cl  UNL     1       6.213   2.903  -1.223  1.00  0.00    -0.084 Cl
ENDBRANCH   1  12
BRANCH   5  20
ATOM     20  O   UNL     1       2.092  -2.610  -1.831  1.00  0.00    -0.388 OA
ATOM     21  H   UNL     1       2.198  -3.113  -0.982  1.00  0.00     0.211 HD
ENDBRANCH   5  20
BRANCH   8  22
ATOM     22  C   UNL     1      -1.870   0.549   0.146  1.00  0.00     0.227 C 
ATOM     23  O   UNL     1      -1.207   1.569  -0.004  1.00  0.00    -0.275 OA
ATOM     24  N   UNL     1      -3.244   0.649   0.125  1.00  0.00    -0.342 N 
ATOM     25  C   UNL     1      -3.843   1.976  -0.089  1.00  0.00     0.120 C 
ATOM     26  C   UNL     1      -4.138  -0.483   0.407  1.00  0.00     0.120 C 
ATOM     27  C   UNL     1      -5.364   1.888  -0.214  1.00  0.00     0.035 C 
ATOM     28  C   UNL     1      -5.125  -0.026   1.484  1.00  0.00     0.035 C 
ATOM     29  C   UNL     1      -6.024   1.145   0.977  1.00  0.00     0.081 C 
BRANCH  29  30
ATOM     30  C   UNL     1      -7.410   0.693   0.539  1.00  0.00     0.220 C 
ATOM     31  N   UNL     1      -8.339   1.605   0.165  1.00  0.00    -0.369 N 
ATOM     32  O   UNL     1      -7.699  -0.495   0.517  1.00  0.00    -0.275 OA
ATOM     33  H   UNL     1      -8.127   2.613   0.177  1.00  0.00     0.159 HD
ATOM     34  H   UNL     1      -9.277   1.302  -0.137  1.00  0.00     0.159 HD
ENDBRANCH  29  30
ENDBRANCH   8  22
BRANCH   6  35
ATOM     35  O   UNL     1      -0.640  -3.518  -2.299  1.00  0.00    -0.390 OA
ATOM     36  H   UNL     1      -0.933  -2.989  -3.086  1.00  0.00     0.211 HD
ENDBRANCH   6  35
TORSDOF 5
