REMARK SMILES CC(=O)NCCC=O
REMARK SMILES IDX 5 1 4 2 2 3 3 4 1 5 6 7 7 8 8 9
REMARK H PARENT 4 6
ROOT
ATOM      1  C   UNL     1      -0.755  -1.173  -0.224  1.00  0.00     0.123 C 
ENDROOT
BRANCH   1   2
ATOM      2  N   UNL     1       0.519  -0.532  -0.506  1.00  0.00    -0.356 N 
ATOM      3  C   UNL     1       1.325  -0.005   0.458  1.00  0.00     0.216 C 
ATOM      4  O   UNL     1       1.006  -0.056   1.637  1.00  0.00    -0.275 OA
ATOM      5  C   UNL     1       2.626   0.633   0.076  1.00  0.00     0.114 C 
ATOM      6  H   UNL     1       0.834  -0.495  -1.488  1.00  0.00     0.163 HD
ENDBRANCH   1   2
BRANCH   1   7
ATOM      7  C   UNL     1      -1.789  -0.191   0.349  1.00  0.00     0.093 C 
BRANCH   7   8
ATOM      8  C   UNL     1      -2.072   0.941  -0.596  1.00  0.00     0.226 C 
ATOM      9  O   UNL     1      -2.886   1.798  -0.293  1.00  0.00    -0.303 OA
ENDBRANCH   7   8
ENDBRANCH   1   7
TORSDOF 3
