REMARK SMILES COCC1=C(C(=O)OC)[C@]2(C(O)=Nc3ccccc32)C(C(=O)OCc2ccccc2)=C(N)O1
REMARK SMILES IDX 4 1 5 2 10 3 11 4 13 5 14 6 15 7 16 8 17 9 18 10 19 11 20 12
REMARK SMILES IDX 31 13 33 14 3 15 2 16 1 17 6 18 7 19 8 20 9 21 32 22 12 25
REMARK SMILES IDX 21 27 22 28 23 29 24 30 25 31 26 32 30 33 27 34 29 35 28 36
REMARK H PARENT 32 23 32 24 12 26
ROOT
ATOM      1  C   UNL     1      -2.200   1.192  -1.280  1.00  0.00     0.144 C 
ATOM      2  C   UNL     1      -2.415   0.223  -0.339  1.00  0.00     0.103 C 
ATOM      3  C   UNL     1      -1.179  -0.408   0.350  1.00  0.00     0.146 C 
ATOM      4  C   UNL     1      -1.312  -0.303   1.863  1.00  0.00     0.207 C 
ATOM      5  N   UNL     1      -1.399  -1.446   2.454  1.00  0.00    -0.216 NA
ATOM      6  C   UNL     1      -1.341  -2.445   1.468  1.00  0.00     0.072 A 
ATOM      7  C   UNL     1      -1.396  -3.822   1.667  1.00  0.00     0.029 A 
ATOM      8  C   UNL     1      -1.319  -4.656   0.538  1.00  0.00     0.002 A 
ATOM      9  C   UNL     1      -1.186  -4.101  -0.753  1.00  0.00     0.001 A 
ATOM     10  C   UNL     1      -1.131  -2.707  -0.925  1.00  0.00     0.008 A 
ATOM     11  C   UNL     1      -1.211  -1.901   0.211  1.00  0.00     0.003 A 
ATOM     12  C   UNL     1       0.196   0.143  -0.103  1.00  0.00     0.122 C 
ATOM     13  C   UNL     1       0.215   1.120  -1.060  1.00  0.00     0.202 C 
ATOM     14  O   UNL     1      -0.942   1.577  -1.583  1.00  0.00    -0.442 OA
ENDROOT
BRANCH   1  15
ATOM     15  C   UNL     1      -3.249   1.949  -2.078  1.00  0.00     0.235 C 
BRANCH  15  16
ATOM     16  O   UNL     1      -3.112   3.343  -1.885  1.00  0.00    -0.377 OA
ATOM     17  C   UNL     1      -3.582   3.704  -0.603  1.00  0.00     0.195 C 
ENDBRANCH  15  16
ENDBRANCH   1  15
BRANCH   2  18
ATOM     18  C   UNL     1      -3.792  -0.271   0.076  1.00  0.00     0.339 C 
ATOM     19  O   UNL     1      -3.885  -1.145   0.927  1.00  0.00    -0.246 OA
BRANCH  18  20
ATOM     20  O   UNL     1      -4.931   0.226  -0.460  1.00  0.00    -0.466 OA
ATOM     21  C   UNL     1      -6.200  -0.194  -0.120  1.00  0.00     0.282 C 
ENDBRANCH  18  20
ENDBRANCH   2  18
BRANCH  13  22
ATOM     22  N   UNL     1       1.393   1.725  -1.588  1.00  0.00    -0.369 N 
ATOM     23  H   UNL     1       2.355   1.512  -1.320  1.00  0.00     0.159 HD
ATOM     24  H   UNL     1       1.287   2.450  -2.312  1.00  0.00     0.159 HD
ENDBRANCH  13  22
BRANCH   4  25
ATOM     25  O   UNL     1      -1.341   0.859   2.547  1.00  0.00    -0.495 OA
ATOM     26  H   UNL     1      -1.278   1.708   2.087  1.00  0.00     0.295 HD
ENDBRANCH   4  25
BRANCH  12  27
ATOM     27  C   UNL     1       1.445  -0.443   0.534  1.00  0.00     0.341 C 
ATOM     28  O   UNL     1       1.338  -1.335   1.364  1.00  0.00    -0.246 OA
BRANCH  27  29
ATOM     29  O   UNL     1       2.687  -0.026   0.198  1.00  0.00    -0.457 OA
BRANCH  29  30
ATOM     30  C   UNL     1       3.855  -0.652   0.583  1.00  0.00     0.269 C 
BRANCH  30  31
ATOM     31  C   UNL     1       5.026   0.102   0.023  1.00  0.00    -0.011 A 
ATOM     32  C   UNL     1       5.292   1.413   0.454  1.00  0.00     0.007 A 
ATOM     33  C   UNL     1       5.864  -0.489  -0.938  1.00  0.00     0.007 A 
ATOM     34  C   UNL     1       6.382   2.119  -0.067  1.00  0.00     0.000 A 
ATOM     35  C   UNL     1       6.947   0.222  -1.462  1.00  0.00     0.000 A 
ATOM     36  C   UNL     1       7.207   1.524  -1.026  1.00  0.00     0.000 A 
ENDBRANCH  30  31
ENDBRANCH  29  30
ENDBRANCH  27  29
ENDBRANCH  12  27
TORSDOF 10
