REMARK SMILES C[C@]12C[C@H](c3ccccc3O1)[C@@H](C(N)=O)C(=O)N2CCCO
REMARK SMILES IDX 19 1 18 2 2 3 3 4 11 5 4 6 10 7 16 8 5 9 12 10 9 11 17 12
REMARK SMILES IDX 6 13 8 14 7 15 1 16 13 17 14 18 15 19 20 22 21 23 22 24
REMARK H PARENT 14 20 14 21 22 25
ROOT
ATOM      1  C   UNL     1       2.445   0.107  -0.213  1.00  0.00     0.126 C 
ENDROOT
BRANCH   1   2
ATOM      2  N   UNL     1       1.014  -0.216  -0.361  1.00  0.00    -0.304 N 
ATOM      3  C   UNL     1       0.133   0.586  -1.250  1.00  0.00     0.182 C 
ATOM      4  C   UNL     1      -1.060  -0.267  -1.755  1.00  0.00     0.082 C 
ATOM      5  O   UNL     1      -0.361   1.673  -0.536  1.00  0.00    -0.468 OA
ATOM      6  C   UNL     1      -1.817  -0.771  -0.530  1.00  0.00     0.051 C 
ATOM      7  C   UNL     1      -1.433   1.591   0.294  1.00  0.00     0.126 A 
ATOM      8  C   UNL     1       0.522  -1.317   0.321  1.00  0.00     0.238 C 
ATOM      9  C   UNL     1      -2.188   0.403   0.354  1.00  0.00    -0.001 A 
ATOM     10  C   UNL     1      -0.931  -1.784   0.226  1.00  0.00     0.175 C 
ATOM     11  C   UNL     1      -1.800   2.689   1.081  1.00  0.00     0.047 A 
ATOM     12  O   UNL     1       1.273  -2.002   1.003  1.00  0.00    -0.274 OA
ATOM     13  C   UNL     1      -3.297   0.325   1.212  1.00  0.00     0.008 A 
ATOM     14  C   UNL     1      -2.911   2.606   1.928  1.00  0.00     0.004 A 
ATOM     15  C   UNL     1      -3.657   1.425   1.993  1.00  0.00     0.001 A 
ATOM     16  C   UNL     1       0.842   1.125  -2.515  1.00  0.00     0.082 C 
BRANCH  10  17
ATOM     17  C   UNL     1      -1.001  -3.157  -0.435  1.00  0.00     0.230 C 
ATOM     18  N   UNL     1      -2.179  -3.823  -0.494  1.00  0.00    -0.369 N 
ATOM     19  O   UNL     1       0.002  -3.678  -0.902  1.00  0.00    -0.274 OA
ATOM     20  H   UNL     1      -3.037  -3.420  -0.091  1.00  0.00     0.159 HD
ATOM     21  H   UNL     1      -2.230  -4.755  -0.931  1.00  0.00     0.159 HD
ENDBRANCH  10  17
ENDBRANCH   1   2
BRANCH   1  22
ATOM     22  C   UNL     1       2.818   0.548   1.214  1.00  0.00     0.050 C 
BRANCH  22  23
ATOM     23  C   UNL     1       4.320   0.855   1.320  1.00  0.00     0.158 C 
BRANCH  23  24
ATOM     24  O   UNL     1       5.089  -0.280   1.020  1.00  0.00    -0.396 OA
ATOM     25  H   UNL     1       5.040  -0.876   1.812  1.00  0.00     0.210 HD
ENDBRANCH  23  24
ENDBRANCH  22  23
ENDBRANCH   1  22
TORSDOF 5
