REMARK SMILES C[C@H]1CCC[C@@]2(CC3=C(CO2)C(=O)[C@](C)(O)C3=O)O1
REMARK SMILES IDX 1 1 2 2 3 3 4 4 5 5 6 6 7 7 8 8 9 9 10 10 11 11 12 12 13 13
REMARK SMILES IDX 14 14 15 15 17 16 18 17 19 18 16 19
REMARK H PARENT 16 20
ROOT
ATOM      1  C   UNL     1      -2.977   1.907  -1.376  1.00  0.00     0.038 C 
ATOM      2  C   UNL     1      -2.687   0.865  -0.299  1.00  0.00     0.118 C 
ATOM      3  C   UNL     1      -3.513  -0.423  -0.550  1.00  0.00     0.032 C 
ATOM      4  C   UNL     1      -3.010  -1.604   0.302  1.00  0.00     0.008 C 
ATOM      5  C   UNL     1      -2.131  -1.087   1.437  1.00  0.00     0.066 C 
ATOM      6  C   UNL     1      -0.929  -0.281   0.829  1.00  0.00     0.173 C 
ATOM      7  C   UNL     1       0.099  -1.301   0.216  1.00  0.00     0.105 C 
ATOM      8  C   UNL     1       1.362  -0.547  -0.024  1.00  0.00     0.013 C 
ATOM      9  C   UNL     1       1.802   0.231   0.932  1.00  0.00     0.032 C 
ATOM     10  C   UNL     1       0.999   0.320   2.197  1.00  0.00     0.203 C 
ATOM     11  O   UNL     1      -0.380   0.538   1.890  1.00  0.00    -0.345 OA
ATOM     12  C   UNL     1       2.999   0.941   0.487  1.00  0.00     0.200 C 
ATOM     13  O   UNL     1       3.621   1.748   1.161  1.00  0.00    -0.291 OA
ATOM     14  C   UNL     1       3.345   0.535  -0.927  1.00  0.00     0.187 C 
ATOM     15  C   UNL     1       4.708  -0.162  -1.024  1.00  0.00     0.060 C 
ATOM     16  C   UNL     1       2.217  -0.426  -1.204  1.00  0.00     0.198 C 
ATOM     17  O   UNL     1       2.035  -1.013  -2.258  1.00  0.00    -0.291 OA
ATOM     18  O   UNL     1      -1.301   0.586  -0.256  1.00  0.00    -0.347 OA
ENDROOT
BRANCH  14  19
ATOM     19  O   UNL     1       3.269   1.627  -1.806  1.00  0.00    -0.374 OA
ATOM     20  H   UNL     1       3.936   2.298  -1.503  1.00  0.00     0.212 HD
ENDBRANCH  14  19
TORSDOF 1
