REMARK SMILES C=C[C@@]1(C)CC[C@@]2(C)[C@@H](CC[C@]3(C)C(=C)CC(CC[C@]4(C)C=C(O)[C@H]5[C@@H](CC[C@H]6C(C)(C)CCC[C@]56C)C4)=C[C@H]23)C1
REMARK SMILES IDX 19 1 18 2 17 3 3 4 5 5 41 6 6 7 9 8 7 9 10 10 40 11 11 12
REMARK SMILES IDX 39 13 12 14 14 15 16 16 15 17 4 18 8 19 13 20 2 21 1 22
REMARK SMILES IDX 20 23 22 24 38 25 23 26 26 27 25 28 27 29 36 30 28 31 35 32
REMARK SMILES IDX 29 33 34 34 30 35 33 36 21 37 37 38 31 39 32 40 24 41
REMARK H PARENT 24 42
ROOT
ATOM      1  C   UNL     1      -0.524   1.084  -0.950  1.00  0.00     0.015 C 
ENDROOT
BRANCH   1   2
ATOM      2  C   UNL     1       0.469   1.616   0.102  1.00  0.00     0.032 C 
BRANCH   2   3
ATOM      3  C   UNL     1       1.880   1.552  -0.436  1.00  0.00    -0.070 C 
ATOM      4  C   UNL     1       8.013  -1.267   1.239  1.00  0.00    -0.015 C 
ATOM      5  C   UNL     1       7.258  -1.930   0.037  1.00  0.00     0.011 C 
ATOM      6  C   UNL     1       7.028  -0.467   2.171  1.00  0.00     0.015 C 
ATOM      7  C   UNL     1       6.275  -0.963  -0.690  1.00  0.00     0.008 C 
ATOM      8  C   UNL     1       6.165   0.498   1.333  1.00  0.00    -0.004 C 
ATOM      9  C   UNL     1       5.267  -0.287   0.301  1.00  0.00    -0.023 C 
ATOM     10  C   UNL     1       5.320   1.526   2.072  1.00  0.00     0.005 C 
ATOM     11  C   UNL     1       4.241   0.715  -0.441  1.00  0.00     0.028 C 
ATOM     12  C   UNL     1       4.911   2.664   1.078  1.00  0.00     0.012 C 
ATOM     13  C   UNL     1       2.795   0.725   0.111  1.00  0.00    -0.023 C 
ATOM     14  C   UNL     1       4.694   2.230  -0.430  1.00  0.00    -0.005 C 
ATOM     15  C   UNL     1       3.586   3.127  -1.044  1.00  0.00    -0.067 C 
ATOM     16  C   UNL     1       2.337   2.444  -1.556  1.00  0.00     0.061 C 
ATOM     17  C   UNL     1       3.683   4.468  -1.085  1.00  0.00     0.009 C 
ATOM     18  C   UNL     1       9.117  -0.329   0.680  1.00  0.00     0.016 C 
ATOM     19  C   UNL     1       4.440  -1.444   0.975  1.00  0.00     0.012 C 
ATOM     20  C   UNL     1       5.953   2.452  -1.319  1.00  0.00     0.017 C 
BRANCH   4  21
ATOM     21  C   UNL     1       8.718  -2.342   2.063  1.00  0.00    -0.028 C 
ATOM     22  C   UNL     1       8.064  -3.332   2.687  1.00  0.00     0.004 C 
ENDBRANCH   4  21
ENDBRANCH   2   3
ENDBRANCH   1   2
BRANCH   1  23
ATOM     23  C   UNL     1      -2.016   0.964  -0.500  1.00  0.00    -0.010 C 
ATOM     24  C   UNL     1      -2.173   0.006   0.672  1.00  0.00     0.021 C 
ATOM     25  C   UNL     1      -2.842   0.432  -1.720  1.00  0.00     0.015 C 
ATOM     26  C   UNL     1      -3.369  -0.539   0.983  1.00  0.00     0.093 C 
ATOM     27  C   UNL     1      -4.130  -0.394  -1.379  1.00  0.00     0.001 C 
ATOM     28  C   UNL     1      -4.585  -0.242   0.097  1.00  0.00     0.064 C 
ATOM     29  C   UNL     1      -5.261  -0.019  -2.351  1.00  0.00     0.005 C 
ATOM     30  C   UNL     1      -5.891  -1.082   0.414  1.00  0.00    -0.019 C 
ATOM     31  C   UNL     1      -6.536  -0.820  -2.088  1.00  0.00     0.005 C 
ATOM     32  C   UNL     1      -6.382  -0.716   1.869  1.00  0.00     0.008 C 
ATOM     33  C   UNL     1      -7.004  -0.662  -0.617  1.00  0.00     0.001 C 
ATOM     34  C   UNL     1      -7.911  -0.523   2.024  1.00  0.00     0.001 C 
ATOM     35  C   UNL     1      -8.444  -1.294  -0.343  1.00  0.00    -0.032 C 
ATOM     36  C   UNL     1      -8.666  -1.547   1.188  1.00  0.00     0.007 C 
ATOM     37  C   UNL     1      -2.519   2.373  -0.078  1.00  0.00     0.016 C 
ATOM     38  C   UNL     1      -5.608  -2.619   0.321  1.00  0.00     0.012 C 
ATOM     39  C   UNL     1      -8.721  -2.622  -1.097  1.00  0.00     0.011 C 
ATOM     40  C   UNL     1      -9.506  -0.277  -0.842  1.00  0.00     0.011 C 
BRANCH  26  41
ATOM     41  O   UNL     1      -3.458  -1.382   2.037  1.00  0.00    -0.512 OA
ATOM     42  H   UNL     1      -2.702  -1.601   2.602  1.00  0.00     0.293 HD
ENDBRANCH  26  41
ENDBRANCH   1  23
TORSDOF 5
