REMARK SMILES C/C(=C\C[C@@]12O[C@]1(C(=O)OC1CCCCC1)C(=O)c1ccccc1C2=O)CCc1ccnc(N)c1
REMARK SMILES IDX 1 1 2 2 3 3 27 4 28 5 29 6 30 7 35 8 31 9 33 10 32 11 34 12
REMARK SMILES IDX 4 15 5 16 6 17 7 18 25 19 17 20 24 21 26 22 18 23 19 24
REMARK SMILES IDX 23 25 20 26 22 27 21 28 8 29 9 30 10 31 11 32 12 33 16 34
REMARK SMILES IDX 13 35 15 36 14 37
REMARK H PARENT 34 13 34 14
ROOT
ATOM      1  C   UNL     1       1.648  -1.006  -1.500  1.00  0.00     0.039 C 
ATOM      2  C   UNL     1       1.913   0.482  -1.625  1.00  0.00    -0.077 C 
ATOM      3  C   UNL     1       0.930   1.425  -1.672  1.00  0.00    -0.024 C 
ENDROOT
BRANCH   2   4
ATOM      4  C   UNL     1       3.363   0.951  -1.731  1.00  0.00     0.035 C 
BRANCH   4   5
ATOM      5  C   UNL     1       4.153   0.854  -0.412  1.00  0.00     0.040 C 
BRANCH   5   6
ATOM      6  C   UNL     1       4.452  -0.550   0.047  1.00  0.00    -0.043 A 
ATOM      7  C   UNL     1       3.918  -1.029   1.253  1.00  0.00     0.024 A 
ATOM      8  C   UNL     1       5.288  -1.387  -0.710  1.00  0.00     0.050 A 
ATOM      9  C   UNL     1       4.210  -2.329   1.668  1.00  0.00     0.114 A 
ATOM     10  C   UNL     1       5.571  -2.681  -0.250  1.00  0.00     0.123 A 
ATOM     11  N   UNL     1       5.023  -3.118   0.917  1.00  0.00    -0.240 NA
BRANCH  10  12
ATOM     12  N   UNL     1       6.430  -3.533  -0.981  1.00  0.00    -0.384 N 
ATOM     13  H   UNL     1       6.642  -4.479  -0.631  1.00  0.00     0.158 HD
ATOM     14  H   UNL     1       6.871  -3.215  -1.857  1.00  0.00     0.158 HD
ENDBRANCH  10  12
ENDBRANCH   5   6
ENDBRANCH   4   5
ENDBRANCH   2   4
BRANCH   3  15
ATOM     15  C   UNL     1      -0.567   1.211  -1.596  1.00  0.00     0.075 C 
BRANCH  15  16
ATOM     16  C   UNL     1      -1.143   1.942  -0.365  1.00  0.00     0.184 C 
ATOM     17  O   UNL     1      -2.426   1.475  -0.054  1.00  0.00    -0.334 OA
ATOM     18  C   UNL     1      -1.413   1.201   0.904  1.00  0.00     0.266 C 
ATOM     19  C   UNL     1      -1.139   3.454  -0.312  1.00  0.00     0.199 C 
ATOM     20  C   UNL     1      -1.726   1.982   2.156  1.00  0.00     0.210 C 
ATOM     21  C   UNL     1      -1.497   4.178   0.941  1.00  0.00     0.032 A 
ATOM     22  O   UNL     1      -0.856   4.085  -1.320  1.00  0.00    -0.291 OA
ATOM     23  O   UNL     1      -1.937   1.380   3.199  1.00  0.00    -0.290 OA
ATOM     24  C   UNL     1      -1.784   3.466   2.130  1.00  0.00     0.032 A 
ATOM     25  C   UNL     1      -1.554   5.585   0.952  1.00  0.00     0.013 A 
ATOM     26  C   UNL     1      -2.122   4.177   3.296  1.00  0.00     0.013 A 
ATOM     27  C   UNL     1      -1.896   6.274   2.117  1.00  0.00     0.001 A 
ATOM     28  C   UNL     1      -2.180   5.572   3.287  1.00  0.00     0.001 A 
BRANCH  18  29
ATOM     29  C   UNL     1      -1.268  -0.294   1.021  1.00  0.00     0.350 C 
ATOM     30  O   UNL     1      -0.398  -0.747   1.752  1.00  0.00    -0.248 OA
BRANCH  29  31
ATOM     31  O   UNL     1      -2.140  -1.116   0.376  1.00  0.00    -0.460 OA
BRANCH  31  32
ATOM     32  C   UNL     1      -2.215  -2.493   0.533  1.00  0.00     0.176 C 
ATOM     33  C   UNL     1      -2.071  -3.215  -0.841  1.00  0.00     0.045 C 
ATOM     34  C   UNL     1      -3.577  -2.818   1.147  1.00  0.00     0.045 C 
ATOM     35  C   UNL     1      -3.428  -3.549  -1.522  1.00  0.00     0.004 C 
ATOM     36  C   UNL     1      -4.725  -2.295   0.241  1.00  0.00     0.004 C 
ATOM     37  C   UNL     1      -4.416  -2.415  -1.275  1.00  0.00     0.000 C 
ENDBRANCH  31  32
ENDBRANCH  29  31
ENDBRANCH  18  29
ENDBRANCH  15  16
ENDBRANCH   3  15
TORSDOF 9
