REMARK SMILES CCCc1c(C)c2ccc(OCC(=O)O[C@@H]3CC[C@@]4(C)C(=CC[C@H]5[C@H]6CC[C@@H]([C@@H](C)CCCC(C)C)C[C@@]6(C)CC[C@H]54)C3)cc2oc1=O
REMARK SMILES IDX 15 1 13 2 14 3 12 4 11 5 10 6 4 7 5 8 47 9 7 10 46 11 48 12
REMARK SMILES IDX 8 13 45 14 9 15 44 16 6 17 3 18 2 19 1 20 16 21 17 22 43 23
REMARK SMILES IDX 18 24 21 25 19 26 22 27 42 28 23 29 41 30 24 31 40 32 25 33
REMARK SMILES IDX 38 34 26 35 37 36 27 37 28 38 20 39 39 40 29 41 30 42 31 43
REMARK SMILES IDX 32 44 33 45 34 46 35 47 36 48
REMARK H PARENT
ROOT
ATOM      1  O   UNL     1       2.895   0.016   2.580  1.00  0.00    -0.460 OA
ENDROOT
BRANCH   1   2
ATOM      2  C   UNL     1       4.198  -0.082   2.921  1.00  0.00     0.344 C 
ATOM      3  O   UNL     1       4.853  -1.071   2.625  1.00  0.00    -0.248 OA
BRANCH   2   4
ATOM      4  C   UNL     1       4.818   1.086   3.644  1.00  0.00     0.351 C 
BRANCH   4   5
ATOM      5  O   UNL     1       6.169   0.899   3.863  1.00  0.00    -0.482 OA
BRANCH   5   6
ATOM      6  C   UNL     1       7.121   0.788   2.899  1.00  0.00     0.123 A 
ATOM      7  C   UNL     1      11.489  -0.086   0.520  1.00  0.00     0.041 A 
ATOM      8  C   UNL     1      10.198   0.263   0.030  1.00  0.00    -0.030 A 
ATOM      9  C   UNL     1      11.653  -0.241   1.916  1.00  0.00     0.339 A 
ATOM     10  C   UNL     1       9.152   0.461   0.963  1.00  0.00     0.021 A 
ATOM     11  O   UNL     1      10.637  -0.051   2.747  1.00  0.00    -0.422 OA
ATOM     12  O   UNL     1      12.737  -0.541   2.387  1.00  0.00    -0.246 OA
ATOM     13  C   UNL     1       7.844   0.818   0.576  1.00  0.00     0.016 A 
ATOM     14  C   UNL     1       9.425   0.286   2.338  1.00  0.00     0.142 A 
ATOM     15  C   UNL     1       6.843   0.982   1.532  1.00  0.00     0.047 A 
ATOM     16  C   UNL     1       8.417   0.454   3.292  1.00  0.00     0.094 A 
ATOM     17  C   UNL     1       9.904   0.395  -1.454  1.00  0.00     0.046 C 
BRANCH   7  18
ATOM     18  C   UNL     1      12.681  -0.290  -0.401  1.00  0.00     0.043 C 
BRANCH  18  19
ATOM     19  C   UNL     1      13.159   1.048  -0.989  1.00  0.00     0.002 C 
ATOM     20  C   UNL     1      14.350   0.841  -1.917  1.00  0.00     0.004 C 
ENDBRANCH  18  19
ENDBRANCH   7  18
ENDBRANCH   5   6
ENDBRANCH   4   5
ENDBRANCH   2   4
ENDBRANCH   1   2
BRANCH   1  21
ATOM     21  C   UNL     1       2.167  -0.852   1.790  1.00  0.00     0.180 C 
ATOM     22  C   UNL     1       1.673  -0.044   0.559  1.00  0.00     0.046 C 
ATOM     23  C   UNL     1       0.982  -1.406   2.648  1.00  0.00     0.076 C 
ATOM     24  C   UNL     1       0.680  -0.821  -0.361  1.00  0.00     0.015 C 
ATOM     25  C   UNL     1      -0.297  -1.264   1.854  1.00  0.00    -0.064 C 
ATOM     26  C   UNL     1      -0.297  -1.773   0.418  1.00  0.00    -0.008 C 
ATOM     27  C   UNL     1      -1.260  -0.450   2.316  1.00  0.00    -0.027 C 
ATOM     28  C   UNL     1      -1.772  -1.887  -0.188  1.00  0.00     0.003 C 
ATOM     29  C   UNL     1      -2.307   0.060   1.386  1.00  0.00     0.031 C 
ATOM     30  C   UNL     1      -1.860  -1.757  -1.713  1.00  0.00     0.005 C 
ATOM     31  C   UNL     1      -2.888  -1.067   0.550  1.00  0.00     0.000 C 
ATOM     32  C   UNL     1      -3.235  -2.247  -2.203  1.00  0.00     0.007 C 
ATOM     33  C   UNL     1      -4.077  -0.573  -0.348  1.00  0.00    -0.001 C 
ATOM     34  C   UNL     1      -4.482  -1.621  -1.461  1.00  0.00    -0.029 C 
ATOM     35  C   UNL     1      -3.936   0.815  -1.010  1.00  0.00     0.005 C 
ATOM     36  C   UNL     1      -5.406  -0.967  -2.561  1.00  0.00     0.011 C 
ATOM     37  C   UNL     1      -5.324   1.300  -1.502  1.00  0.00     0.004 C 
ATOM     38  C   UNL     1      -6.282   0.160  -1.978  1.00  0.00    -0.008 C 
ATOM     39  C   UNL     1       0.298  -3.216   0.386  1.00  0.00     0.016 C 
ATOM     40  C   UNL     1      -5.262  -2.760  -0.751  1.00  0.00     0.011 C 
BRANCH  38  41
ATOM     41  C   UNL     1      -7.346   0.710  -2.984  1.00  0.00    -0.011 C 
ATOM     42  C   UNL     1      -8.351  -0.374  -3.421  1.00  0.00     0.008 C 
BRANCH  41  43
ATOM     43  C   UNL     1      -8.118   1.996  -2.541  1.00  0.00     0.003 C 
BRANCH  43  44
ATOM     44  C   UNL     1      -9.186   1.907  -1.426  1.00  0.00     0.001 C 
BRANCH  44  45
ATOM     45  C   UNL     1      -8.638   1.750   0.002  1.00  0.00     0.003 C 
BRANCH  45  46
ATOM     46  C   UNL     1      -9.736   1.860   1.088  1.00  0.00    -0.017 C 
ATOM     47  C   UNL     1      -9.088   1.835   2.479  1.00  0.00     0.007 C 
ATOM     48  C   UNL     1     -10.774   0.732   0.986  1.00  0.00     0.007 C 
ENDBRANCH  45  46
ENDBRANCH  44  45
ENDBRANCH  43  44
ENDBRANCH  41  43
ENDBRANCH  38  41
ENDBRANCH   1  21
TORSDOF 12
