REMARK SMILES C[C@]12C=CC(=O)C=C1CC[C@H]1[C@H]2[C@@H](O)C[C@@]2(C)[C@H]1CC[C@]2(O)C(=O)COC(=O)CCC(=O)N[C@H](C(=O)O)[C@@H](O)c1cccc([N+](=O)[O-])c1
REMARK SMILES IDX 29 1 27 2 28 3 26 4 25 5 23 6 24 7 21 8 2 9 3 10 8 11 12 12
REMARK SMILES IDX 4 13 7 14 9 15 11 16 13 17 5 18 10 19 18 20 15 21 6 22 16 23
REMARK SMILES IDX 19 24 20 25 1 26 17 27 14 28 22 30 30 32 31 33 32 34 33 35
REMARK SMILES IDX 34 37 35 38 36 39 37 40 38 42 39 43 40 45 41 46 48 47 42 48
REMARK SMILES IDX 44 49 43 50 45 51 46 52 47 53
REMARK H PARENT 14 29 22 31 33 36 37 41 39 44
ROOT
ATOM      1  C   UNL     1      -2.151   2.224   1.222  1.00  0.00     0.132 C 
ENDROOT
BRANCH   1   2
ATOM      2  C   UNL     1      -1.789   0.884   0.633  1.00  0.00     0.306 C 
ATOM      3  O   UNL     1      -2.395   0.448  -0.335  1.00  0.00    -0.252 OA
BRANCH   2   4
ATOM      4  O   UNL     1      -0.793   0.159   1.198  1.00  0.00    -0.458 OA
BRANCH   4   5
ATOM      5  C   UNL     1      -0.614  -1.194   1.006  1.00  0.00     0.311 C 
BRANCH   5   6
ATOM      6  C   UNL     1       0.627  -1.542   0.225  1.00  0.00     0.202 C 
ATOM      7  O   UNL     1       0.825  -2.737   0.060  1.00  0.00    -0.293 OA
BRANCH   6   8
ATOM      8  C   UNL     1       1.639  -0.580  -0.412  1.00  0.00     0.132 C 
ATOM      9  C   UNL     1       7.572  -0.795  -0.083  1.00  0.00     0.013 C 
ATOM     10  C   UNL     1       8.066  -1.383  -1.407  1.00  0.00    -0.012 C 
ATOM     11  C   UNL     1       7.981   0.691   0.083  1.00  0.00    -0.056 C 
ATOM     12  C   UNL     1       5.999  -0.893   0.102  1.00  0.00     0.035 C 
ATOM     13  C   UNL     1       8.872  -0.733  -2.254  1.00  0.00     0.048 C 
ATOM     14  C   UNL     1       8.792   1.331  -0.780  1.00  0.00     0.052 C 
ATOM     15  C   UNL     1       7.270   1.467   1.166  1.00  0.00     0.032 C 
ATOM     16  C   UNL     1       5.334   0.479  -0.257  1.00  0.00    -0.000 C 
ATOM     17  C   UNL     1       5.258  -2.069  -0.595  1.00  0.00     0.119 C 
ATOM     18  C   UNL     1       9.315   0.636  -1.964  1.00  0.00     0.178 C 
ATOM     19  C   UNL     1       5.751   1.533   0.816  1.00  0.00     0.009 C 
ATOM     20  C   UNL     1       3.817   0.346  -0.554  1.00  0.00     0.002 C 
ATOM     21  C   UNL     1       3.740  -2.156  -0.212  1.00  0.00     0.042 C 
ATOM     22  O   UNL     1      10.057   1.214  -2.741  1.00  0.00    -0.290 OA
ATOM     23  C   UNL     1       3.084  -0.781   0.169  1.00  0.00     0.009 C 
ATOM     24  C   UNL     1       2.881   1.566  -0.511  1.00  0.00     0.008 C 
ATOM     25  C   UNL     1       1.476   0.960  -0.247  1.00  0.00     0.044 C 
ATOM     26  C   UNL     1       8.264  -1.625   1.026  1.00  0.00     0.021 C 
ATOM     27  C   UNL     1       3.092  -0.609   1.730  1.00  0.00     0.015 C 
BRANCH  17  28
ATOM     28  O   UNL     1       5.870  -3.313  -0.376  1.00  0.00    -0.393 OA
ATOM     29  H   UNL     1       5.811  -3.500   0.597  1.00  0.00     0.210 HD
ENDBRANCH  17  28
BRANCH   8  30
ATOM     30  O   UNL     1       1.642  -0.857  -1.798  1.00  0.00    -0.381 OA
ATOM     31  H   UNL     1       0.761  -0.578  -2.163  1.00  0.00     0.212 HD
ENDBRANCH   8  30
ENDBRANCH   6   8
ENDBRANCH   5   6
ENDBRANCH   4   5
ENDBRANCH   2   4
ENDBRANCH   1   2
BRANCH   1  32
ATOM     32  C   UNL     1      -3.574   2.195   1.806  1.00  0.00     0.111 C 
BRANCH  32  33
ATOM     33  C   UNL     1      -4.673   2.009   0.783  1.00  0.00     0.221 C 
ATOM     34  O   UNL     1      -4.426   2.071  -0.414  1.00  0.00    -0.275 OA
ATOM     35  N   UNL     1      -5.936   1.741   1.210  1.00  0.00    -0.340 N 
ATOM     36  H   UNL     1      -6.107   1.690   2.227  1.00  0.00     0.164 HD
BRANCH  35  37
ATOM     37  C   UNL     1      -7.046   1.451   0.308  1.00  0.00     0.225 C 
BRANCH  37  38
ATOM     38  C   UNL     1      -8.163   2.462   0.517  1.00  0.00     0.329 C 
ATOM     39  O   UNL     1      -8.069   3.308   1.394  1.00  0.00    -0.250 OA
BRANCH  38  40
ATOM     40  O   UNL     1      -9.252   2.478  -0.281  1.00  0.00    -0.480 OA
ATOM     41  H   UNL     1      -9.351   1.886  -1.038  1.00  0.00     0.296 HD
ENDBRANCH  38  40
ENDBRANCH  37  38
BRANCH  37  42
ATOM     42  C   UNL     1      -7.484  -0.026   0.553  1.00  0.00     0.178 C 
BRANCH  42  43
ATOM     43  O   UNL     1      -7.829  -0.230   1.905  1.00  0.00    -0.386 OA
ATOM     44  H   UNL     1      -8.536   0.424   2.143  1.00  0.00     0.211 HD
ENDBRANCH  42  43
BRANCH  42  45
ATOM     45  C   UNL     1      -8.559  -0.547  -0.392  1.00  0.00    -0.010 A 
ATOM     46  C   UNL     1      -8.324  -0.542  -1.779  1.00  0.00     0.007 A 
ATOM     47  C   UNL     1      -9.783  -1.060   0.085  1.00  0.00     0.092 A 
ATOM     48  C   UNL     1      -9.290  -1.024  -2.664  1.00  0.00     0.007 A 
ATOM     49  C   UNL     1     -10.760  -1.550  -0.799  1.00  0.00     0.269 A 
ATOM     50  C   UNL     1     -10.501  -1.524  -2.182  1.00  0.00     0.085 A 
BRANCH  49  51
ATOM     51  N   UNL     1     -11.992  -2.069  -0.300  1.00  0.00     0.062 N 
ATOM     52  O   UNL     1     -12.823  -2.489  -1.047  1.00  0.00    -0.258 OA
ATOM     53  O   UNL     1     -12.227  -2.104   0.997  1.00  0.00    -0.258 OA
ENDBRANCH  49  51
ENDBRANCH  42  45
ENDBRANCH  37  42
ENDBRANCH  35  37
ENDBRANCH  32  33
ENDBRANCH   1  32
TORSDOF 16
