REMARK SMILES CCC(C)CCCCCCCCC(=O)OC[C@@H](COC(=O)CCCCCCC[C]C(C)C)OC(=O)CCCCCCCCCCCCCCCC(C)C
REMARK SMILES IDX 34 1 35 2 33 3 17 4 16 5 15 6 13 7 14 8 12 9 11 10 10 11
REMARK SMILES IDX 9 12 8 13 7 14 6 15 5 16 3 17 4 18 2 19 1 20 18 21 19 22
REMARK SMILES IDX 20 23 21 24 22 25 23 26 24 27 25 28 26 29 27 30 28 31 29 32
REMARK SMILES IDX 30 33 31 34 32 35 36 36 37 37 38 38 39 39 40 40 41 41 42 42
REMARK SMILES IDX 43 43 44 44 45 45 46 46 47 47 48 48 49 49 50 50 51 51 52 52
REMARK SMILES IDX 53 53
REMARK H PARENT
ROOT
ATOM      1  C   UNL     1      -5.177   0.096  -0.065  1.00  0.00     0.306 C 
ATOM      2  O   UNL     1      -5.400   0.043  -1.266  1.00  0.00    -0.252 OA
ENDROOT
BRANCH   1   3
ATOM      3  O   UNL     1      -4.145  -0.594   0.497  1.00  0.00    -0.455 OA
BRANCH   3   4
ATOM      4  C   UNL     1      -3.414  -1.615  -0.083  1.00  0.00     0.251 C 
BRANCH   4   5
ATOM      5  C   UNL     1      -1.809  -1.416   0.294  1.00  0.00     0.281 C 
BRANCH   5   6
ATOM      6  O   UNL     1      -1.074  -0.226  -0.147  1.00  0.00    -0.462 OA
BRANCH   6   7
ATOM      7  C   UNL     1       0.305   0.090   0.116  1.00  0.00     0.305 C 
ATOM      8  O   UNL     1       0.939  -0.680   0.821  1.00  0.00    -0.252 OA
BRANCH   7   9
ATOM      9  C   UNL     1       1.124   1.390  -0.440  1.00  0.00     0.123 C 
BRANCH   9  10
ATOM     10  C   UNL     1       2.715   1.640  -0.031  1.00  0.00     0.012 C 
BRANCH  10  11
ATOM     11  C   UNL     1       3.645   2.923  -0.563  1.00  0.00     0.001 C 
BRANCH  11  12
ATOM     12  C   UNL     1       5.196   3.000   0.000  1.00  0.00     0.000 C 
BRANCH  12  13
ATOM     13  C   UNL     1       6.495   3.750   0.000  1.00  0.00     0.000 C 
BRANCH  13  14
ATOM     14  C   UNL     1       7.794   4.500   0.000  1.00  0.00     0.000 C 
BRANCH  14  15
ATOM     15  C   UNL     1       9.093   5.250   0.000  1.00  0.00     0.000 C 
BRANCH  15  16
ATOM     16  C   UNL     1      10.392   6.000   0.000  1.00  0.00     0.003 C 
BRANCH  16  17
ATOM     17  C   UNL     1      11.691   6.750   0.000  1.00  0.00    -0.015 C 
ATOM     18  C   UNL     1      10.941   8.049   0.000  1.00  0.00     0.007 C 
BRANCH  17  19
ATOM     19  C   UNL     1      12.441   5.451   0.000  1.00  0.00    -0.000 C 
ATOM     20  C   UNL     1      13.191   4.152   0.000  1.00  0.00     0.004 C 
ENDBRANCH  17  19
ENDBRANCH  16  17
ENDBRANCH  15  16
ENDBRANCH  14  15
ENDBRANCH  13  14
ENDBRANCH  12  13
ENDBRANCH  11  12
ENDBRANCH  10  11
ENDBRANCH   9  10
ENDBRANCH   7   9
ENDBRANCH   6   7
ENDBRANCH   5   6
ENDBRANCH   4   5
BRANCH   4  21
ATOM     21  C   UNL     1      -4.217  -2.998   0.338  1.00  0.00     0.281 C 
BRANCH  21  22
ATOM     22  O   UNL     1      -5.574  -3.040  -0.146  1.00  0.00    -0.462 OA
BRANCH  22  23
ATOM     23  C   UNL     1      -6.845  -3.688  -0.244  1.00  0.00     0.305 C 
ATOM     24  O   UNL     1      -7.560  -3.193  -1.101  1.00  0.00    -0.252 OA
BRANCH  23  25
ATOM     25  C   UNL     1      -7.563  -4.915   0.552  1.00  0.00     0.123 C 
BRANCH  25  26
ATOM     26  C   UNL     1      -9.093  -5.250   0.000  1.00  0.00     0.012 C 
BRANCH  26  27
ATOM     27  C   UNL     1     -10.392  -6.000   0.000  1.00  0.00     0.001 C 
BRANCH  27  28
ATOM     28  C   UNL     1     -11.691  -6.750   0.000  1.00  0.00     0.000 C 
BRANCH  28  29
ATOM     29  C   UNL     1     -13.339  -7.068   0.065  1.00  0.00     0.000 C 
BRANCH  29  30
ATOM     30  C   UNL     1     -13.945  -8.653  -0.064  1.00  0.00     0.001 C 
BRANCH  30  31
ATOM     31  C   UNL     1     -15.588  -9.000   0.000  1.00  0.00     0.008 C 
BRANCH  31  32
ATOM     32  C   UNL     1     -16.887  -9.750   0.000  1.00  0.00    -0.015 C 
BRANCH  32  33
ATOM     33  C   UNL     1     -18.186 -10.500   0.000  1.00  0.00    -0.010 C 
ATOM     34  C   UNL     1     -19.486 -11.250   0.000  1.00  0.00     0.008 C 
ATOM     35  C   UNL     1     -18.936  -9.201   0.000  1.00  0.00     0.008 C 
ENDBRANCH  32  33
ENDBRANCH  31  32
ENDBRANCH  30  31
ENDBRANCH  29  30
ENDBRANCH  28  29
ENDBRANCH  27  28
ENDBRANCH  26  27
ENDBRANCH  25  26
ENDBRANCH  23  25
ENDBRANCH  22  23
ENDBRANCH  21  22
ENDBRANCH   4  21
ENDBRANCH   3   4
ENDBRANCH   1   3
BRANCH   1  36
ATOM     36  C   UNL     1      -6.038   0.914   0.858  1.00  0.00     0.123 C 
BRANCH  36  37
ATOM     37  C   UNL     1      -7.084   1.846   0.194  1.00  0.00     0.012 C 
BRANCH  37  38
ATOM     38  C   UNL     1      -7.756   2.711   1.292  1.00  0.00     0.001 C 
BRANCH  38  39
ATOM     39  C   UNL     1      -8.150   4.134   0.863  1.00  0.00     0.000 C 
BRANCH  39  40
ATOM     40  C   UNL     1      -9.562   4.587   0.338  1.00  0.00     0.000 C 
BRANCH  40  41
ATOM     41  C   UNL     1      -9.348   6.093   0.000  1.00  0.00     0.000 C 
BRANCH  41  42
ATOM     42  C   UNL     1     -10.098   7.392   0.000  1.00  0.00     0.000 C 
BRANCH  42  43
ATOM     43  C   UNL     1     -10.848   8.691   0.000  1.00  0.00     0.000 C 
BRANCH  43  44
ATOM     44  C   UNL     1     -11.313  10.250  -0.430  1.00  0.00     0.000 C 
BRANCH  44  45
ATOM     45  C   UNL     1     -12.749  10.951   0.168  1.00  0.00     0.000 C 
BRANCH  45  46
ATOM     46  C   UNL     1     -13.098  12.588   0.000  1.00  0.00     0.000 C 
BRANCH  46  47
ATOM     47  C   UNL     1     -13.848  13.887   0.000  1.00  0.00     0.000 C 
BRANCH  47  48
ATOM     48  C   UNL     1     -14.598  15.187   0.000  1.00  0.00     0.000 C 
BRANCH  48  49
ATOM     49  C   UNL     1     -15.348  16.486   0.000  1.00  0.00     0.000 C 
BRANCH  49  50
ATOM     50  C   UNL     1     -16.098  17.785   0.000  1.00  0.00     0.003 C 
BRANCH  50  51
ATOM     51  C   UNL     1     -16.848  19.084   0.000  1.00  0.00    -0.017 C 
ATOM     52  C   UNL     1     -17.598  20.383   0.000  1.00  0.00     0.007 C 
ATOM     53  C   UNL     1     -15.549  19.834   0.000  1.00  0.00     0.007 C 
ENDBRANCH  50  51
ENDBRANCH  49  50
ENDBRANCH  48  49
ENDBRANCH  47  48
ENDBRANCH  46  47
ENDBRANCH  45  46
ENDBRANCH  44  45
ENDBRANCH  43  44
ENDBRANCH  42  43
ENDBRANCH  41  42
ENDBRANCH  40  41
ENDBRANCH  39  40
ENDBRANCH  38  39
ENDBRANCH  37  38
ENDBRANCH  36  37
ENDBRANCH   1  36
TORSDOF 43
