REMARK SMILES NC(=O)c1cn([C@@H]2O[C@H](CO)[C@@H](O)[C@H]2O)c2ncnc(N)c12
REMARK SMILES IDX 7 1 8 2 9 3 12 4 14 5 6 6 4 7 5 8 22 9 20 10 16 11 19 12
REMARK SMILES IDX 17 13 18 14 2 15 1 16 3 17 21 20 15 23 10 25 11 26 13 28
REMARK H PARENT 1 18 1 19 21 21 21 22 15 24 11 27 13 29
ROOT
ATOM      1  C   UNL     1      -0.895   0.060  -1.147  1.00  0.00     0.252 C 
ATOM      2  O   UNL     1      -1.729   1.207  -1.065  1.00  0.00    -0.347 OA
ATOM      3  C   UNL     1      -3.076   0.749  -1.056  1.00  0.00     0.178 C 
ATOM      4  C   UNL     1      -3.054  -0.764  -1.375  1.00  0.00     0.179 C 
ATOM      5  C   UNL     1      -1.755  -1.128  -0.707  1.00  0.00     0.195 C 
ENDROOT
BRANCH   1   6
ATOM      6  N   UNL     1       0.302   0.201  -0.308  1.00  0.00    -0.302 N 
ATOM      7  C   UNL     1       1.823   1.014   1.152  1.00  0.00     0.070 A 
ATOM      8  C   UNL     1       0.569   1.197   0.566  1.00  0.00     0.105 A 
ATOM      9  C   UNL     1       2.319  -0.189   0.623  1.00  0.00     0.074 A 
ATOM     10  C   UNL     1       3.467  -0.993   0.813  1.00  0.00     0.137 A 
ATOM     11  C   UNL     1       1.367  -0.620  -0.273  1.00  0.00     0.148 A 
ATOM     12  N   UNL     1       3.600  -2.109   0.038  1.00  0.00    -0.219 NA
ATOM     13  N   UNL     1       1.522  -1.738  -1.021  1.00  0.00    -0.218 NA
ATOM     14  C   UNL     1       2.656  -2.474  -0.877  1.00  0.00     0.226 A 
BRANCH   7  15
ATOM     15  C   UNL     1       2.405   2.014   2.086  1.00  0.00     0.251 C 
ATOM     16  N   UNL     1       3.738   2.232   2.169  1.00  0.00    -0.366 N 
ATOM     17  O   UNL     1       1.651   2.729   2.728  1.00  0.00    -0.269 OA
ATOM     18  H   UNL     1       4.107   2.956   2.803  1.00  0.00     0.159 HD
ATOM     19  H   UNL     1       4.402   1.745   1.553  1.00  0.00     0.159 HD
ENDBRANCH   7  15
BRANCH  10  20
ATOM     20  N   UNL     1       4.436  -0.758   1.816  1.00  0.00    -0.383 N 
ATOM     21  H   UNL     1       5.253  -1.382   1.890  1.00  0.00     0.158 HD
ATOM     22  H   UNL     1       4.268  -0.108   2.591  1.00  0.00     0.158 HD
ENDBRANCH  10  20
ENDBRANCH   1   6
BRANCH   5  23
ATOM     23  O   UNL     1      -1.262  -2.397  -1.058  1.00  0.00    -0.386 OA
ATOM     24  H   UNL     1      -0.989  -2.368  -2.011  1.00  0.00     0.211 HD
ENDBRANCH   5  23
BRANCH   3  25
ATOM     25  C   UNL     1      -3.700   1.074   0.315  1.00  0.00     0.191 C 
BRANCH  25  26
ATOM     26  O   UNL     1      -5.034   0.641   0.369  1.00  0.00    -0.394 OA
ATOM     27  H   UNL     1      -5.565   1.291  -0.162  1.00  0.00     0.210 HD
ENDBRANCH  25  26
ENDBRANCH   3  25
BRANCH   4  28
ATOM     28  O   UNL     1      -2.965  -1.024  -2.764  1.00  0.00    -0.387 OA
ATOM     29  H   UNL     1      -2.762  -0.192  -3.265  1.00  0.00     0.211 HD
ENDBRANCH   4  28
TORSDOF 7
