REMARK SMILES C=C1C[C@@]2(C)CC[C@]34[C@H](C)CCC[C@@]3(C)CC[C@]24[C@@H]1C
REMARK SMILES IDX 1 1 2 2 3 3 4 4 5 5 6 6 7 7 8 8 9 9 10 10 11 11 12 12 13 13
REMARK SMILES IDX 14 14 15 15 16 16 17 17 18 18 19 19 20 20
REMARK H PARENT
ROOT
ATOM      1  C   UNL     1      -4.246  -0.566  -1.040  1.00  0.00     0.008 C 
ATOM      2  C   UNL     1      -3.081  -0.515  -0.377  1.00  0.00    -0.073 C 
ATOM      3  C   UNL     1      -3.002  -0.231   1.081  1.00  0.00     0.038 C 
ATOM      4  C   UNL     1      -1.499   0.017   1.373  1.00  0.00    -0.022 C 
ATOM      5  C   UNL     1      -1.457   1.114   2.489  1.00  0.00     0.012 C 
ATOM      6  C   UNL     1      -0.646  -1.175   1.862  1.00  0.00     0.008 C 
ATOM      7  C   UNL     1       0.794  -0.695   1.563  1.00  0.00     0.009 C 
ATOM      8  C   UNL     1       0.721  -0.133   0.104  1.00  0.00    -0.015 C 
ATOM      9  C   UNL     1       1.391  -1.232  -0.861  1.00  0.00    -0.007 C 
ATOM     10  C   UNL     1       0.907  -2.705  -0.873  1.00  0.00     0.008 C 
ATOM     11  C   UNL     1       2.937  -1.325  -0.603  1.00  0.00     0.004 C 
ATOM     12  C   UNL     1       3.630   0.015  -0.321  1.00  0.00     0.001 C 
ATOM     13  C   UNL     1       2.838   1.129  -0.974  1.00  0.00     0.007 C 
ATOM     14  C   UNL     1       1.460   1.263  -0.239  1.00  0.00    -0.026 C 
ATOM     15  C   UNL     1       1.705   2.197   0.990  1.00  0.00     0.012 C 
ATOM     16  C   UNL     1       0.448   1.935  -1.199  1.00  0.00     0.008 C 
ATOM     17  C   UNL     1      -0.892   1.735  -0.513  1.00  0.00     0.009 C 
ATOM     18  C   UNL     1      -0.829   0.261  -0.037  1.00  0.00    -0.011 C 
ATOM     19  C   UNL     1      -1.712  -0.663  -0.956  1.00  0.00     0.019 C 
ATOM     20  C   UNL     1      -1.617  -0.518  -2.488  1.00  0.00     0.013 C 
ENDROOT
TORSDOF 0
