REMARK SMILES CC(=O)c1c(C)cc2cc3c(c(O)c2c1O)C(=O)[C@](C)(O)C(=O)C3(C)C
REMARK SMILES IDX 4 1 5 2 6 3 7 4 8 5 9 6 10 7 11 8 12 9 14 10 15 11 17 12
REMARK SMILES IDX 18 13 19 14 20 15 22 16 23 17 24 18 25 19 26 20 2 21 3 22
REMARK SMILES IDX 1 23 16 24 13 26 21 28
REMARK H PARENT 16 25 13 27 21 29
ROOT
ATOM      1  C   UNL     1       3.726  -0.138  -0.044  1.00  0.00     0.063 A 
ATOM      2  C   UNL     1       3.346  -1.087  -1.032  1.00  0.00    -0.036 A 
ATOM      3  C   UNL     1       4.298  -1.868  -1.917  1.00  0.00     0.045 C 
ATOM      4  C   UNL     1       1.996  -1.312  -1.285  1.00  0.00     0.013 A 
ATOM      5  C   UNL     1       0.991  -0.635  -0.592  1.00  0.00    -0.010 A 
ATOM      6  C   UNL     1      -0.330  -0.904  -0.942  1.00  0.00     0.014 A 
ATOM      7  C   UNL     1      -1.412  -0.273  -0.318  1.00  0.00    -0.019 A 
ATOM      8  C   UNL     1      -1.151   0.617   0.764  1.00  0.00     0.068 A 
ATOM      9  C   UNL     1       0.213   0.924   1.108  1.00  0.00     0.138 A 
ATOM     10  C   UNL     1       1.307   0.303   0.416  1.00  0.00     0.067 A 
ATOM     11  C   UNL     1       2.707   0.554   0.682  1.00  0.00     0.138 A 
ATOM     12  C   UNL     1      -2.328   1.131   1.573  1.00  0.00     0.205 C 
ATOM     13  O   UNL     1      -2.152   1.598   2.687  1.00  0.00    -0.290 OA
ATOM     14  C   UNL     1      -3.769   0.914   1.151  1.00  0.00     0.184 C 
ATOM     15  C   UNL     1      -4.585   2.217   1.345  1.00  0.00     0.060 C 
ATOM     16  C   UNL     1      -3.774   0.502  -0.298  1.00  0.00     0.182 C 
ATOM     17  O   UNL     1      -4.444   1.140  -1.104  1.00  0.00    -0.295 OA
ATOM     18  C   UNL     1      -2.844  -0.605  -0.783  1.00  0.00     0.053 C 
ATOM     19  C   UNL     1      -2.944  -0.663  -2.338  1.00  0.00     0.025 C 
ATOM     20  C   UNL     1      -3.259  -1.977  -0.223  1.00  0.00     0.025 C 
ENDROOT
BRANCH   1  21
ATOM     21  C   UNL     1       5.188   0.133   0.236  1.00  0.00     0.163 C 
ATOM     22  O   UNL     1       6.001  -0.773   0.159  1.00  0.00    -0.294 OA
ATOM     23  C   UNL     1       5.730   1.506   0.548  1.00  0.00     0.093 C 
ENDBRANCH   1  21
BRANCH  11  24
ATOM     24  O   UNL     1       3.135   1.407   1.637  1.00  0.00    -0.506 OA
ATOM     25  H   UNL     1       2.646   1.958   2.252  1.00  0.00     0.293 HD
ENDBRANCH  11  24
BRANCH   9  26
ATOM     26  O   UNL     1       0.494   1.810   2.084  1.00  0.00    -0.506 OA
ATOM     27  H   UNL     1      -0.107   2.407   2.537  1.00  0.00     0.293 HD
ENDBRANCH   9  26
BRANCH  14  28
ATOM     28  O   UNL     1      -4.349  -0.112   1.921  1.00  0.00    -0.374 OA
ATOM     29  H   UNL     1      -4.332   0.166   2.874  1.00  0.00     0.212 HD
ENDBRANCH  14  28
TORSDOF 4
