REMARK SMILES CC1(C)CC[C@]23CC[C@]4(C)[C@H](CC[C@H]5[C@@]6(C)CC[C@H](O)C(C)(C)[C@@H]6CC[C@]54C)[C@H]2[C@H]1OC3
REMARK SMILES IDX 1 1 2 2 3 3 4 4 5 5 6 6 7 7 8 8 9 9 10 10 11 11 12 12 13 13
REMARK SMILES IDX 14 14 15 15 16 16 17 17 18 18 19 19 21 20 22 21 23 22 24 23
REMARK SMILES IDX 25 24 26 25 27 26 28 27 29 28 30 29 31 30 32 31 20 32
REMARK H PARENT 20 33
ROOT
ATOM      1  C   UNL     1       5.092  -2.199   1.828  1.00  0.00     0.014 C 
ATOM      2  C   UNL     1       5.271  -1.781   0.347  1.00  0.00    -0.009 C 
ATOM      3  C   UNL     1       5.976  -2.950  -0.377  1.00  0.00     0.014 C 
ATOM      4  C   UNL     1       6.157  -0.517   0.234  1.00  0.00     0.010 C 
ATOM      5  C   UNL     1       5.364   0.758   0.575  1.00  0.00     0.010 C 
ATOM      6  C   UNL     1       3.965   0.808  -0.141  1.00  0.00    -0.001 C 
ATOM      7  C   UNL     1       3.317   2.183   0.152  1.00  0.00     0.010 C 
ATOM      8  C   UNL     1       1.852   2.255  -0.317  1.00  0.00     0.008 C 
ATOM      9  C   UNL     1       0.933   1.100   0.242  1.00  0.00    -0.024 C 
ATOM     10  C   UNL     1       0.914   1.282   1.809  1.00  0.00     0.012 C 
ATOM     11  C   UNL     1       1.608  -0.258  -0.108  1.00  0.00     0.002 C 
ATOM     12  C   UNL     1       0.811  -1.444   0.500  1.00  0.00     0.005 C 
ATOM     13  C   UNL     1      -0.720  -1.244   0.565  1.00  0.00     0.005 C 
ATOM     14  C   UNL     1      -1.230  -0.367  -0.596  1.00  0.00     0.002 C 
ATOM     15  C   UNL     1      -2.839  -0.432  -0.814  1.00  0.00    -0.026 C 
ATOM     16  C   UNL     1      -3.159  -0.131  -2.318  1.00  0.00     0.012 C 
ATOM     17  C   UNL     1      -3.393  -1.879  -0.552  1.00  0.00     0.010 C 
ATOM     18  C   UNL     1      -4.933  -1.980  -0.587  1.00  0.00     0.033 C 
ATOM     19  C   UNL     1      -5.545  -1.044   0.473  1.00  0.00     0.120 C 
ATOM     20  C   UNL     1      -5.141   0.458   0.288  1.00  0.00    -0.006 C 
ATOM     21  C   UNL     1      -5.641   1.216   1.552  1.00  0.00     0.014 C 
ATOM     22  C   UNL     1      -5.866   1.111  -0.918  1.00  0.00     0.014 C 
ATOM     23  C   UNL     1      -3.553   0.538   0.209  1.00  0.00     0.003 C 
ATOM     24  C   UNL     1      -3.000   1.981   0.048  1.00  0.00     0.005 C 
ATOM     25  C   UNL     1      -1.516   2.016   0.419  1.00  0.00     0.008 C 
ATOM     26  C   UNL     1      -0.580   1.113  -0.444  1.00  0.00    -0.024 C 
ATOM     27  C   UNL     1      -0.495   1.740  -1.871  1.00  0.00     0.012 C 
ATOM     28  C   UNL     1       3.117  -0.348   0.343  1.00  0.00     0.031 C 
ATOM     29  C   UNL     1       3.896  -1.483  -0.356  1.00  0.00     0.128 C 
ATOM     30  O   UNL     1       4.154  -1.014  -1.677  1.00  0.00    -0.377 OA
ATOM     31  C   UNL     1       4.089   0.412  -1.629  1.00  0.00     0.168 C 
ENDROOT
BRANCH  19  32
ATOM     32  O   UNL     1      -6.942  -1.211   0.552  1.00  0.00    -0.393 OA
ATOM     33  H   UNL     1      -7.310  -1.172  -0.369  1.00  0.00     0.210 HD
ENDBRANCH  19  32
TORSDOF 1
