REMARK SMILES CCCCCC[C@@H]1O[C@]23O[C@H]1CC[C@@H]2[C@H](O)CC[C@@H]3O
REMARK SMILES IDX 5 1 4 2 3 3 2 4 1 5 6 6 7 7 8 8 11 9 9 10 10 11 12 12 14 13
REMARK SMILES IDX 19 14 13 15 15 16 18 17 17 18 20 19 16 21
REMARK H PARENT 20 20 16 22
ROOT
ATOM      1  C   UNL     1       2.231  -0.646   0.239  1.00  0.00     0.003 C 
ENDROOT
BRANCH   1   2
ATOM      2  C   UNL     1       3.432  -0.186  -0.598  1.00  0.00     0.000 C 
BRANCH   2   3
ATOM      3  C   UNL     1       4.743  -0.422   0.171  1.00  0.00    -0.000 C 
BRANCH   3   4
ATOM      4  C   UNL     1       5.999  -0.026  -0.622  1.00  0.00    -0.003 C 
ATOM      5  C   UNL     1       6.078   1.470  -0.927  1.00  0.00     0.004 C 
ENDBRANCH   3   4
ENDBRANCH   2   3
ENDBRANCH   1   2
BRANCH   1   6
ATOM      6  C   UNL     1       0.902  -0.399  -0.496  1.00  0.00     0.035 C 
BRANCH   6   7
ATOM      7  C   UNL     1      -0.327  -0.906   0.300  1.00  0.00     0.151 C 
ATOM      8  O   UNL     1      -1.484  -0.681  -0.446  1.00  0.00    -0.341 OA
ATOM      9  C   UNL     1      -0.603  -0.140   1.569  1.00  0.00     0.151 C 
ATOM     10  C   UNL     1      -2.050   0.515   0.091  1.00  0.00     0.200 C 
ATOM     11  O   UNL     1      -1.134   1.053   1.038  1.00  0.00    -0.341 OA
ATOM     12  C   UNL     1      -1.678  -0.903   2.438  1.00  0.00     0.035 C 
ATOM     13  C   UNL     1      -3.359   0.182   0.837  1.00  0.00     0.080 C 
ATOM     14  C   UNL     1      -2.401   1.482  -1.085  1.00  0.00     0.174 C 
ATOM     15  C   UNL     1      -3.066  -0.258   2.285  1.00  0.00     0.015 C 
ATOM     16  C   UNL     1      -4.286  -0.706  -0.046  1.00  0.00     0.123 C 
ATOM     17  C   UNL     1      -3.801   1.154  -1.729  1.00  0.00     0.040 C 
ATOM     18  C   UNL     1      -4.163  -0.336  -1.565  1.00  0.00     0.035 C 
BRANCH  14  19
ATOM     19  O   UNL     1      -1.371   1.483  -2.042  1.00  0.00    -0.387 OA
ATOM     20  H   UNL     1      -1.458   0.657  -2.584  1.00  0.00     0.211 HD
ENDBRANCH  14  19
BRANCH  16  21
ATOM     21  O   UNL     1      -4.100  -2.086   0.156  1.00  0.00    -0.393 OA
ATOM     22  H   UNL     1      -3.200  -2.332  -0.174  1.00  0.00     0.210 HD
ENDBRANCH  16  21
ENDBRANCH   6   7
ENDBRANCH   1   6
TORSDOF 7
