REMARK SMILES C[C@H]([C@H]1CC[C@H]2[C@@H]3CC[C@H]4C[C@@H](N)CC[C@]4(C)[C@@H]3CC[C@]12C)N(C)C
REMARK SMILES IDX 3 1 4 2 5 3 6 4 7 5 8 6 9 7 10 8 11 9 12 10 14 11 15 12
REMARK SMILES IDX 16 13 17 14 18 15 19 16 20 17 21 18 22 19 2 20 1 21 23 22
REMARK SMILES IDX 24 23 25 24 13 25
REMARK H PARENT 13 26 13 27
ROOT
ATOM      1  C   UNL     1      -2.929  -0.302  -1.085  1.00  0.00     0.012 C 
ATOM      2  C   UNL     1      -2.891   0.813  -2.167  1.00  0.00     0.006 C 
ATOM      3  C   UNL     1      -1.423   1.293  -2.241  1.00  0.00     0.005 C 
ATOM      4  C   UNL     1      -0.681   0.347  -1.309  1.00  0.00    -0.001 C 
ATOM      5  C   UNL     1       0.743   0.765  -0.804  1.00  0.00    -0.004 C 
ATOM      6  C   UNL     1       1.716   0.473  -1.981  1.00  0.00     0.004 C 
ATOM      7  C   UNL     1       3.187   0.631  -1.617  1.00  0.00     0.004 C 
ATOM      8  C   UNL     1       3.524  -0.303  -0.441  1.00  0.00    -0.003 C 
ATOM      9  C   UNL     1       5.046  -0.300  -0.162  1.00  0.00     0.022 C 
ATOM     10  C   UNL     1       5.387  -1.282   0.978  1.00  0.00     0.050 C 
ATOM     11  C   UNL     1       4.610  -0.920   2.256  1.00  0.00     0.019 C 
ATOM     12  C   UNL     1       3.096  -0.915   1.976  1.00  0.00     0.009 C 
ATOM     13  C   UNL     1       2.690   0.068   0.830  1.00  0.00    -0.027 C 
ATOM     14  C   UNL     1       2.981   1.529   1.312  1.00  0.00     0.012 C 
ATOM     15  C   UNL     1       1.139  -0.019   0.522  1.00  0.00    -0.001 C 
ATOM     16  C   UNL     1       0.460  -1.407   0.487  1.00  0.00     0.005 C 
ATOM     17  C   UNL     1      -1.100  -1.239   0.572  1.00  0.00     0.008 C 
ATOM     18  C   UNL     1      -1.679   0.007  -0.201  1.00  0.00    -0.025 C 
ATOM     19  C   UNL     1      -1.948   1.214   0.751  1.00  0.00     0.012 C 
ENDROOT
BRANCH   1  20
ATOM     20  C   UNL     1      -4.346  -0.571  -0.474  1.00  0.00     0.056 C 
ATOM     21  C   UNL     1      -4.318  -1.768   0.502  1.00  0.00     0.025 C 
BRANCH  20  22
ATOM     22  N   UNL     1      -4.961   0.684   0.071  1.00  0.00    -0.306 NA
ATOM     23  C   UNL     1      -5.490   0.622   1.450  1.00  0.00     0.105 C 
ATOM     24  C   UNL     1      -6.035   1.178  -0.814  1.00  0.00     0.105 C 
ENDBRANCH  20  22
ENDBRANCH   1  20
BRANCH  10  25
ATOM     25  N   UNL     1       6.824  -1.290   1.250  1.00  0.00    -0.328 NA
ATOM     26  H   UNL     1       7.146  -0.329   1.511  1.00  0.00     0.119 HD
ATOM     27  H   UNL     1       7.340  -1.591   0.391  1.00  0.00     0.119 HD
ENDBRANCH  10  25
TORSDOF 3
