REMARK SMILES C[C@@H]1C(=O)c2c(O)cc(O)cc2O[C@@H]1c1ccc(O)cc1
REMARK SMILES IDX 1 1 2 2 3 3 4 4 5 5 6 6 8 7 9 8 11 9 12 10 13 11 14 12 15 13
REMARK SMILES IDX 16 14 21 15 17 16 20 17 18 18 19 19 7 21 10 23
REMARK H PARENT 19 20 7 22 10 24
ROOT
ATOM      1  C   UNL     1       0.556  -3.080   0.079  1.00  0.00     0.021 C 
ATOM      2  C   UNL     1      -0.336  -1.903   0.500  1.00  0.00     0.104 C 
ATOM      3  C   UNL     1      -1.154  -1.323  -0.625  1.00  0.00     0.177 C 
ATOM      4  O   UNL     1      -1.169  -1.849  -1.727  1.00  0.00    -0.293 OA
ATOM      5  C   UNL     1      -1.930  -0.091  -0.318  1.00  0.00     0.102 A 
ATOM      6  C   UNL     1      -3.025   0.391  -1.087  1.00  0.00     0.133 A 
ATOM      7  C   UNL     1      -3.679   1.564  -0.691  1.00  0.00     0.093 A 
ATOM      8  C   UNL     1      -3.269   2.269   0.446  1.00  0.00     0.123 A 
ATOM      9  C   UNL     1      -2.187   1.807   1.195  1.00  0.00     0.093 A 
ATOM     10  C   UNL     1      -1.510   0.643   0.822  1.00  0.00     0.138 A 
ATOM     11  O   UNL     1      -0.424   0.258   1.555  1.00  0.00    -0.484 OA
ATOM     12  C   UNL     1       0.441  -0.777   1.213  1.00  0.00     0.214 C 
ENDROOT
BRANCH  12  13
ATOM     13  C   UNL     1       1.636  -0.237   0.435  1.00  0.00    -0.007 A 
ATOM     14  C   UNL     1       2.936  -0.455   0.929  1.00  0.00     0.011 A 
ATOM     15  C   UNL     1       1.485   0.477  -0.771  1.00  0.00     0.011 A 
ATOM     16  C   UNL     1       4.053   0.018   0.235  1.00  0.00     0.046 A 
ATOM     17  C   UNL     1       2.604   0.953  -1.460  1.00  0.00     0.046 A 
ATOM     18  C   UNL     1       3.890   0.724  -0.964  1.00  0.00     0.115 A 
BRANCH  18  19
ATOM     19  O   UNL     1       4.958   1.186  -1.645  1.00  0.00    -0.508 OA
ATOM     20  H   UNL     1       5.864   1.045  -1.336  1.00  0.00     0.293 HD
ENDBRANCH  18  19
ENDBRANCH  12  13
BRANCH   6  21
ATOM     21  O   UNL     1      -3.499  -0.238  -2.186  1.00  0.00    -0.507 OA
ATOM     22  H   UNL     1      -3.172  -1.073  -2.536  1.00  0.00     0.293 HD
ENDBRANCH   6  21
BRANCH   8  23
ATOM     23  O   UNL     1      -3.904   3.397   0.824  1.00  0.00    -0.508 OA
ATOM     24  H   UNL     1      -4.658   3.752   0.332  1.00  0.00     0.293 HD
ENDBRANCH   8  23
TORSDOF 4
