REMARK SMILES CCCCC/C=C/C(=O)CCc1ccc(O)c(OCCc2ccc(O)c([C@@H]3CC(=O)[C@@H]4C=CN=C4CC#Cc4cc5c(cc43)CCN[C@H]5N)c2)c1
REMARK SMILES IDX 12 1 13 2 14 3 15 4 17 5 51 6 11 7 10 8 8 9 9 10 7 11 6 12
REMARK SMILES IDX 5 13 4 14 3 15 2 16 1 17 18 18 19 19 20 20 21 21 22 22 50 23
REMARK SMILES IDX 23 24 26 25 24 26 27 27 28 28 29 29 30 30 31 31 32 32 35 33
REMARK SMILES IDX 33 34 34 35 44 37 43 38 39 39 42 40 38 41 40 42 41 43 45 44
REMARK SMILES IDX 48 45 46 46 47 47 37 49 36 50 49 52 25 55 16 57
REMARK H PARENT 47 48 49 53 49 54 25 56 16 58
REMARK Flexibility Score:  537.900
ROOT
ATOM      1  C   UNL     1       4.127   0.456  -0.327  1.00  0.00    -0.044 A 
ATOM      2  C   UNL     1       5.123  -0.033   0.540  1.00  0.00     0.008 A 
ATOM      3  C   UNL     1       4.783  -0.581   1.778  1.00  0.00     0.050 A 
ATOM      4  C   UNL     1       3.443  -0.640   2.178  1.00  0.00     0.157 A 
ATOM      5  C   UNL     1       2.444  -0.129   1.339  1.00  0.00     0.161 A 
ATOM      6  C   UNL     1       2.790   0.415   0.092  1.00  0.00     0.054 A 
ENDROOT
BRANCH   1   7
ATOM      7  C   UNL     1       4.459   1.039  -1.688  1.00  0.00     0.044 C 
BRANCH   7   8
ATOM      8  C   UNL     1       5.070   0.021  -2.677  1.00  0.00     0.085 C 
BRANCH   8   9
ATOM      9  C   UNL     1       6.418  -0.478  -2.236  1.00  0.00     0.155 C 
ATOM     10  O   UNL     1       6.583  -1.672  -2.031  1.00  0.00    -0.295 OA
BRANCH   9  11
ATOM     11  C   UNL     1       7.513   0.491  -1.997  1.00  0.00     0.043 C 
ATOM     12  C   UNL     1       8.675   0.140  -1.428  1.00  0.00    -0.023 C 
BRANCH  12  13
ATOM     13  C   UNL     1       9.734   1.166  -1.122  1.00  0.00     0.027 C 
BRANCH  13  14
ATOM     14  C   UNL     1      11.071   0.864  -1.812  1.00  0.00     0.004 C 
BRANCH  14  15
ATOM     15  C   UNL     1      11.705  -0.489  -1.425  1.00  0.00     0.000 C 
BRANCH  15  16
ATOM     16  C   UNL     1      11.948  -0.692   0.083  1.00  0.00    -0.003 C 
ATOM     17  C   UNL     1      12.880   0.355   0.692  1.00  0.00     0.004 C 
ENDBRANCH  15  16
ENDBRANCH  14  15
ENDBRANCH  13  14
ENDBRANCH  12  13
ENDBRANCH   9  11
ENDBRANCH   8   9
ENDBRANCH   7   8
ENDBRANCH   1   7
BRANCH   5  18
ATOM     18  O   UNL     1       1.157  -0.193   1.746  1.00  0.00    -0.489 OA
BRANCH  18  19
ATOM     19  C   UNL     1       0.209   0.799   1.585  1.00  0.00     0.234 C 
BRANCH  19  20
ATOM     20  C   UNL     1      -1.171   0.203   1.815  1.00  0.00     0.077 C 
BRANCH  20  21
ATOM     21  C   UNL     1      -1.716  -0.599   0.641  1.00  0.00    -0.044 A 
ATOM     22  C   UNL     1      -0.936  -1.470  -0.135  1.00  0.00     0.007 A 
ATOM     23  C   UNL     1      -3.082  -0.496   0.363  1.00  0.00     0.012 A 
ATOM     24  C   UNL     1      -1.520  -2.202  -1.173  1.00  0.00     0.047 A 
ATOM     25  C   UNL     1      -3.714  -1.273  -0.642  1.00  0.00     0.002 A 
ATOM     26  C   UNL     1      -2.900  -2.121  -1.427  1.00  0.00     0.119 A 
BRANCH  25  27
ATOM     27  C   UNL     1      -5.255  -1.265  -0.813  1.00  0.00     0.062 C 
BRANCH  27  28
ATOM     28  C   UNL     1      -5.645  -0.648  -2.187  1.00  0.00     0.090 C 
BRANCH  28  29
ATOM     29  C   UNL     1      -7.105  -0.863  -2.573  1.00  0.00     0.146 C 
ATOM     30  O   UNL     1      -7.837  -1.533  -1.859  1.00  0.00    -0.299 OA
BRANCH  29  31
ATOM     31  C   UNL     1      -7.697  -0.218  -3.814  1.00  0.00     0.126 C 
ATOM     32  C   UNL     1      -6.949  -0.592  -5.049  1.00  0.00     0.010 C 
ATOM     33  C   UNL     1      -7.507   1.285  -3.830  1.00  0.00     0.044 CG0
ATOM     34  C   UNL     1      -6.441   0.561  -5.598  1.00  0.00     0.108 C 
ATOM     35  N   UNL     1      -6.798   1.679  -4.825  1.00  0.00    -0.264 NA
ATOM     36  G   UNL     1      -8.064   2.240  -2.805  1.00  0.00     0.000 G0
ENDBRANCH  29  31
ENDBRANCH  28  29
ENDBRANCH  27  28
BRANCH  27  37
ATOM     37  C   UNL     1      -5.909  -0.686   0.477  1.00  0.00    -0.024 A 
ATOM     38  C   UNL     1      -5.585  -1.390   1.661  1.00  0.00     0.009 A 
ATOM     39  C   UNL     1      -6.719   0.484   0.612  1.00  0.00     0.029 A 
ATOM     40  C   UNL     1      -5.967  -0.938   2.923  1.00  0.00    -0.040 A 
ATOM     41  C   UNL     1      -7.170   1.268  -0.503  1.00  0.00    -0.066 C 
ATOM     42  C   UNL     1      -7.102   0.930   1.885  1.00  0.00     0.024 A 
ATOM     43  C   UNL     1      -6.698   0.255   3.046  1.00  0.00    -0.012 A 
ATOM     44  C   UNL     1      -5.559  -1.732   4.135  1.00  0.00     0.051 C 
ATOM     45  C   UNL     1      -7.024   0.838   4.416  1.00  0.00     0.150 C 
ATOM     46  C   UNL     1      -6.346  -1.290   5.371  1.00  0.00     0.087 C 
ATOM     47  N   UNL     1      -6.293   0.163   5.512  1.00  0.00    -0.298 NA
ATOM     48  H   UNL     1      -5.286   0.457   5.518  1.00  0.00     0.124 HD
BRANCH  41  49
ATOM     49  C   UNL     1      -7.626   1.790  -1.487  1.00  0.00    -0.092 C 
ATOM     50  C   UNL     1      -8.064   2.240  -2.805  1.00  0.00     0.142 CG0
ATOM     51  G   UNL     1      -7.507   1.285  -3.830  1.00  0.00     0.000 G0
ENDBRANCH  41  49
BRANCH  45  52
ATOM     52  N   UNL     1      -6.699   2.267   4.436  1.00  0.00    -0.312 NA
ATOM     53  H   UNL     1      -5.674   2.406   4.270  1.00  0.00     0.120 HD
ATOM     54  H   UNL     1      -6.941   2.664   5.373  1.00  0.00     0.120 HD
ENDBRANCH  45  52
ENDBRANCH  27  37
ENDBRANCH  25  27
BRANCH  26  55
ATOM     55  O   UNL     1      -3.446  -2.881  -2.399  1.00  0.00    -0.508 OA
ATOM     56  H   UNL     1      -2.914  -3.469  -2.955  1.00  0.00     0.293 HD
ENDBRANCH  26  55
ENDBRANCH  20  21
ENDBRANCH  19  20
ENDBRANCH  18  19
ENDBRANCH   5  18
BRANCH   4  57
ATOM     57  O   UNL     1       3.110  -1.169   3.374  1.00  0.00    -0.504 OA
ATOM     58  H   UNL     1       3.773  -1.520   3.986  1.00  0.00     0.293 HD
ENDBRANCH   4  57
TORSDOF 16
