REMARK SMILES CC(=O)On1c2c(c3cc(O)c(Br)cc31)CCN1OCSC[C@@H](N)[C@@H]21
REMARK SMILES IDX 5 1 6 2 7 3 16 4 17 5 18 6 25 7 8 8 9 9 10 10 12 11 13 12
REMARK SMILES IDX 14 13 15 14 4 15 2 16 3 17 1 18 23 19 24 21 19 24 20 25
REMARK SMILES IDX 21 26 22 27 11 29
REMARK H PARENT 24 22 24 23 11 30
REMARK Flexibility Score:   15.900
ROOT
ATOM      1  N   UNL     1       1.130   0.303  -0.156  1.00  0.00    -0.176 N 
ATOM      2  C   UNL     1      -0.088  -0.249  -0.378  1.00  0.00     0.083 A 
ATOM      3  C   UNL     1       0.034  -1.615  -0.521  1.00  0.00    -0.012 A 
ATOM      4  C   UNL     1      -1.117  -2.510  -0.805  1.00  0.00     0.056 C 
ATOM      5  C   UNL     1      -2.410  -1.784  -0.414  1.00  0.00     0.121 C 
ATOM      6  N   UNL     1      -2.496  -0.427  -0.999  1.00  0.00    -0.177 NA
ATOM      7  C   UNL     1      -1.400   0.495  -0.526  1.00  0.00     0.153 C 
ATOM      8  C   UNL     1       1.378  -1.905  -0.414  1.00  0.00     0.011 A 
ATOM      9  C   UNL     1       2.060  -3.116  -0.508  1.00  0.00     0.058 A 
ATOM     10  C   UNL     1       3.463  -3.098  -0.373  1.00  0.00     0.130 A 
ATOM     11  C   UNL     1       4.139  -1.873  -0.156  1.00  0.00     0.062 A 
ATOM     12  Br  UNL     1       6.045  -1.832   0.012  1.00  0.00    -0.047 Br
ATOM     13  C   UNL     1       3.421  -0.664  -0.068  1.00  0.00     0.050 A 
ATOM     14  C   UNL     1       2.029  -0.712  -0.188  1.00  0.00     0.090 A 
ENDROOT
BRANCH   1  15
ATOM     15  O   UNL     1       1.349   1.617  -0.006  1.00  0.00    -0.337 OA
BRANCH  15  16
ATOM     16  C   UNL     1       2.190   2.166   0.905  1.00  0.00     0.329 C 
ATOM     17  O   UNL     1       2.682   1.490   1.797  1.00  0.00    -0.250 OA
ATOM     18  C   UNL     1       2.440   3.638   0.865  1.00  0.00     0.141 C 
ENDBRANCH  15  16
ENDBRANCH   1  15
BRANCH   7  19
ATOM     19  C   UNL     1      -1.732   1.380   0.725  1.00  0.00     0.086 CG0
ATOM     20  G   UNL     1      -2.540   2.665   0.384  1.00  0.00     0.000 G0
BRANCH  19  21
ATOM     21  N   UNL     1      -2.300   0.620   1.842  1.00  0.00    -0.325 NA
ATOM     22  H   UNL     1      -3.303   0.393   1.665  1.00  0.00     0.119 HD
ATOM     23  H   UNL     1      -2.269   1.208   2.707  1.00  0.00     0.119 HD
ENDBRANCH  19  21
ENDBRANCH   7  19
BRANCH   6  24
ATOM     24  O   UNL     1      -3.740   0.024  -0.666  1.00  0.00    -0.287 OA
BRANCH  24  25
ATOM     25  C   UNL     1      -4.040   1.189  -1.385  1.00  0.00     0.256 C 
BRANCH  25  26
ATOM     26  S   UNL     1      -4.284   2.501  -0.163  1.00  0.00    -0.130 SA
BRANCH  26  27
ATOM     27  C   UNL     1      -2.540   2.665   0.384  1.00  0.00     0.092 CG0
ATOM     28  G   UNL     1      -1.732   1.380   0.725  1.00  0.00     0.000 G0
ENDBRANCH  26  27
ENDBRANCH  25  26
ENDBRANCH  24  25
ENDBRANCH   6  24
BRANCH  10  29
ATOM     29  O   UNL     1       4.169  -4.245  -0.458  1.00  0.00    -0.507 OA
ATOM     30  H   UNL     1       3.743  -5.101  -0.608  1.00  0.00     0.293 HD
ENDBRANCH  10  29
TORSDOF 4
