REMARK SMILES CO[C@H]1C[C@]2(C)C(=CC[C@@H]3[C@@]4(C)CC[C@H](O)C(CO)(CO)[C@@H]4CC[C@]32C)c2c1ccc(C)c2C
REMARK SMILES IDX 3 1 4 2 5 3 6 4 7 5 8 6 9 7 10 8 11 9 12 10 13 11 14 12
REMARK SMILES IDX 15 13 17 14 22 15 23 16 24 17 25 18 26 19 27 20 28 21 29 22
REMARK SMILES IDX 30 23 31 24 32 25 33 26 34 27 2 28 1 29 18 30 19 31 20 33
REMARK SMILES IDX 21 34 16 36
REMARK H PARENT 19 32 21 35 16 37
ROOT
ATOM      1  C   UNL     1       3.430  -0.978   1.851  1.00  0.00     0.149 C 
ATOM      2  C   UNL     1       2.173  -1.698   1.342  1.00  0.00     0.049 C 
ATOM      3  C   UNL     1       1.350  -0.876   0.258  1.00  0.00     0.001 C 
ATOM      4  C   UNL     1       1.172  -1.870  -0.942  1.00  0.00     0.017 C 
ATOM      5  C   UNL     1       2.215   0.263  -0.342  1.00  0.00    -0.037 C 
ATOM      6  C   UNL     1       1.669   1.440  -0.718  1.00  0.00    -0.022 C 
ATOM      7  C   UNL     1       0.205   1.783  -0.647  1.00  0.00     0.032 C 
ATOM      8  C   UNL     1      -0.721   0.589  -0.295  1.00  0.00     0.006 C 
ATOM      9  C   UNL     1      -2.268   0.983  -0.142  1.00  0.00    -0.025 C 
ATOM     10  C   UNL     1      -2.489   2.114   0.914  1.00  0.00     0.012 C 
ATOM     11  C   UNL     1      -2.781   1.524  -1.518  1.00  0.00     0.010 C 
ATOM     12  C   UNL     1      -4.313   1.673  -1.592  1.00  0.00     0.033 C 
ATOM     13  C   UNL     1      -5.002   0.317  -1.333  1.00  0.00     0.125 C 
ATOM     14  C   UNL     1      -4.651  -0.303   0.067  1.00  0.00     0.046 C 
ATOM     15  C   UNL     1      -3.059  -0.355   0.166  1.00  0.00     0.009 C 
ATOM     16  C   UNL     1      -2.484  -1.038   1.438  1.00  0.00     0.005 C 
ATOM     17  C   UNL     1      -1.031  -1.471   1.183  1.00  0.00     0.008 C 
ATOM     18  C   UNL     1      -0.058  -0.301   0.831  1.00  0.00    -0.019 C 
ATOM     19  C   UNL     1       0.208   0.511   2.134  1.00  0.00     0.012 C 
ATOM     20  C   UNL     1       3.699   0.022  -0.446  1.00  0.00    -0.013 A 
ATOM     21  C   UNL     1       4.283  -0.650   0.649  1.00  0.00    -0.011 A 
ATOM     22  C   UNL     1       5.633  -1.000   0.630  1.00  0.00     0.007 A 
ATOM     23  C   UNL     1       6.424  -0.686  -0.466  1.00  0.00     0.004 A 
ATOM     24  C   UNL     1       5.886  -0.021  -1.576  1.00  0.00    -0.048 A 
ATOM     25  C   UNL     1       6.806   0.266  -2.738  1.00  0.00     0.044 C 
ATOM     26  C   UNL     1       4.508   0.348  -1.584  1.00  0.00    -0.040 A 
ATOM     27  C   UNL     1       3.907   1.000  -2.818  1.00  0.00     0.045 C 
ENDROOT
BRANCH   1  28
ATOM     28  O   UNL     1       3.078   0.228   2.506  1.00  0.00    -0.377 OA
ATOM     29  C   UNL     1       3.664   0.298   3.786  1.00  0.00     0.195 C 
ENDBRANCH   1  28
BRANCH  14  30
ATOM     30  C   UNL     1      -5.245  -1.753   0.105  1.00  0.00     0.168 C 
BRANCH  30  31
ATOM     31  O   UNL     1      -4.672  -2.586  -0.873  1.00  0.00    -0.396 OA
ATOM     32  H   UNL     1      -5.302  -2.618  -1.640  1.00  0.00     0.210 HD
ENDBRANCH  30  31
ENDBRANCH  14  30
BRANCH  14  33
ATOM     33  C   UNL     1      -5.372   0.481   1.214  1.00  0.00     0.168 C 
BRANCH  33  34
ATOM     34  O   UNL     1      -5.022  -0.004   2.484  1.00  0.00    -0.396 OA
ATOM     35  H   UNL     1      -5.738  -0.626   2.776  1.00  0.00     0.210 HD
ENDBRANCH  33  34
ENDBRANCH  14  33
BRANCH  13  36
ATOM     36  O   UNL     1      -6.393   0.402  -1.538  1.00  0.00    -0.392 OA
ATOM     37  H   UNL     1      -6.725   1.222  -1.087  1.00  0.00     0.210 HD
ENDBRANCH  13  36
TORSDOF 6
