REMARK SMILES CCCCCCCC#CC#CC=CC(C)=O
REMARK SMILES IDX 6 1 5 2 4 3 3 4 2 5 1 6 7 7 8 8 9 9 10 10 11 11 12 12 13 13
REMARK SMILES IDX 14 14 16 15 15 16
REMARK H PARENT
ROOT
ATOM      1  C   UNL     1      -1.666   0.390   0.556  1.00  0.00     0.013 C 
ENDROOT
BRANCH   1   2
ATOM      2  C   UNL     1      -3.077   0.628  -0.027  1.00  0.00     0.001 C 
BRANCH   2   3
ATOM      3  C   UNL     1      -3.614  -0.561  -0.851  1.00  0.00     0.000 C 
BRANCH   3   4
ATOM      4  C   UNL     1      -4.959  -0.271  -1.538  1.00  0.00    -0.000 C 
BRANCH   4   5
ATOM      5  C   UNL     1      -6.112  -0.009  -0.561  1.00  0.00    -0.003 C 
ATOM      6  C   UNL     1      -7.419   0.213  -1.320  1.00  0.00     0.004 C 
ENDBRANCH   4   5
ENDBRANCH   3   4
ENDBRANCH   2   3
ENDBRANCH   1   2
BRANCH   1   7
ATOM      7  C   UNL     1      -0.619   0.220  -0.552  1.00  0.00     0.090 C 
ATOM      8  C   UNL     1       0.759   0.130  -0.058  1.00  0.00    -0.089 C 
BRANCH   8   9
ATOM      9  C   UNL     1       1.941   0.029   0.160  1.00  0.00    -0.015 C 
ATOM     10  C   UNL     1       3.347   0.029   0.286  1.00  0.00    -0.011 C 
BRANCH  10  11
ATOM     11  C   UNL     1       4.550  -0.032   0.223  1.00  0.00    -0.061 C 
ATOM     12  C   UNL     1       5.970   0.009  -0.022  1.00  0.00     0.065 C 
ATOM     13  C   UNL     1       6.896  -0.167   0.930  1.00  0.00     0.056 C 
BRANCH  13  14
ATOM     14  C   UNL     1       8.345  -0.140   0.591  1.00  0.00     0.153 C 
ATOM     15  O   UNL     1       8.705   0.039  -0.564  1.00  0.00    -0.295 OA
ATOM     16  C   UNL     1       9.394  -0.331   1.642  1.00  0.00     0.093 C 
ENDBRANCH  13  14
ENDBRANCH  10  11
ENDBRANCH   8   9
ENDBRANCH   1   7
TORSDOF 8
