REMARK SMILES C/C1=C/C=C/C=C/C=C/C=C/C[C@@H](O)C[C@@H](O)CC(=O)C[C@H](O)C[C@H](O)C[C@H](O)C[C@@H](O)C[C@H](O)C[C@@H](O)C[C@@H](O)CC[C@H](C)[C@H](C(C)C)OC1=O
REMARK SMILES IDX 1 1 2 2 3 3 4 4 5 5 6 6 7 7 8 8 9 9 10 10 11 11 12 12 13 13
REMARK SMILES IDX 15 14 16 15 18 16 19 17 20 18 21 19 22 20 24 21 25 22 27 23
REMARK SMILES IDX 28 24 30 25 31 26 33 27 34 28 36 29 37 30 39 31 40 32 42 33
REMARK SMILES IDX 43 34 44 35 45 36 46 37 50 38 51 39 52 40 47 41 48 42 49 43
REMARK SMILES IDX 41 44 38 46 14 48 35 50 17 52 32 54 29 56 23 58 26 60
REMARK H PARENT 41 45 38 47 14 49 35 51 17 53 32 55 29 57 23 59 26 61
ROOT
ATOM      1  C   UNL     1      -7.458  -6.376   1.836  1.00  0.00     0.052 C 
ATOM      2  C   UNL     1      -6.418  -5.418   1.270  1.00  0.00     0.034 C 
ATOM      3  C   UNL     1      -5.162  -5.928   1.113  1.00  0.00     0.011 C 
ATOM      4  C   UNL     1      -3.848  -5.453   0.588  1.00  0.00     0.001 C 
ATOM      5  C   UNL     1      -3.511  -4.319  -0.052  1.00  0.00     0.000 C 
ATOM      6  C   UNL     1      -2.130  -4.028  -0.563  1.00  0.00     0.000 C 
ATOM      7  C   UNL     1      -1.069  -4.857  -0.418  1.00  0.00    -0.000 C 
ATOM      8  C   UNL     1       0.301  -4.638  -0.948  1.00  0.00    -0.000 C 
ATOM      9  C   UNL     1       0.710  -3.586  -1.687  1.00  0.00    -0.000 C 
ATOM     10  C   UNL     1       2.085  -3.452  -2.254  1.00  0.00    -0.004 C 
ATOM     11  C   UNL     1       3.095  -4.316  -2.028  1.00  0.00    -0.024 C 
ATOM     12  C   UNL     1       4.439  -4.192  -2.696  1.00  0.00     0.059 C 
ATOM     13  C   UNL     1       5.592  -4.053  -1.683  1.00  0.00     0.120 C 
ATOM     14  C   UNL     1       5.604  -2.658  -1.011  1.00  0.00     0.064 C 
ATOM     15  C   UNL     1       6.702  -2.495   0.069  1.00  0.00     0.124 C 
ATOM     16  C   UNL     1       6.768  -1.026   0.551  1.00  0.00     0.107 C 
ATOM     17  C   UNL     1       7.854  -0.777   1.588  1.00  0.00     0.138 C 
ATOM     18  O   UNL     1       8.397  -1.733   2.123  1.00  0.00    -0.300 OA
ATOM     19  C   UNL     1       8.401   0.602   1.916  1.00  0.00     0.107 C 
ATOM     20  C   UNL     1       7.771   1.805   1.174  1.00  0.00     0.124 C 
ATOM     21  C   UNL     1       6.398   2.231   1.757  1.00  0.00     0.064 C 
ATOM     22  C   UNL     1       5.654   3.231   0.841  1.00  0.00     0.119 C 
ATOM     23  C   UNL     1       4.438   3.864   1.560  1.00  0.00     0.063 C 
ATOM     24  C   UNL     1       3.531   4.683   0.611  1.00  0.00     0.119 C 
ATOM     25  C   UNL     1       2.494   5.511   1.411  1.00  0.00     0.063 C 
ATOM     26  C   UNL     1       1.407   6.189   0.543  1.00  0.00     0.119 C 
ATOM     27  C   UNL     1       0.328   5.174   0.106  1.00  0.00     0.063 C 
ATOM     28  C   UNL     1      -0.775   5.762  -0.805  1.00  0.00     0.119 C 
ATOM     29  C   UNL     1      -2.032   4.862  -0.871  1.00  0.00     0.063 C 
ATOM     30  C   UNL     1      -1.864   3.392  -1.343  1.00  0.00     0.119 C 
ATOM     31  C   UNL     1      -3.244   2.709  -1.237  1.00  0.00     0.063 C 
ATOM     32  C   UNL     1      -3.303   1.198  -1.575  1.00  0.00     0.117 C 
ATOM     33  C   UNL     1      -4.734   0.718  -1.265  1.00  0.00     0.032 C 
ATOM     34  C   UNL     1      -4.980  -0.790  -1.457  1.00  0.00     0.010 C 
ATOM     35  C   UNL     1      -6.420  -1.258  -1.077  1.00  0.00     0.027 C 
ATOM     36  C   UNL     1      -7.502  -0.312  -1.643  1.00  0.00     0.011 C 
ATOM     37  C   UNL     1      -6.715  -1.687   0.415  1.00  0.00     0.182 C 
ATOM     38  O   UNL     1      -6.193  -2.964   0.648  1.00  0.00    -0.458 OA
ATOM     39  C   UNL     1      -6.957  -4.042   0.987  1.00  0.00     0.334 C 
ATOM     40  O   UNL     1      -8.162  -3.883   1.143  1.00  0.00    -0.247 OA
ENDROOT
BRANCH  37  41
ATOM     41  C   UNL     1      -6.395  -0.801   1.663  1.00  0.00     0.024 C 
ATOM     42  C   UNL     1      -7.066   0.583   1.655  1.00  0.00     0.011 C 
ATOM     43  C   UNL     1      -4.903  -0.746   2.034  1.00  0.00     0.011 C 
ENDBRANCH  37  41
BRANCH  32  44
ATOM     44  O   UNL     1      -2.367   0.460  -0.827  1.00  0.00    -0.393 OA
ATOM     45  H   UNL     1      -2.524   0.652   0.134  1.00  0.00     0.210 HD
ENDBRANCH  32  44
BRANCH  30  46
ATOM     46  O   UNL     1      -0.929   2.701  -0.554  1.00  0.00    -0.393 OA
ATOM     47  H   UNL     1      -1.242   2.732   0.388  1.00  0.00     0.210 HD
ENDBRANCH  30  46
BRANCH  13  48
ATOM     48  O   UNL     1       6.812  -4.290  -2.345  1.00  0.00    -0.393 OA
ATOM     49  H   UNL     1       6.912  -3.600  -3.054  1.00  0.00     0.210 HD
ENDBRANCH  13  48
BRANCH  28  50
ATOM     50  O   UNL     1      -1.167   7.037  -0.354  1.00  0.00    -0.393 OA
ATOM     51  H   UNL     1      -1.513   6.941   0.572  1.00  0.00     0.210 HD
ENDBRANCH  28  50
BRANCH  15  52
ATOM     52  O   UNL     1       7.962  -2.884  -0.425  1.00  0.00    -0.393 OA
ATOM     53  H   UNL     1       8.194  -2.281  -1.180  1.00  0.00     0.210 HD
ENDBRANCH  15  52
BRANCH  26  54
ATOM     54  O   UNL     1       1.964   6.899  -0.536  1.00  0.00    -0.393 OA
ATOM     55  H   UNL     1       2.107   6.261  -1.282  1.00  0.00     0.210 HD
ENDBRANCH  26  54
BRANCH  24  56
ATOM     56  O   UNL     1       4.289   5.538  -0.210  1.00  0.00    -0.393 OA
ATOM     57  H   UNL     1       4.753   6.190   0.378  1.00  0.00     0.210 HD
ENDBRANCH  24  56
BRANCH  20  58
ATOM     58  O   UNL     1       8.662   2.894   1.227  1.00  0.00    -0.393 OA
ATOM     59  H   UNL     1       8.806   3.125   2.183  1.00  0.00     0.210 HD
ENDBRANCH  20  58
BRANCH  22  60
ATOM     60  O   UNL     1       6.520   4.242   0.383  1.00  0.00    -0.393 OA
ATOM     61  H   UNL     1       6.822   4.761   1.174  1.00  0.00     0.210 HD
ENDBRANCH  22  60
TORSDOF 10
