REMARK SMILES COc1cc2cc(c1Cl)/N=C(\O)C[C@H](OC(C)=O)[C@@]1(C)O[C@@H]1[C@H](C)[C@@H]1C[C@](O)(N=C(O)O1)[C@@H](OC)/C=C\C=C(\C)C2
REMARK SMILES IDX 14 1 13 2 11 3 10 4 7 5 3 6 4 7 8 8 5 9 6 10 9 11 2 12 1 13
REMARK SMILES IDX 41 14 39 15 38 16 40 17 12 19 15 21 16 22 18 23 17 24 19 25
REMARK SMILES IDX 21 26 22 27 20 28 23 29 24 30 25 31 26 32 32 33 27 34 30 35
REMARK SMILES IDX 29 36 28 37 33 39 34 40 35 41 36 42 37 43 31 45
REMARK H PARENT 12 20 28 38 31 46
REMARK Flexibility Score:   98.900
ROOT
ATOM      1  C   UNL     1      -2.309  -3.457  -0.732  1.00  0.00     0.220 C 
ENDROOT
BRANCH   1   2
ATOM      2  C   UNL     1      -1.001  -4.118  -0.253  1.00  0.00     0.145 C 
BRANCH   2   3
ATOM      3  C   UNL     1       0.258  -3.330  -0.532  1.00  0.00     0.189 C 
ATOM      4  N   UNL     1       1.000  -3.019   0.484  1.00  0.00    -0.216 NA
BRANCH   4   5
ATOM      5  C   UNL     1       2.227  -2.294   0.583  1.00  0.00     0.089 A 
ATOM      6  C   UNL     1       4.296  -1.979   1.848  1.00  0.00     0.139 A 
ATOM      7  C   UNL     1       4.670  -0.950   0.969  1.00  0.00     0.052 A 
ATOM      8  C   UNL     1       3.077  -2.639   1.650  1.00  0.00     0.108 A 
ATOM      9  C   UNL     1       3.829  -0.567  -0.087  1.00  0.00    -0.038 A 
ATOM     10  C   UNL     1       2.604  -1.241  -0.281  1.00  0.00     0.034 A 
ATOM     11  Cl  UNL     1       2.614  -3.931   2.760  1.00  0.00    -0.078 Cl
BRANCH   6  12
ATOM     12  O   UNL     1       5.076  -2.360   2.895  1.00  0.00    -0.495 OA
ATOM     13  C   UNL     1       6.283  -1.798   3.255  1.00  0.00     0.278 C 
ENDBRANCH   6  12
BRANCH   9  14
ATOM     14  C   UNL     1       4.271   0.546  -1.009  1.00  0.00     0.066 C 
BRANCH  14  15
ATOM     15  C   UNL     1       3.503   1.871  -1.050  1.00  0.00    -0.069 C 
ATOM     16  C   UNL     1       2.489   2.305  -0.249  1.00  0.00    -0.001 CG0
ATOM     17  C   UNL     1       3.979   2.806  -2.143  1.00  0.00     0.040 C 
ATOM     18  G   UNL     1       1.897   1.615   0.928  1.00  0.00     0.000 G0
ENDBRANCH  14  15
ENDBRANCH   9  14
ENDBRANCH   4   5
BRANCH   3  19
ATOM     19  O   UNL     1       0.599  -3.067  -1.816  1.00  0.00    -0.496 OA
ATOM     20  H   UNL     1       1.451  -2.716  -2.097  1.00  0.00     0.294 HD
ENDBRANCH   3  19
ENDBRANCH   2   3
ENDBRANCH   1   2
BRANCH   1  21
ATOM     21  O   UNL     1      -2.315  -3.373  -2.118  1.00  0.00    -0.459 OA
BRANCH  21  22
ATOM     22  C   UNL     1      -3.208  -4.003  -2.934  1.00  0.00     0.303 C 
ATOM     23  O   UNL     1      -4.065  -4.750  -2.483  1.00  0.00    -0.253 OA
ATOM     24  C   UNL     1      -3.155  -3.774  -4.409  1.00  0.00     0.139 C 
ENDBRANCH  21  22
ENDBRANCH   1  21
BRANCH   1  25
ATOM     25  C   UNL     1      -2.598  -2.080  -0.063  1.00  0.00     0.130 C 
ATOM     26  O   UNL     1      -1.553  -1.144  -0.245  1.00  0.00    -0.362 OA
ATOM     27  C   UNL     1      -2.737  -0.886  -0.963  1.00  0.00     0.161 C 
ATOM     28  C   UNL     1      -3.024  -2.097   1.413  1.00  0.00     0.049 C 
BRANCH  27  29
ATOM     29  C   UNL     1      -3.502   0.381  -0.518  1.00  0.00     0.059 C 
ATOM     30  C   UNL     1      -4.942   0.231  -1.031  1.00  0.00     0.014 C 
BRANCH  29  31
ATOM     31  C   UNL     1      -2.837   1.656  -1.119  1.00  0.00     0.189 C 
ATOM     32  C   UNL     1      -1.421   1.975  -0.570  1.00  0.00     0.109 C 
ATOM     33  O   UNL     1      -3.671   2.758  -0.952  1.00  0.00    -0.447 OA
ATOM     34  C   UNL     1      -1.511   2.708   0.792  1.00  0.00     0.196 C 
ATOM     35  C   UNL     1      -3.394   3.850  -0.189  1.00  0.00     0.384 C 
ATOM     36  N   UNL     1      -2.380   3.862   0.614  1.00  0.00    -0.179 NA
BRANCH  34  37
ATOM     37  O   UNL     1      -2.060   1.849   1.764  1.00  0.00    -0.366 OA
ATOM     38  H   UNL     1      -2.314   2.401   2.550  1.00  0.00     0.213 HD
ENDBRANCH  34  37
BRANCH  34  39
ATOM     39  C   UNL     1      -0.110   3.189   1.249  1.00  0.00     0.195 C 
BRANCH  39  40
ATOM     40  O   UNL     1      -0.248   3.965   2.430  1.00  0.00    -0.372 OA
ATOM     41  C   UNL     1       0.479   5.169   2.333  1.00  0.00     0.196 C 
ENDBRANCH  39  40
BRANCH  39  42
ATOM     42  C   UNL     1       0.779   2.001   1.572  1.00  0.00     0.009 C 
ATOM     43  C   UNL     1       1.897   1.615   0.928  1.00  0.00    -0.002 CG0
ATOM     44  G   UNL     1       2.489   2.305  -0.249  1.00  0.00     0.000 G0
ENDBRANCH  39  42
ENDBRANCH  34  39
BRANCH  35  45
ATOM     45  O   UNL     1      -4.188   4.936  -0.283  1.00  0.00    -0.466 OA
ATOM     46  H   UNL     1      -4.017   5.736   0.235  1.00  0.00     0.298 HD
ENDBRANCH  35  45
ENDBRANCH  29  31
ENDBRANCH  27  29
ENDBRANCH   1  25
TORSDOF 7
