REMARK SMILES CC[C@@H](/C=C/[C@@H](C)[C@H]1CC[C@@H]2C3=CC[C@@H]4C[C@@H](O[C@@H]5O[C@@H](CO)[C@@H](O)[C@@H](O)[C@H]5O)CC[C@]4(C)[C@H]3CC[C@@]21C)C(C)C
REMARK SMILES IDX 8 1 9 2 10 3 11 4 12 5 13 6 14 7 15 8 16 9 17 10 30 11 31 12
REMARK SMILES IDX 32 13 33 14 34 15 35 16 36 17 37 18 38 19 6 20 7 21 5 22
REMARK SMILES IDX 4 23 3 24 2 25 1 26 39 27 40 28 41 29 18 30 19 31 20 32
REMARK SMILES IDX 28 33 21 34 26 35 24 36 29 37 22 39 23 40 27 42 25 44
REMARK H PARENT 29 38 23 41 27 43 25 45
ROOT
ATOM      1  C   UNL     1       3.626   0.341   0.160  1.00  0.00     0.002 C 
ATOM      2  C   UNL     1       3.725  -0.158  -1.283  1.00  0.00     0.005 C 
ATOM      3  C   UNL     1       2.337   0.176  -1.807  1.00  0.00     0.009 C 
ATOM      4  C   UNL     1       1.445  -0.455  -0.740  1.00  0.00     0.021 C 
ATOM      5  C   UNL     1      -0.012  -0.017  -0.839  1.00  0.00    -0.067 C 
ATOM      6  C   UNL     1      -0.688  -0.213  -1.992  1.00  0.00    -0.027 C 
ATOM      7  C   UNL     1      -2.067   0.365  -2.132  1.00  0.00     0.031 C 
ATOM      8  C   UNL     1      -2.996   0.071  -0.922  1.00  0.00     0.002 C 
ATOM      9  C   UNL     1      -4.070   1.180  -0.878  1.00  0.00     0.036 C 
ATOM     10  C   UNL     1      -5.080   1.043   0.287  1.00  0.00     0.122 C 
ATOM     11  C   UNL     1      -4.483   0.350   1.527  1.00  0.00     0.033 C 
ATOM     12  C   UNL     1      -2.987   0.649   1.633  1.00  0.00     0.010 C 
ATOM     13  C   UNL     1      -2.191  -0.023   0.458  1.00  0.00    -0.023 C 
ATOM     14  C   UNL     1      -2.013  -1.547   0.775  1.00  0.00     0.012 C 
ATOM     15  C   UNL     1      -0.769   0.657   0.313  1.00  0.00     0.021 C 
ATOM     16  C   UNL     1       0.027   0.698   1.643  1.00  0.00     0.009 C 
ATOM     17  C   UNL     1       1.497   1.006   1.398  1.00  0.00     0.008 C 
ATOM     18  C   UNL     1       2.190  -0.146   0.608  1.00  0.00    -0.023 C 
ATOM     19  C   UNL     1       2.232  -1.477   1.417  1.00  0.00     0.012 C 
ENDROOT
BRANCH   1  20
ATOM     20  C   UNL     1       4.867  -0.011   1.036  1.00  0.00     0.012 C 
ATOM     21  C   UNL     1       4.820   0.628   2.434  1.00  0.00     0.012 C 
BRANCH  20  22
ATOM     22  C   UNL     1       6.125   0.495   0.364  1.00  0.00    -0.028 C 
ATOM     23  C   UNL     1       7.072  -0.339  -0.095  1.00  0.00    -0.027 C 
BRANCH  23  24
ATOM     24  C   UNL     1       8.332   0.180  -0.758  1.00  0.00     0.014 C 
BRANCH  24  25
ATOM     25  C   UNL     1       8.299  -0.222  -2.252  1.00  0.00     0.004 C 
ATOM     26  C   UNL     1       9.468   0.346  -3.059  1.00  0.00     0.004 C 
ENDBRANCH  24  25
BRANCH  24  27
ATOM     27  C   UNL     1       9.613  -0.292   0.007  1.00  0.00    -0.011 C 
ATOM     28  C   UNL     1       9.815  -1.818  -0.013  1.00  0.00     0.008 C 
ATOM     29  C   UNL     1       9.601   0.209   1.461  1.00  0.00     0.008 C 
ENDBRANCH  24  27
ENDBRANCH  23  24
ENDBRANCH  20  22
ENDBRANCH   1  20
BRANCH  10  30
ATOM     30  O   UNL     1      -6.244   0.333  -0.118  1.00  0.00    -0.347 OA
BRANCH  30  31
ATOM     31  C   UNL     1      -7.454   1.066   0.098  1.00  0.00     0.282 C 
ATOM     32  O   UNL     1      -8.376   0.297   0.863  1.00  0.00    -0.341 OA
ATOM     33  C   UNL     1      -8.062   1.512  -1.252  1.00  0.00     0.202 C 
ATOM     34  C   UNL     1      -8.759  -0.899   0.196  1.00  0.00     0.178 C 
ATOM     35  C   UNL     1      -8.548   0.266  -2.018  1.00  0.00     0.179 C 
ATOM     36  C   UNL     1      -9.492  -0.580  -1.138  1.00  0.00     0.177 C 
BRANCH  33  37
ATOM     37  O   UNL     1      -9.136   2.390  -1.026  1.00  0.00    -0.385 OA
ATOM     38  H   UNL     1      -8.743   3.283  -0.835  1.00  0.00     0.211 HD
ENDBRANCH  33  37
BRANCH  34  39
ATOM     39  C   UNL     1      -9.638  -1.722   1.149  1.00  0.00     0.191 C 
BRANCH  39  40
ATOM     40  O   UNL     1      -9.992  -2.951   0.572  1.00  0.00    -0.394 OA
ATOM     41  H   UNL     1     -10.881  -2.825   0.147  1.00  0.00     0.210 HD
ENDBRANCH  39  40
ENDBRANCH  34  39
BRANCH  35  42
ATOM     42  O   UNL     1      -9.133   0.598  -3.253  1.00  0.00    -0.387 OA
ATOM     43  H   UNL     1      -9.934   1.155  -3.075  1.00  0.00     0.211 HD
ENDBRANCH  35  42
BRANCH  36  44
ATOM     44  O   UNL     1     -10.729   0.070  -0.934  1.00  0.00    -0.387 OA
ATOM     45  H   UNL     1     -10.658   0.675  -0.152  1.00  0.00     0.211 HD
ENDBRANCH  36  44
ENDBRANCH  30  31
ENDBRANCH  10  30
TORSDOF 12
