REMARK SMILES O=c1[nH]c(Cl)c(Br)c(=O)[nH]1
REMARK SMILES IDX 1 1 2 2 3 3 4 4 5 5 6 6 7 7 8 8 9 9 10 10
REMARK H PARENT 3 11 10 12
ROOT
ATOM      1  O   UNL     1      -1.127  -2.432  -0.060  1.00  0.00    -0.248 OA
ATOM      2  C   UNL     1      -0.631  -1.318  -0.033  1.00  0.00     0.326 A 
ATOM      3  N   UNL     1       0.732  -1.174  -0.001  1.00  0.00    -0.297 N 
ATOM      4  C   UNL     1       1.306   0.059   0.029  1.00  0.00     0.130 A 
ATOM      5  Cl  UNL     1       3.061   0.183   0.070  1.00  0.00    -0.063 Cl
ATOM      6  C   UNL     1       0.500   1.207   0.029  1.00  0.00     0.118 A 
ATOM      7  Br  UNL     1       1.271   2.968   0.071  1.00  0.00    -0.041 Br
ATOM      8  C   UNL     1      -0.890   1.049  -0.004  1.00  0.00     0.269 A 
ATOM      9  O   UNL     1      -1.620   2.026  -0.006  1.00  0.00    -0.268 OA
ATOM     10  N   UNL     1      -1.436  -0.209  -0.035  1.00  0.00    -0.273 N 
ATOM     11  H   UNL     1       1.341  -2.024  -0.000  1.00  0.00     0.172 HD
ATOM     12  H   UNL     1      -2.476  -0.323  -0.059  1.00  0.00     0.175 HD
ENDROOT
TORSDOF 0
