REMARK SMILES C[C@]12CCC(=O)C=C1CC[C@H]1[C@H]3CC[C@](O)(C(=O)COC(=O)CCC(=O)NCCCCCC(=O)N[C@H](C(=O)O)[C@H](O)c4cccc([N+](=O)[O-])c4)[C@@]3(C)CC[C@@H]12
REMARK SMILES IDX 28 1 27 2 25 3 26 4 24 6 23 7 21 8 22 9 20 10 19 11 17 12
REMARK SMILES IDX 18 13 15 14 2 15 3 16 8 17 55 18 4 19 7 20 9 21 54 22 11 23
REMARK SMILES IDX 5 24 10 25 53 26 12 27 6 28 51 29 13 30 14 31 1 32 52 33
REMARK SMILES IDX 16 34 29 36 30 37 31 38 32 39 33 40 34 41 35 42 36 44 37 45
REMARK SMILES IDX 38 46 39 47 40 49 41 50 42 52 43 53 50 54 44 55 46 56 45 57
REMARK SMILES IDX 47 58 48 59 49 60
REMARK H PARENT 27 5 16 35 35 43 39 48 41 51
ROOT
ATOM      1  C   UNL     1       3.776  -5.304   0.841  1.00  0.00     0.116 C 
ENDROOT
BRANCH   1   2
ATOM      2  N   UNL     1       3.102  -5.189  -0.441  1.00  0.00    -0.356 N 
ATOM      3  C   UNL     1       1.750  -5.094  -0.554  1.00  0.00     0.220 C 
ATOM      4  O   UNL     1       1.044  -5.155   0.444  1.00  0.00    -0.275 OA
ATOM      5  H   UNL     1       3.679  -5.194  -1.296  1.00  0.00     0.163 HD
BRANCH   3   6
ATOM      6  C   UNL     1       1.124  -4.949  -1.925  1.00  0.00     0.111 C 
BRANCH   6   7
ATOM      7  C   UNL     1      -0.411  -5.008  -1.896  1.00  0.00     0.132 C 
BRANCH   7   8
ATOM      8  C   UNL     1      -1.073  -3.870  -1.167  1.00  0.00     0.306 C 
ATOM      9  O   UNL     1      -2.276  -3.942  -0.973  1.00  0.00    -0.252 OA
BRANCH   8  10
ATOM     10  O   UNL     1      -0.362  -2.787  -0.735  1.00  0.00    -0.458 OA
BRANCH  10  11
ATOM     11  C   UNL     1      -0.881  -1.767   0.051  1.00  0.00     0.311 C 
BRANCH  11  12
ATOM     12  C   UNL     1      -2.012  -1.000  -0.617  1.00  0.00     0.202 C 
ATOM     13  O   UNL     1      -2.319  -1.262  -1.771  1.00  0.00    -0.293 OA
BRANCH  12  14
ATOM     14  C   UNL     1      -2.814   0.043   0.186  1.00  0.00     0.132 C 
ATOM     15  C   UNL     1      -8.258   1.731   0.471  1.00  0.00    -0.008 C 
ATOM     16  C   UNL     1      -8.639   3.034   1.280  1.00  0.00     0.019 C 
ATOM     17  C   UNL     1      -9.018   1.677  -0.882  1.00  0.00    -0.060 C 
ATOM     18  C   UNL     1      -6.725   1.623   0.098  1.00  0.00     0.002 C 
ATOM     19  C   UNL     1      -8.793   4.254   0.392  1.00  0.00     0.081 C 
ATOM     20  C   UNL     1      -9.802   2.683  -1.330  1.00  0.00     0.047 C 
ATOM     21  C   UNL     1      -8.788   0.482  -1.777  1.00  0.00     0.032 C 
ATOM     22  C   UNL     1      -5.724   1.680   1.301  1.00  0.00     0.005 C 
ATOM     23  C   UNL     1      -6.475   0.346  -0.799  1.00  0.00    -0.003 C 
ATOM     24  C   UNL     1      -9.881   3.949  -0.592  1.00  0.00     0.155 C 
ATOM     25  C   UNL     1      -7.283   0.423  -2.107  1.00  0.00     0.008 C 
ATOM     26  C   UNL     1      -5.067   0.324   1.593  1.00  0.00     0.011 C 
ATOM     27  C   UNL     1      -4.974   0.034  -0.981  1.00  0.00     0.002 C 
ATOM     28  O   UNL     1     -10.781   4.745  -0.808  1.00  0.00    -0.295 OA
ATOM     29  C   UNL     1      -4.320  -0.373   0.379  1.00  0.00     0.007 C 
ATOM     30  C   UNL     1      -4.080   1.155  -1.580  1.00  0.00     0.008 C 
ATOM     31  C   UNL     1      -2.925   1.364  -0.589  1.00  0.00     0.044 C 
ATOM     32  C   UNL     1      -8.691   0.550   1.386  1.00  0.00     0.016 C 
ATOM     33  C   UNL     1      -4.457  -1.898   0.653  1.00  0.00     0.015 C 
BRANCH  14  34
ATOM     34  O   UNL     1      -2.201   0.226   1.442  1.00  0.00    -0.381 OA
ATOM     35  H   UNL     1      -1.385   0.776   1.306  1.00  0.00     0.212 HD
ENDBRANCH  14  34
ENDBRANCH  12  14
ENDBRANCH  11  12
ENDBRANCH  10  11
ENDBRANCH   8  10
ENDBRANCH   7   8
ENDBRANCH   6   7
ENDBRANCH   3   6
ENDBRANCH   1   2
BRANCH   1  36
ATOM     36  C   UNL     1       3.636  -4.005   1.655  1.00  0.00     0.021 C 
BRANCH  36  37
ATOM     37  C   UNL     1       4.184  -2.768   0.918  1.00  0.00     0.002 C 
BRANCH  37  38
ATOM     38  C   UNL     1       5.710  -2.835   0.709  1.00  0.00     0.010 C 
BRANCH  38  39
ATOM     39  C   UNL     1       6.284  -1.625  -0.046  1.00  0.00     0.100 C 
BRANCH  39  40
ATOM     40  C   UNL     1       6.156  -0.296   0.662  1.00  0.00     0.220 C 
ATOM     41  O   UNL     1       5.591  -0.217   1.744  1.00  0.00    -0.275 OA
ATOM     42  N   UNL     1       6.715   0.807   0.095  1.00  0.00    -0.340 N 
ATOM     43  H   UNL     1       7.236   0.680  -0.784  1.00  0.00     0.164 HD
BRANCH  42  44
ATOM     44  C   UNL     1       6.650   2.136   0.696  1.00  0.00     0.225 C 
BRANCH  44  45
ATOM     45  C   UNL     1       6.074   3.148  -0.281  1.00  0.00     0.329 C 
ATOM     46  O   UNL     1       5.813   2.816  -1.429  1.00  0.00    -0.250 OA
BRANCH  45  47
ATOM     47  O   UNL     1       5.774   4.404   0.109  1.00  0.00    -0.480 OA
ATOM     48  H   UNL     1       5.867   4.697   1.025  1.00  0.00     0.296 HD
ENDBRANCH  45  47
ENDBRANCH  44  45
BRANCH  44  49
ATOM     49  C   UNL     1       8.038   2.494   1.304  1.00  0.00     0.178 C 
BRANCH  49  50
ATOM     50  O   UNL     1       7.968   3.675   2.061  1.00  0.00    -0.386 OA
ATOM     51  H   UNL     1       8.100   4.438   1.440  1.00  0.00     0.211 HD
ENDBRANCH  49  50
BRANCH  49  52
ATOM     52  C   UNL     1       9.276   2.507   0.406  1.00  0.00    -0.010 A 
ATOM     53  C   UNL     1       9.239   2.490  -1.001  1.00  0.00     0.007 A 
ATOM     54  C   UNL     1      10.529   2.533   1.047  1.00  0.00     0.092 A 
ATOM     55  C   UNL     1      10.424   2.491  -1.739  1.00  0.00     0.007 A 
ATOM     56  C   UNL     1      11.728   2.526   0.312  1.00  0.00     0.269 A 
ATOM     57  C   UNL     1      11.661   2.506  -1.092  1.00  0.00     0.085 A 
BRANCH  56  58
ATOM     58  N   UNL     1      12.987   2.534   0.985  1.00  0.00     0.062 N 
ATOM     59  O   UNL     1      14.008   2.521   0.363  1.00  0.00    -0.258 OA
ATOM     60  O   UNL     1      13.042   2.536   2.300  1.00  0.00    -0.258 OA
ENDBRANCH  56  58
ENDBRANCH  49  52
ENDBRANCH  44  49
ENDBRANCH  42  44
ENDBRANCH  39  40
ENDBRANCH  38  39
ENDBRANCH  37  38
ENDBRANCH  36  37
ENDBRANCH   1  36
TORSDOF 21
