REMARK SMILES C[C@@H]1CC[C@@]2(NC1)O[C@H]1C[C@@H]3[C@@H]4CC=C5C=CCC[C@]5(C)[C@H]4CC[C@]3(C)[C@H]1[C@@H]2C
REMARK SMILES IDX 1 1 2 2 3 3 4 4 5 5 6 6 7 7 8 8 9 9 10 10 11 11 12 12 13 13
REMARK SMILES IDX 14 14 15 15 16 16 17 17 18 18 19 19 20 20 21 21 22 22 23 23
REMARK SMILES IDX 24 24 25 25 26 26 27 27 28 28 29 29
REMARK H PARENT 6 30
ROOT
ATOM      1  C   UNL     1      -7.386   1.235   0.146  1.00  0.00     0.009 C 
ATOM      2  C   UNL     1      -6.369   0.176  -0.295  1.00  0.00    -0.000 C 
ATOM      3  C   UNL     1      -5.676  -0.520   0.913  1.00  0.00     0.009 C 
ATOM      4  C   UNL     1      -4.324   0.136   1.193  1.00  0.00     0.053 C 
ATOM      5  C   UNL     1      -3.376  -0.059  -0.046  1.00  0.00     0.122 C 
ATOM      6  N   UNL     1      -4.139  -0.010  -1.342  1.00  0.00    -0.289 NA
ATOM      7  C   UNL     1      -5.327   0.836  -1.242  1.00  0.00     0.087 C 
ATOM      8  O   UNL     1      -2.421   0.992  -0.053  1.00  0.00    -0.357 OA
ATOM      9  C   UNL     1      -1.417   0.486  -0.902  1.00  0.00     0.125 C 
ATOM     10  C   UNL     1      -0.101   1.229  -0.853  1.00  0.00     0.037 C 
ATOM     11  C   UNL     1       0.492   0.839   0.495  1.00  0.00     0.002 C 
ATOM     12  C   UNL     1       2.032   0.990   0.585  1.00  0.00     0.000 C 
ATOM     13  C   UNL     1       2.516   2.442   0.456  1.00  0.00     0.032 C 
ATOM     14  C   UNL     1       4.018   2.547   0.330  1.00  0.00    -0.023 C 
ATOM     15  C   UNL     1       4.834   1.497   0.074  1.00  0.00    -0.046 C 
ATOM     16  C   UNL     1       6.294   1.747  -0.067  1.00  0.00    -0.001 C 
ATOM     17  C   UNL     1       7.116   0.825  -0.599  1.00  0.00    -0.027 C 
ATOM     18  C   UNL     1       6.619  -0.492  -1.148  1.00  0.00     0.028 C 
ATOM     19  C   UNL     1       5.090  -0.508  -1.348  1.00  0.00     0.016 C 
ATOM     20  C   UNL     1       4.316   0.063  -0.127  1.00  0.00    -0.004 C 
ATOM     21  C   UNL     1       4.637  -0.772   1.143  1.00  0.00     0.017 C 
ATOM     22  C   UNL     1       2.775   0.089  -0.448  1.00  0.00     0.003 C 
ATOM     23  C   UNL     1       2.100  -1.314  -0.613  1.00  0.00     0.005 C 
ATOM     24  C   UNL     1       1.197  -1.663   0.578  1.00  0.00     0.008 C 
ATOM     25  C   UNL     1       0.021  -0.637   0.743  1.00  0.00    -0.024 C 
ATOM     26  C   UNL     1      -0.463  -0.754   2.213  1.00  0.00     0.012 C 
ATOM     27  C   UNL     1      -1.099  -0.891  -0.364  1.00  0.00     0.031 C 
ATOM     28  C   UNL     1      -2.498  -1.363   0.078  1.00  0.00     0.039 C 
ATOM     29  C   UNL     1      -2.940  -2.631  -0.671  1.00  0.00     0.012 C 
ATOM     30  H   UNL     1      -4.491  -0.944  -1.641  1.00  0.00     0.125 HD
ENDROOT
TORSDOF 0
