REMARK SMILES CC(C)[C@@H](C)[C@@]1(C)C[C@@H]1[C@@H](C)[C@H]1CC[C@H]2[C@H]3C(=C[C@H](O)[C@]12C)[C@@]1(C)CC[C@H](O)CC1=C[C@@H]3O
REMARK SMILES IDX 6 1 7 2 8 3 9 4 4 5 5 6 2 7 1 8 3 9 10 10 11 11 12 12 13 13
REMARK SMILES IDX 21 14 14 15 19 16 15 17 18 18 16 19 17 20 32 21 23 22 31 23
REMARK SMILES IDX 25 24 30 25 26 26 29 27 27 28 22 29 24 30 20 31 33 33 28 35
REMARK H PARENT 20 32 33 34 28 36
ROOT
ATOM      1  C   UNL     1       4.487  -0.107   0.111  1.00  0.00    -0.026 C 
ATOM      2  C   UNL     1       5.437  -1.288   0.402  1.00  0.00     0.012 C 
ATOM      3  C   UNL     1       3.558   0.299   1.247  1.00  0.00     0.011 C 
ATOM      4  C   UNL     1       2.958  -0.354  -0.021  1.00  0.00    -0.001 C 
ENDROOT
BRANCH   1   5
ATOM      5  C   UNL     1       5.050   1.070  -0.760  1.00  0.00    -0.005 C 
ATOM      6  C   UNL     1       5.314   0.532  -2.179  1.00  0.00     0.008 C 
BRANCH   5   7
ATOM      7  C   UNL     1       6.330   1.742  -0.143  1.00  0.00    -0.014 C 
ATOM      8  C   UNL     1       6.080   2.243   1.290  1.00  0.00     0.007 C 
ATOM      9  C   UNL     1       6.832   2.930  -0.984  1.00  0.00     0.007 C 
ENDBRANCH   5   7
ENDBRANCH   1   5
BRANCH   4  10
ATOM     10  C   UNL     1       2.385  -1.815   0.008  1.00  0.00    -0.007 C 
ATOM     11  C   UNL     1       2.464  -2.599   1.348  1.00  0.00     0.008 C 
BRANCH  10  12
ATOM     12  C   UNL     1       0.934  -1.805  -0.602  1.00  0.00     0.001 C 
ATOM     13  C   UNL     1       0.323  -3.219  -0.834  1.00  0.00     0.005 C 
ATOM     14  C   UNL     1      -0.246  -0.944   0.006  1.00  0.00     0.004 C 
ATOM     15  C   UNL     1      -1.034  -3.208  -0.138  1.00  0.00     0.005 C 
ATOM     16  C   UNL     1      -0.423   0.494  -0.581  1.00  0.00     0.143 C 
ATOM     17  C   UNL     1      -1.482  -1.770  -0.396  1.00  0.00     0.008 C 
ATOM     18  C   UNL     1      -1.835   1.031  -0.346  1.00  0.00     0.005 C 
ATOM     19  C   UNL     1      -2.776  -1.244   0.281  1.00  0.00     0.052 C 
ATOM     20  C   UNL     1      -2.908   0.269   0.037  1.00  0.00    -0.055 C 
ATOM     21  C   UNL     1      -4.028  -1.966  -0.240  1.00  0.00     0.144 C 
ATOM     22  C   UNL     1      -4.271   0.947   0.277  1.00  0.00     0.010 C 
ATOM     23  C   UNL     1      -5.290  -1.358   0.308  1.00  0.00     0.005 C 
ATOM     24  C   UNL     1      -4.695   1.808  -0.974  1.00  0.00     0.018 C 
ATOM     25  C   UNL     1      -5.415  -0.032   0.519  1.00  0.00    -0.059 C 
ATOM     26  C   UNL     1      -6.213   1.756  -1.335  1.00  0.00     0.033 C 
ATOM     27  C   UNL     1      -6.795   0.559   0.820  1.00  0.00     0.063 C 
ATOM     28  C   UNL     1      -7.089   1.806  -0.073  1.00  0.00     0.118 C 
ATOM     29  C   UNL     1      -0.138  -0.800   1.558  1.00  0.00     0.015 C 
ATOM     30  C   UNL     1      -4.088   1.810   1.555  1.00  0.00     0.021 C 
BRANCH  16  31
ATOM     31  O   UNL     1      -0.125   0.572  -1.956  1.00  0.00    -0.388 OA
ATOM     32  H   UNL     1      -0.870   0.162  -2.466  1.00  0.00     0.211 HD
ENDBRANCH  16  31
BRANCH  21  33
ATOM     33  O   UNL     1      -4.006  -3.344   0.035  1.00  0.00    -0.388 OA
ATOM     34  H   UNL     1      -3.970  -3.452   1.022  1.00  0.00     0.211 HD
ENDBRANCH  21  33
BRANCH  28  35
ATOM     35  O   UNL     1      -6.833   2.996   0.626  1.00  0.00    -0.393 OA
ATOM     36  H   UNL     1      -7.206   3.737   0.080  1.00  0.00     0.210 HD
ENDBRANCH  28  35
ENDBRANCH  10  12
ENDBRANCH   4  10
TORSDOF 7
