REMARK SMILES C=C[C@](C)(O)CC/C=C(\C)C(=O)OC[C@@H]1O[C@H](Oc2ccc(O)cc2)[C@@H](O)[C@H](O)[C@H]1O
REMARK SMILES IDX 11 1 12 2 9 3 8 4 10 5 7 6 6 7 3 8 4 9 2 10 1 11 5 12 13 14
REMARK SMILES IDX 14 15 15 16 16 17 30 18 17 19 28 20 26 21 31 22 18 24 19 25
REMARK SMILES IDX 20 26 25 27 21 28 24 29 22 30 23 31 29 33 27 35
REMARK H PARENT 5 13 31 23 23 32 29 34 27 36
ROOT
ATOM      1  C   UNL     1      -0.967  -0.638   0.911  1.00  0.00     0.333 C 
ATOM      2  O   UNL     1      -0.122  -1.456   1.252  1.00  0.00    -0.247 OA
ENDROOT
BRANCH   1   3
ATOM      3  C   UNL     1      -2.242  -1.121   0.313  1.00  0.00     0.030 C 
ATOM      4  C   UNL     1      -3.239  -0.233   0.059  1.00  0.00    -0.016 C 
ATOM      5  C   UNL     1      -2.325  -2.611   0.034  1.00  0.00     0.052 C 
BRANCH   4   6
ATOM      6  C   UNL     1      -4.588  -0.543  -0.549  1.00  0.00     0.031 C 
BRANCH   6   7
ATOM      7  C   UNL     1      -5.696  -0.286   0.487  1.00  0.00     0.043 C 
BRANCH   7   8
ATOM      8  C   UNL     1      -7.138  -0.612   0.002  1.00  0.00     0.080 C 
ATOM      9  C   UNL     1      -7.278  -2.122  -0.302  1.00  0.00     0.047 C 
BRANCH   8  10
ATOM     10  C   UNL     1      -7.494   0.201  -1.234  1.00  0.00    -0.001 C 
ATOM     11  C   UNL     1      -7.519   1.538  -1.229  1.00  0.00     0.007 C 
ENDBRANCH   8  10
BRANCH   8  12
ATOM     12  O   UNL     1      -8.018  -0.283   1.052  1.00  0.00    -0.386 OA
ATOM     13  H   UNL     1      -8.946  -0.467   0.746  1.00  0.00     0.211 HD
ENDBRANCH   8  12
ENDBRANCH   7   8
ENDBRANCH   6   7
ENDBRANCH   4   6
ENDBRANCH   1   3
BRANCH   1  14
ATOM     14  O   UNL     1      -0.719   0.696   1.037  1.00  0.00    -0.459 OA
BRANCH  14  15
ATOM     15  C   UNL     1       0.515   1.231   1.372  1.00  0.00     0.268 C 
BRANCH  15  16
ATOM     16  C   UNL     1       1.581   0.922   0.297  1.00  0.00     0.191 C 
ATOM     17  O   UNL     1       2.838   1.395   0.758  1.00  0.00    -0.331 OA
ATOM     18  C   UNL     1       1.251   1.577  -1.072  1.00  0.00     0.178 C 
ATOM     19  C   UNL     1       3.881   0.930  -0.087  1.00  0.00     0.339 C 
ATOM     20  C   UNL     1       2.362   1.208  -2.077  1.00  0.00     0.181 C 
ATOM     21  C   UNL     1       3.741   1.565  -1.487  1.00  0.00     0.214 C 
BRANCH  18  22
ATOM     22  O   UNL     1      -0.007   1.183  -1.562  1.00  0.00    -0.387 OA
ATOM     23  H   UNL     1       0.011   0.197  -1.677  1.00  0.00     0.211 HD
ENDBRANCH  18  22
BRANCH  19  24
ATOM     24  O   UNL     1       5.093   1.317   0.461  1.00  0.00    -0.462 OA
BRANCH  24  25
ATOM     25  C   UNL     1       6.117   0.544   0.921  1.00  0.00     0.123 A 
ATOM     26  C   UNL     1       6.060  -0.867   1.019  1.00  0.00     0.050 A 
ATOM     27  C   UNL     1       7.286   1.199   1.327  1.00  0.00     0.050 A 
ATOM     28  C   UNL     1       7.156  -1.584   1.506  1.00  0.00     0.050 A 
ATOM     29  C   UNL     1       8.381   0.478   1.814  1.00  0.00     0.050 A 
ATOM     30  C   UNL     1       8.320  -0.914   1.906  1.00  0.00     0.115 A 
BRANCH  30  31
ATOM     31  O   UNL     1       9.383  -1.598   2.378  1.00  0.00    -0.508 OA
ATOM     32  H   UNL     1       9.380  -2.562   2.459  1.00  0.00     0.293 HD
ENDBRANCH  30  31
ENDBRANCH  24  25
ENDBRANCH  19  24
BRANCH  20  33
ATOM     33  O   UNL     1       2.158   1.829  -3.321  1.00  0.00    -0.387 OA
ATOM     34  H   UNL     1       2.182   2.811  -3.172  1.00  0.00     0.211 HD
ENDBRANCH  20  33
BRANCH  21  35
ATOM     35  O   UNL     1       4.777   1.148  -2.342  1.00  0.00    -0.384 OA
ATOM     36  H   UNL     1       4.733   0.158  -2.406  1.00  0.00     0.211 HD
ENDBRANCH  21  35
ENDBRANCH  15  16
ENDBRANCH  14  15
ENDBRANCH   1  14
TORSDOF 15
