REMARK SMILES CCCC[C@@H](O)[C@H]1CC(OC)=CC(=O)O1
REMARK SMILES IDX 4 1 3 2 2 3 1 4 5 5 6 6 7 8 8 9 15 10 9 11 13 12 12 13 14 14
REMARK SMILES IDX 10 15 11 16
REMARK H PARENT 6 7
ROOT
ATOM      1  C   UNL     1      -1.786  -0.605  -0.779  1.00  0.00     0.036 C 
ENDROOT
BRANCH   1   2
ATOM      2  C   UNL     1      -3.250  -0.815  -0.343  1.00  0.00     0.003 C 
BRANCH   2   3
ATOM      3  C   UNL     1      -3.611  -0.226   1.036  1.00  0.00    -0.003 C 
ATOM      4  C   UNL     1      -3.381   1.283   1.130  1.00  0.00     0.004 C 
ENDBRANCH   2   3
ENDBRANCH   1   2
BRANCH   1   5
ATOM      5  C   UNL     1      -0.758  -1.244   0.185  1.00  0.00     0.155 C 
BRANCH   5   6
ATOM      6  O   UNL     1      -0.996  -2.625   0.305  1.00  0.00    -0.389 OA
ATOM      7  H   UNL     1      -0.854  -3.031  -0.590  1.00  0.00     0.211 HD
ENDBRANCH   5   6
BRANCH   5   8
ATOM      8  C   UNL     1       0.713  -0.991  -0.224  1.00  0.00     0.213 C 
ATOM      9  C   UNL     1       1.065   0.516  -0.299  1.00  0.00     0.123 C 
ATOM     10  O   UNL     1       1.552  -1.631   0.673  1.00  0.00    -0.456 OA
ATOM     11  C   UNL     1       2.556   0.741  -0.435  1.00  0.00     0.107 C 
ATOM     12  C   UNL     1       2.891  -1.429   0.635  1.00  0.00     0.334 C 
ATOM     13  C   UNL     1       3.421  -0.202   0.006  1.00  0.00     0.135 C 
ATOM     14  O   UNL     1       3.645  -2.225   1.171  1.00  0.00    -0.247 OA
BRANCH  11  15
ATOM     15  O   UNL     1       2.968   1.933  -0.950  1.00  0.00    -0.501 OA
ATOM     16  C   UNL     1       4.275   2.361  -1.066  1.00  0.00     0.278 C 
ENDBRANCH  11  15
ENDBRANCH   5   8
ENDBRANCH   1   5
TORSDOF 6
