REMARK SMILES CC1(C)O[C@H]2[C@@]3(CC[C@@]4(CCC5(CCCC5)C4)C3)C(=O)OC[C@@]23[C@@H]1C(=O)[C@@H](O)[C@]1([C@H]2CCC[C@@H](Cc4ccccc4)C2)[C@@H]3CC[C@@]2(C)[C@H](c3ccoc3C[C@@H]([C@@H]3CC[C@H]4[C@H](C=CN5CNC[C@@H]45)C3)[C@H](O)CO)OC(=O)[C@H]3O[C@@]312
REMARK SMILES IDX 54 1 53 2 49 3 50 4 52 5 51 6 48 7 2 8 4 9 24 10 5 11 23 12
REMARK SMILES IDX 25 13 6 14 22 15 43 16 26 17 27 18 7 19 19 20 18 21 21 22
REMARK SMILES IDX 29 23 44 24 8 25 20 26 9 27 78 28 45 29 10 30 17 31 77 32
REMARK SMILES IDX 46 33 76 34 11 35 12 36 74 37 13 38 16 39 73 40 75 41 14 42
REMARK SMILES IDX 15 43 1 44 3 45 47 46 28 47 30 49 31 50 42 51 32 52 34 53
REMARK SMILES IDX 33 54 35 55 36 56 37 57 41 58 38 59 40 60 39 61 55 62 56 63
REMARK SMILES IDX 57 64 68 65 58 66 60 67 59 68 61 69 67 70 62 71 66 72 63 73
REMARK SMILES IDX 65 74 64 75 69 77 70 78 71 80 72 81
REMARK H PARENT 28 48 65 76 70 79 72 82
ROOT
ATOM      1  C   UNL     1       3.878  -1.400  -0.464  1.00  0.00     0.082 C 
ENDROOT
BRANCH   1   2
ATOM      2  C   UNL     1       3.367  -2.266   0.662  1.00  0.00     0.111 A 
ATOM      3  C   UNL     1       2.550  -1.881   1.716  1.00  0.00     0.035 A 
ATOM      4  C   UNL     1       2.325  -3.020   2.457  1.00  0.00     0.050 A 
ATOM      5  O   UNL     1       3.601  -3.557   0.740  1.00  0.00    -0.469 OA
ATOM      6  C   UNL     1       3.002  -4.034   1.809  1.00  0.00     0.195 A 
BRANCH   3   7
ATOM      7  C   UNL     1       2.000  -0.496   1.949  1.00  0.00     0.219 C 
ATOM      8  C   UNL     1      -5.382   1.881   0.713  1.00  0.00     0.074 C 
ATOM      9  O   UNL     1      -5.669   0.783  -0.118  1.00  0.00    -0.370 OA
ATOM     10  C   UNL     1      -3.987   2.387   0.254  1.00  0.00     0.103 C 
ATOM     11  C   UNL     1      -4.463   0.051  -0.227  1.00  0.00     0.147 C 
ATOM     12  C   UNL     1      -3.322   1.132  -0.414  1.00  0.00     0.048 C 
ATOM     13  C   UNL     1      -3.247   3.167   1.333  1.00  0.00     0.168 C 
ATOM     14  C   UNL     1      -4.618  -1.137  -1.283  1.00  0.00     0.095 C 
ATOM     15  C   UNL     1      -3.228   1.346  -1.962  1.00  0.00     0.243 C 
ATOM     16  C   UNL     1      -1.945   0.765   0.289  1.00  0.00     0.015 C 
ATOM     17  O   UNL     1      -3.794   4.141   1.830  1.00  0.00    -0.296 OA
ATOM     18  C   UNL     1      -1.887   2.775   1.863  1.00  0.00     0.191 C 
ATOM     19  C   UNL     1      -6.077  -1.274  -1.813  1.00  0.00     0.022 C 
ATOM     20  C   UNL     1      -3.707  -0.933  -2.495  1.00  0.00     0.314 C 
ATOM     21  C   UNL     1      -4.349  -2.559  -0.652  1.00  0.00     0.028 C 
ATOM     22  O   UNL     1      -2.974   0.184  -2.641  1.00  0.00    -0.464 OA
ATOM     23  C   UNL     1      -1.014   1.951   0.845  1.00  0.00     0.043 C 
ATOM     24  C   UNL     1      -1.203  -0.436  -0.370  1.00  0.00     0.006 C 
ATOM     25  C   UNL     1      -6.268  -2.762  -2.068  1.00  0.00     0.008 C 
ATOM     26  O   UNL     1      -3.622  -1.790  -3.362  1.00  0.00    -0.252 OA
ATOM     27  C   UNL     1      -5.658  -3.385  -0.804  1.00  0.00    -0.028 C 
ATOM     28  C   UNL     1       0.182   1.262   1.691  1.00  0.00     0.125 C 
ATOM     29  C   UNL     1       0.202  -0.749   0.169  1.00  0.00     0.014 C 
ATOM     30  C   UNL     1      -5.442  -4.915  -0.968  1.00  0.00     0.007 C 
ATOM     31  C   UNL     1      -6.582  -3.267   0.456  1.00  0.00     0.014 C 
ATOM     32  O   UNL     1       1.341   2.079   1.629  1.00  0.00    -0.352 OA
ATOM     33  C   UNL     1       0.476  -0.293   1.613  1.00  0.00     0.042 C 
ATOM     34  C   UNL     1       0.803   1.927   2.905  1.00  0.00     0.262 C 
ATOM     35  C   UNL     1      -5.976  -5.539   0.313  1.00  0.00     0.007 C 
ATOM     36  C   UNL     1      -7.199  -4.664   0.646  1.00  0.00    -0.029 C 
ATOM     37  C   UNL     1       1.830   1.142   3.690  1.00  0.00     0.339 C 
ATOM     38  C   UNL     1      -8.423  -4.921  -0.278  1.00  0.00     0.007 C 
ATOM     39  C   UNL     1      -7.737  -4.965   2.073  1.00  0.00     0.007 C 
ATOM     40  O   UNL     1       2.277  -0.057   3.231  1.00  0.00    -0.455 OA
ATOM     41  O   UNL     1       2.264   1.594   4.737  1.00  0.00    -0.249 OA
ATOM     42  C   UNL     1      -9.292  -5.868   0.535  1.00  0.00     0.001 C 
ATOM     43  C   UNL     1      -9.232  -5.199   1.901  1.00  0.00     0.001 C 
ATOM     44  C   UNL     1      -5.458   1.445   2.208  1.00  0.00     0.043 C 
ATOM     45  C   UNL     1      -6.462   2.956   0.492  1.00  0.00     0.043 C 
ATOM     46  C   UNL     1      -0.385  -1.107   2.621  1.00  0.00     0.019 C 
BRANCH  18  47
ATOM     47  O   UNL     1      -2.037   2.154   3.120  1.00  0.00    -0.385 OA
ATOM     48  H   UNL     1      -2.667   1.399   3.042  1.00  0.00     0.211 HD
ENDBRANCH  18  47
BRANCH  23  49
ATOM     49  C   UNL     1      -0.368   3.020  -0.207  1.00  0.00     0.002 C 
ATOM     50  C   UNL     1       0.497   2.385  -1.323  1.00  0.00     0.004 C 
ATOM     51  C   UNL     1      -1.272   4.144  -0.799  1.00  0.00     0.008 C 
ATOM     52  C   UNL     1       1.275   3.439  -2.121  1.00  0.00     0.001 C 
ATOM     53  C   UNL     1      -0.455   5.180  -1.618  1.00  0.00    -0.006 C 
ATOM     54  C   UNL     1       0.334   4.473  -2.733  1.00  0.00     0.004 C 
BRANCH  53  55
ATOM     55  C   UNL     1      -1.377   6.260  -2.227  1.00  0.00     0.039 C 
BRANCH  55  56
ATOM     56  C   UNL     1      -2.208   6.939  -1.166  1.00  0.00    -0.048 A 
ATOM     57  C   UNL     1      -3.604   6.787  -1.165  1.00  0.00     0.004 A 
ATOM     58  C   UNL     1      -1.596   7.695  -0.151  1.00  0.00     0.004 A 
ATOM     59  C   UNL     1      -4.376   7.373  -0.159  1.00  0.00     0.000 A 
ATOM     60  C   UNL     1      -2.373   8.283   0.852  1.00  0.00     0.000 A 
ATOM     61  C   UNL     1      -3.761   8.120   0.849  1.00  0.00     0.000 A 
ENDBRANCH  55  56
ENDBRANCH  53  55
ENDBRANCH  23  49
ENDBRANCH   3   7
ENDBRANCH   1   2
BRANCH   1  62
ATOM     62  C   UNL     1       5.027  -0.422  -0.060  1.00  0.00     0.031 C 
BRANCH  62  63
ATOM     63  C   UNL     1       6.238  -1.227   0.563  1.00  0.00    -0.004 C 
ATOM     64  C   UNL     1       7.385  -0.335   1.121  1.00  0.00     0.004 C 
ATOM     65  C   UNL     1       6.782  -2.341  -0.355  1.00  0.00     0.012 C 
ATOM     66  C   UNL     1       8.771  -0.672   0.517  1.00  0.00     0.007 C 
ATOM     67  C   UNL     1       7.978  -3.127   0.228  1.00  0.00     0.019 C 
ATOM     68  C   UNL     1       9.073  -2.159   0.833  1.00  0.00     0.020 C 
ATOM     69  C   UNL     1       8.451  -4.002  -0.934  1.00  0.00    -0.006 C 
ATOM     70  C   UNL     1      10.500  -2.668   0.517  1.00  0.00     0.100 C 
ATOM     71  C   UNL     1       9.685  -3.934  -1.443  1.00  0.00     0.078 C 
ATOM     72  C   UNL     1      11.677  -1.715   0.663  1.00  0.00     0.108 C 
ATOM     73  N   UNL     1      10.645  -3.097  -0.832  1.00  0.00    -0.361 N 
ATOM     74  N   UNL     1      12.720  -2.337  -0.154  1.00  0.00    -0.298 NA
ATOM     75  C   UNL     1      11.991  -2.909  -1.296  1.00  0.00     0.201 C 
ATOM     76  H   UNL     1      13.439  -1.643  -0.466  1.00  0.00     0.124 HD
ENDBRANCH  62  63
BRANCH  62  77
ATOM     77  C   UNL     1       5.280   0.526  -1.295  1.00  0.00     0.143 C 
BRANCH  77  78
ATOM     78  O   UNL     1       5.673  -0.192  -2.441  1.00  0.00    -0.390 OA
ATOM     79  H   UNL     1       6.657  -0.121  -2.540  1.00  0.00     0.211 HD
ENDBRANCH  77  78
BRANCH  77  80
ATOM     80  C   UNL     1       6.176   1.764  -1.056  1.00  0.00     0.188 C 
BRANCH  80  81
ATOM     81  O   UNL     1       6.077   2.652  -2.138  1.00  0.00    -0.394 OA
ATOM     82  H   UNL     1       6.739   2.359  -2.818  1.00  0.00     0.210 HD
ENDBRANCH  80  81
ENDBRANCH  77  80
ENDBRANCH  62  77
ENDBRANCH   1  62
TORSDOF 12
