REMARK SMILES CC(C)[C@]12CN3C[C@](C(C)C)(CN(C1)[C@H]3c1cc(Br)ccc1O)C2=O
REMARK SMILES IDX 4 1 14 2 13 3 12 4 8 5 7 6 6 7 5 8 15 9 24 10 25 11 2 12
REMARK SMILES IDX 1 13 3 14 9 15 10 16 11 17 16 18 17 19 22 20 18 21 21 22
REMARK SMILES IDX 20 23 19 24 23 25
REMARK H PARENT 23 26
ROOT
ATOM      1  C   UNL     1      -0.722   0.999   0.378  1.00  0.00     0.057 C 
ATOM      2  C   UNL     1       0.188   0.510   1.534  1.00  0.00     0.103 C 
ATOM      3  N   UNL     1       0.695  -0.869   1.283  1.00  0.00    -0.282 NA
ATOM      4  C   UNL     1      -0.448  -1.811   1.223  1.00  0.00     0.103 C 
ATOM      5  C   UNL     1      -1.404  -1.453   0.041  1.00  0.00     0.057 C 
ATOM      6  C   UNL     1      -0.553  -1.422  -1.264  1.00  0.00     0.103 C 
ATOM      7  N   UNL     1       0.598  -0.502  -1.117  1.00  0.00    -0.282 NA
ATOM      8  C   UNL     1       0.127   0.890  -0.919  1.00  0.00     0.103 C 
ATOM      9  C   UNL     1       1.447  -0.973   0.003  1.00  0.00     0.162 C 
ATOM     10  C   UNL     1      -1.847  -0.025   0.281  1.00  0.00     0.150 C 
ATOM     11  O   UNL     1      -3.022   0.279   0.419  1.00  0.00    -0.298 OA
ENDROOT
BRANCH   1  12
ATOM     12  C   UNL     1      -1.275   2.462   0.638  1.00  0.00    -0.001 C 
ATOM     13  C   UNL     1      -2.139   3.004  -0.524  1.00  0.00     0.008 C 
ATOM     14  C   UNL     1      -0.179   3.508   0.931  1.00  0.00     0.008 C 
ENDBRANCH   1  12
BRANCH   5  15
ATOM     15  C   UNL     1      -2.571  -2.517  -0.078  1.00  0.00    -0.001 C 
ATOM     16  C   UNL     1      -3.520  -2.267  -1.270  1.00  0.00     0.008 C 
ATOM     17  C   UNL     1      -3.416  -2.668   1.204  1.00  0.00     0.008 C 
ENDBRANCH   5  15
BRANCH   9  18
ATOM     18  C   UNL     1       2.839  -0.339  -0.001  1.00  0.00     0.027 A 
ATOM     19  C   UNL     1       3.423   0.227   1.153  1.00  0.00     0.026 A 
ATOM     20  C   UNL     1       3.601  -0.372  -1.194  1.00  0.00     0.121 A 
ATOM     21  C   UNL     1       4.712   0.769   1.110  1.00  0.00     0.018 A 
ATOM     22  C   UNL     1       4.893   0.173  -1.223  1.00  0.00     0.048 A 
ATOM     23  C   UNL     1       5.443   0.745  -0.077  1.00  0.00     0.019 A 
ATOM     24  Br  UNL     1       5.482   1.530   2.684  1.00  0.00    -0.051 Br
BRANCH  20  25
ATOM     25  O   UNL     1       3.090  -0.937  -2.309  1.00  0.00    -0.508 OA
ATOM     26  H   UNL     1       3.586  -0.986  -3.139  1.00  0.00     0.293 HD
ENDBRANCH  20  25
ENDBRANCH   9  18
TORSDOF 4
