REMARK SMILES C=C(CO[C@@H]1O[C@H](CO)[C@@H](O)[C@H](O)[C@H]1O)[C@@H]1CC[C@@]2(C)[C@H](O)CC=C(C)[C@@H]2C1
REMARK SMILES IDX 3 1 2 2 1 3 16 4 17 5 28 6 18 7 27 8 19 9 25 10 21 11 24 12
REMARK SMILES IDX 23 13 20 14 26 15 22 16 4 18 5 19 6 20 14 21 7 22 12 23
REMARK SMILES IDX 10 24 15 25 8 27 9 28 13 30 11 32
REMARK H PARENT 22 17 15 26 9 29 13 31 11 33
ROOT
ATOM      1  C   UNL     1       1.063  -0.981   1.790  1.00  0.00     0.194 C 
ENDROOT
BRANCH   1   2
ATOM      2  C   UNL     1       0.155  -1.943   1.025  1.00  0.00    -0.049 C 
ATOM      3  C   UNL     1       0.397  -3.266   1.097  1.00  0.00     0.010 C 
BRANCH   2   4
ATOM      4  C   UNL     1      -1.031  -1.454   0.200  1.00  0.00     0.017 C 
ATOM      5  C   UNL     1      -0.610  -0.474  -0.917  1.00  0.00     0.009 C 
ATOM      6  C   UNL     1      -2.099  -0.814   1.110  1.00  0.00     0.016 C 
ATOM      7  C   UNL     1      -1.830  -0.051  -1.755  1.00  0.00     0.010 C 
ATOM      8  C   UNL     1      -3.332  -0.407   0.269  1.00  0.00     0.023 C 
ATOM      9  C   UNL     1      -2.960   0.581  -0.895  1.00  0.00     0.000 C 
ATOM     10  C   UNL     1      -4.469   0.236   1.070  1.00  0.00    -0.073 C 
ATOM     11  C   UNL     1      -4.249   0.815  -1.802  1.00  0.00     0.124 C 
ATOM     12  C   UNL     1      -5.545   0.660   0.372  1.00  0.00    -0.025 C 
ATOM     13  C   UNL     1      -5.580   0.395  -1.109  1.00  0.00     0.059 C 
ATOM     14  C   UNL     1      -2.473   1.946  -0.305  1.00  0.00     0.015 C 
ATOM     15  C   UNL     1      -4.384   0.466   2.558  1.00  0.00     0.039 C 
BRANCH  11  16
ATOM     16  O   UNL     1      -4.309   2.125  -2.315  1.00  0.00    -0.392 OA
ATOM     17  H   UNL     1      -4.740   2.700  -1.630  1.00  0.00     0.210 HD
ENDBRANCH  11  16
ENDBRANCH   2   4
ENDBRANCH   1   2
BRANCH   1  18
ATOM     18  O   UNL     1       1.807  -0.138   0.912  1.00  0.00    -0.345 OA
BRANCH  18  19
ATOM     19  C   UNL     1       2.925  -0.850   0.383  1.00  0.00     0.282 C 
ATOM     20  O   UNL     1       4.039  -0.765   1.278  1.00  0.00    -0.341 OA
ATOM     21  C   UNL     1       3.177  -0.522  -1.139  1.00  0.00     0.202 C 
ATOM     22  C   UNL     1       4.947   0.292   1.008  1.00  0.00     0.178 C 
ATOM     23  C   UNL     1       4.416   0.369  -1.462  1.00  0.00     0.179 C 
ATOM     24  C   UNL     1       5.522   0.156  -0.425  1.00  0.00     0.177 C 
BRANCH  21  25
ATOM     25  O   UNL     1       3.221  -1.706  -1.904  1.00  0.00    -0.385 OA
ATOM     26  H   UNL     1       3.970  -2.267  -1.593  1.00  0.00     0.211 HD
ENDBRANCH  21  25
BRANCH  22  27
ATOM     27  C   UNL     1       4.345   1.669   1.381  1.00  0.00     0.191 C 
BRANCH  27  28
ATOM     28  O   UNL     1       5.245   2.708   1.092  1.00  0.00    -0.394 OA
ATOM     29  H   UNL     1       5.885   2.753   1.848  1.00  0.00     0.210 HD
ENDBRANCH  27  28
ENDBRANCH  22  27
BRANCH  23  30
ATOM     30  O   UNL     1       4.132   1.755  -1.508  1.00  0.00    -0.387 OA
ATOM     31  H   UNL     1       3.169   1.921  -1.357  1.00  0.00     0.211 HD
ENDBRANCH  23  30
BRANCH  24  32
ATOM     32  O   UNL     1       6.166  -1.086  -0.602  1.00  0.00    -0.387 OA
ATOM     33  H   UNL     1       5.597  -1.809  -0.239  1.00  0.00     0.211 HD
ENDBRANCH  24  32
ENDBRANCH  18  19
ENDBRANCH   1  18
TORSDOF 10
