REMARK SMILES CC[C]CC[C]CCCC[C]CC[C]CC(=O)OC[C@H](COC(=O)CCCCCC/C=C\[C]/C=C\[C]/C=C\[C]/C=C\CC)OC(=O)[C]C/C=C\C/C=C\C/C=C\C/C=C\C/C=C\C/C=C\CC
REMARK SMILES IDX 20 1 44 2 45 3 46 4 47 5 48 6 49 7 50 8 51 9 52 10 53 11
REMARK SMILES IDX 54 12 55 13 56 14 57 15 58 16 59 17 60 18 61 19 62 20 63 21
REMARK SMILES IDX 64 22 65 23 66 24 67 25 21 26 22 27 23 28 24 29 25 30 26 31
REMARK SMILES IDX 27 32 28 33 29 34 30 35 31 36 32 37 33 38 34 39 35 40 36 41
REMARK SMILES IDX 37 42 38 43 39 44 40 45 41 46 42 47 43 48 19 49 18 50 16 51
REMARK SMILES IDX 17 52 15 53 14 54 13 55 12 56 11 57 10 58 9 59 8 60 7 61
REMARK SMILES IDX 6 62 5 63 4 64 3 65 2 66 1 67
REMARK H PARENT
ROOT
ATOM      1  C   UNL     1      20.148   4.494   0.515  1.00  0.00     0.251 C 
ENDROOT
BRANCH   1   2
ATOM      2  O   UNL     1      19.171   3.643   1.027  1.00  0.00    -0.455 OA
BRANCH   2   3
ATOM      3  C   UNL     1      18.661   2.547   0.399  1.00  0.00     0.315 C 
ATOM      4  O   UNL     1      19.004   2.270  -0.742  1.00  0.00    -0.252 OA
BRANCH   3   5
ATOM      5  C   UNL     1      17.608   1.722   1.105  1.00  0.00     0.107 C 
BRANCH   5   6
ATOM      6  C   UNL     1      16.962   0.663   0.206  1.00  0.00     0.048 C 
BRANCH   6   7
ATOM      7  C   UNL     1      15.844  -0.060   0.935  1.00  0.00    -0.030 C 
ATOM      8  C   UNL     1      14.536  -0.014   0.582  1.00  0.00    -0.027 C 
BRANCH   8   9
ATOM      9  C   UNL     1      14.063   0.832  -0.573  1.00  0.00     0.054 C 
BRANCH   9  10
ATOM     10  C   UNL     1      12.618   0.923  -1.027  1.00  0.00    -0.027 C 
ATOM     11  C   UNL     1      11.456   0.295  -0.736  1.00  0.00    -0.027 C 
BRANCH  11  12
ATOM     12  C   UNL     1      11.094  -0.823   0.211  1.00  0.00     0.054 C 
BRANCH  12  13
ATOM     13  C   UNL     1      10.726  -2.013  -0.636  1.00  0.00    -0.027 C 
ATOM     14  C   UNL     1       9.505  -2.560  -0.814  1.00  0.00    -0.027 C 
BRANCH  14  15
ATOM     15  C   UNL     1       8.174  -2.132  -0.226  1.00  0.00     0.054 C 
BRANCH  15  16
ATOM     16  C   UNL     1       7.799  -0.722  -0.600  1.00  0.00    -0.027 C 
ATOM     17  C   UNL     1       6.599  -0.105  -0.485  1.00  0.00    -0.027 C 
BRANCH  17  18
ATOM     18  C   UNL     1       5.223  -0.567  -0.021  1.00  0.00     0.054 C 
BRANCH  18  19
ATOM     19  C   UNL     1       4.997  -1.966   0.485  1.00  0.00    -0.027 C 
ATOM     20  C   UNL     1       3.796  -2.562   0.695  1.00  0.00    -0.027 C 
BRANCH  20  21
ATOM     21  C   UNL     1       2.351  -2.092   0.517  1.00  0.00     0.054 C 
BRANCH  21  22
ATOM     22  C   UNL     1       2.026  -0.649   0.206  1.00  0.00    -0.027 C 
ATOM     23  C   UNL     1       0.794  -0.126  -0.006  1.00  0.00    -0.031 C 
BRANCH  23  24
ATOM     24  C   UNL     1      -0.587  -0.766  -0.034  1.00  0.00     0.023 C 
ATOM     25  C   UNL     1      -0.716  -2.274   0.150  1.00  0.00     0.008 C 
ENDBRANCH  23  24
ENDBRANCH  21  22
ENDBRANCH  20  21
ENDBRANCH  18  19
ENDBRANCH  17  18
ENDBRANCH  15  16
ENDBRANCH  14  15
ENDBRANCH  12  13
ENDBRANCH  11  12
ENDBRANCH   9  10
ENDBRANCH   8   9
ENDBRANCH   6   7
ENDBRANCH   5   6
ENDBRANCH   3   5
ENDBRANCH   2   3
ENDBRANCH   1   2
BRANCH   1  26
ATOM     26  C   UNL     1      20.166   5.761   1.378  1.00  0.00     0.281 C 
BRANCH  26  27
ATOM     27  O   UNL     1      20.761   6.807   0.701  1.00  0.00    -0.462 OA
BRANCH  27  28
ATOM     28  C   UNL     1      20.582   8.102   1.078  1.00  0.00     0.305 C 
ATOM     29  O   UNL     1      20.431   8.397   2.255  1.00  0.00    -0.252 OA
BRANCH  28  30
ATOM     30  C   UNL     1      20.250   9.093   0.000  1.00  0.00     0.123 C 
BRANCH  30  31
ATOM     31  C   UNL     1      21.000  10.392   0.000  1.00  0.00     0.012 C 
BRANCH  31  32
ATOM     32  C   UNL     1      21.750  11.691   0.000  1.00  0.00     0.001 C 
BRANCH  32  33
ATOM     33  C   UNL     1      21.662  13.289   0.033  1.00  0.00     0.000 C 
BRANCH  33  34
ATOM     34  C   UNL     1      23.123  14.042   0.011  1.00  0.00     0.004 C 
BRANCH  34  35
ATOM     35  C   UNL     1      23.083  15.640   0.018  1.00  0.00     0.027 C 
BRANCH  35  36
ATOM     36  C   UNL     1      24.280  16.781   0.005  1.00  0.00    -0.030 C 
ATOM     37  C   UNL     1      24.000  18.186   0.000  1.00  0.00    -0.018 C 
BRANCH  37  38
ATOM     38  C   UNL     1      22.500  18.186   0.000  1.00  0.00     0.034 C 
BRANCH  38  39
ATOM     39  C   UNL     1      21.000  18.186   0.000  1.00  0.00    -0.017 C 
ATOM     40  C   UNL     1      20.250  19.486   0.000  1.00  0.00    -0.017 C 
BRANCH  40  41
ATOM     41  C   UNL     1      21.000  20.785   0.000  1.00  0.00     0.034 C 
BRANCH  41  42
ATOM     42  C   UNL     1      21.750  22.084   0.000  1.00  0.00    -0.017 C 
ATOM     43  C   UNL     1      21.000  23.383   0.000  1.00  0.00    -0.017 C 
BRANCH  43  44
ATOM     44  C   UNL     1      19.500  23.383   0.000  1.00  0.00     0.034 C 
BRANCH  44  45
ATOM     45  C   UNL     1      18.000  23.383   0.000  1.00  0.00    -0.018 C 
ATOM     46  C   UNL     1      17.380  24.566  -0.004  1.00  0.00    -0.031 C 
BRANCH  46  47
ATOM     47  C   UNL     1      18.000  25.981   0.000  1.00  0.00     0.023 C 
ATOM     48  C   UNL     1      18.750  27.280   0.000  1.00  0.00     0.008 C 
ENDBRANCH  46  47
ENDBRANCH  44  45
ENDBRANCH  43  44
ENDBRANCH  41  42
ENDBRANCH  40  41
ENDBRANCH  38  39
ENDBRANCH  37  38
ENDBRANCH  35  36
ENDBRANCH  34  35
ENDBRANCH  33  34
ENDBRANCH  32  33
ENDBRANCH  31  32
ENDBRANCH  30  31
ENDBRANCH  28  30
ENDBRANCH  27  28
ENDBRANCH  26  27
ENDBRANCH   1  26
BRANCH   1  49
ATOM     49  C   UNL     1      21.494   3.748   0.494  1.00  0.00     0.281 C 
BRANCH  49  50
ATOM     50  O   UNL     1      22.590   4.481   0.041  1.00  0.00    -0.462 OA
BRANCH  50  51
ATOM     51  C   UNL     1      23.828   3.899  -0.094  1.00  0.00     0.306 C 
ATOM     52  O   UNL     1      24.812   4.592  -0.293  1.00  0.00    -0.252 OA
BRANCH  51  53
ATOM     53  C   UNL     1      23.946   2.397   0.000  1.00  0.00     0.131 C 
BRANCH  53  54
ATOM     54  C   UNL     1      25.245   1.647   0.000  1.00  0.00    -0.006 C 
BRANCH  54  55
ATOM     55  C   UNL     1      26.544   0.897   0.000  1.00  0.00     0.009 C 
BRANCH  55  56
ATOM     56  C   UNL     1      27.843   0.147   0.000  1.00  0.00     0.009 C 
BRANCH  56  57
ATOM     57  C   UNL     1      29.142  -0.603   0.000  1.00  0.00    -0.017 C 
BRANCH  57  58
ATOM     58  C   UNL     1      30.441  -1.353   0.000  1.00  0.00     0.008 C 
BRANCH  58  59
ATOM     59  C   UNL     1      32.089  -1.683  -0.004  1.00  0.00     0.001 C 
BRANCH  59  60
ATOM     60  C   UNL     1      32.691  -3.272   0.004  1.00  0.00     0.001 C 
BRANCH  60  61
ATOM     61  C   UNL     1      34.339  -3.603   0.000  1.00  0.00     0.008 C 
BRANCH  61  62
ATOM     62  C   UNL     1      35.638  -4.353   0.000  1.00  0.00    -0.017 C 
BRANCH  62  63
ATOM     63  C   UNL     1      36.937  -5.103   0.000  1.00  0.00     0.009 C 
BRANCH  63  64
ATOM     64  C   UNL     1      38.236  -5.853   0.000  1.00  0.00     0.009 C 
BRANCH  64  65
ATOM     65  C   UNL     1      39.535  -6.603   0.000  1.00  0.00    -0.018 C 
BRANCH  65  66
ATOM     66  C   UNL     1      40.834  -7.353   0.000  1.00  0.00     0.005 C 
ATOM     67  C   UNL     1      42.133  -8.103   0.000  1.00  0.00     0.004 C 
ENDBRANCH  65  66
ENDBRANCH  64  65
ENDBRANCH  63  64
ENDBRANCH  62  63
ENDBRANCH  61  62
ENDBRANCH  60  61
ENDBRANCH  59  60
ENDBRANCH  58  59
ENDBRANCH  57  58
ENDBRANCH  56  57
ENDBRANCH  55  56
ENDBRANCH  54  55
ENDBRANCH  53  54
ENDBRANCH  51  53
ENDBRANCH  50  51
ENDBRANCH  49  50
ENDBRANCH   1  49
TORSDOF 50
