REMARK SMILES c1ccc(OCc2cc(CC3(NCc4cnc5ccccc5c4)COC3)no2)cc1
REMARK SMILES IDX 10 1 9 2 7 3 8 4 28 5 27 6 6 7 5 8 4 9 1 10 2 11 30 12 3 13
REMARK SMILES IDX 29 14 11 15 24 16 26 17 25 18 12 19 13 21 14 22 15 23 23 24
REMARK SMILES IDX 16 25 22 26 17 27 21 28 18 29 20 30 19 31
REMARK H PARENT 12 20
ROOT
ATOM      1  C   UNL     1       0.516   0.138   0.040  1.00  0.00     0.087 C 
ENDROOT
BRANCH   1   2
ATOM      2  C   UNL     1       1.849   0.791  -0.248  1.00  0.00     0.086 A 
ATOM      3  C   UNL     1       3.791   1.747  -0.052  1.00  0.00     0.174 A 
ATOM      4  C   UNL     1       2.808   1.126   0.685  1.00  0.00     0.076 A 
ATOM      5  O   UNL     1       3.434   1.744  -1.316  1.00  0.00    -0.357 OA
ATOM      6  N   UNL     1       2.271   1.178  -1.469  1.00  0.00    -0.085 NA
BRANCH   3   7
ATOM      7  C   UNL     1       5.035   2.391   0.479  1.00  0.00     0.307 C 
BRANCH   7   8
ATOM      8  O   UNL     1       5.818   1.505   1.194  1.00  0.00    -0.486 OA
BRANCH   8   9
ATOM      9  C   UNL     1       6.535   0.458   0.709  1.00  0.00     0.119 A 
ATOM     10  C   UNL     1       8.084  -1.709  -0.182  1.00  0.00     0.000 A 
ATOM     11  C   UNL     1       8.045  -1.388   1.176  1.00  0.00     0.004 A 
ATOM     12  C   UNL     1       7.350  -0.952  -1.100  1.00  0.00     0.004 A 
ATOM     13  C   UNL     1       7.274  -0.309   1.618  1.00  0.00     0.046 A 
ATOM     14  C   UNL     1       6.577   0.129  -0.662  1.00  0.00     0.046 A 
ENDBRANCH   8   9
ENDBRANCH   7   8
ENDBRANCH   3   7
ENDBRANCH   1   2
BRANCH   1  15
ATOM     15  C   UNL     1      -0.719   1.074  -0.152  1.00  0.00     0.071 C 
ATOM     16  C   UNL     1      -0.781   1.888  -1.437  1.00  0.00     0.185 C 
ATOM     17  C   UNL     1      -0.506   2.445   0.485  1.00  0.00     0.185 C 
ATOM     18  O   UNL     1      -0.372   3.066  -0.775  1.00  0.00    -0.377 OA
BRANCH  15  19
ATOM     19  N   UNL     1      -1.999   0.449   0.255  1.00  0.00    -0.303 NA
ATOM     20  H   UNL     1      -2.735   1.190   0.353  1.00  0.00     0.123 HD
BRANCH  19  21
ATOM     21  C   UNL     1      -2.509  -0.529  -0.719  1.00  0.00     0.119 C 
BRANCH  21  22
ATOM     22  C   UNL     1      -3.845  -1.042  -0.247  1.00  0.00    -0.015 A 
ATOM     23  C   UNL     1      -3.936  -1.849   0.897  1.00  0.00     0.116 A 
ATOM     24  C   UNL     1      -5.023  -0.694  -0.926  1.00  0.00     0.017 A 
ATOM     25  N   UNL     1      -5.147  -2.289   1.333  1.00  0.00    -0.256 NA
ATOM     26  C   UNL     1      -6.263  -1.137  -0.452  1.00  0.00     0.000 A 
ATOM     27  C   UNL     1      -6.303  -1.954   0.699  1.00  0.00     0.070 A 
ATOM     28  C   UNL     1      -7.458  -0.775  -1.092  1.00  0.00     0.010 A 
ATOM     29  C   UNL     1      -7.533  -2.408   1.189  1.00  0.00     0.029 A 
ATOM     30  C   UNL     1      -8.683  -1.227  -0.590  1.00  0.00     0.001 A 
ATOM     31  C   UNL     1      -8.720  -2.043   0.545  1.00  0.00     0.002 A 
ENDBRANCH  21  22
ENDBRANCH  19  21
ENDBRANCH  15  19
ENDBRANCH   1  15
TORSDOF 8
