REMARK SMILES CC(C)=C[C@H](O)C/C(C)=C1\CC[C@](C)(Br)[C@@H](Cl)C1
REMARK SMILES IDX 5 1 4 2 2 3 1 4 3 5 6 6 7 8 8 9 10 10 11 11 18 12 12 13
REMARK SMILES IDX 16 14 13 15 9 16 17 17 14 18 15 19
REMARK H PARENT 6 7
ROOT
ATOM      1  C   UNL     1       1.797  -0.398  -0.416  1.00  0.00     0.141 C 
ENDROOT
BRANCH   1   2
ATOM      2  C   UNL     1       2.974  -0.987   0.338  1.00  0.00     0.003 C 
ATOM      3  C   UNL     1       4.087  -0.290   0.658  1.00  0.00    -0.078 C 
ATOM      4  C   UNL     1       5.184  -0.992   1.415  1.00  0.00     0.039 C 
ATOM      5  C   UNL     1       4.256   1.165   0.283  1.00  0.00     0.039 C 
ENDBRANCH   1   2
BRANCH   1   6
ATOM      6  O   UNL     1       1.266   0.704   0.282  1.00  0.00    -0.389 OA
ATOM      7  H   UNL     1       1.033   0.397   1.197  1.00  0.00     0.211 HD
ENDBRANCH   1   6
BRANCH   1   8
ATOM      8  C   UNL     1       0.691  -1.448  -0.649  1.00  0.00     0.066 C 
BRANCH   8   9
ATOM      9  C   UNL     1      -0.483  -0.832  -1.403  1.00  0.00    -0.071 C 
ATOM     10  C   UNL     1      -1.699  -0.623  -0.811  1.00  0.00    -0.070 C 
ATOM     11  C   UNL     1      -1.956  -0.995   0.646  1.00  0.00     0.032 C 
ATOM     12  C   UNL     1      -2.863   0.051  -1.533  1.00  0.00     0.052 C 
ATOM     13  C   UNL     1      -3.358  -0.558   1.098  1.00  0.00     0.024 C 
ATOM     14  C   UNL     1      -3.285   1.292  -0.721  1.00  0.00     0.101 C 
ATOM     15  C   UNL     1      -3.609   0.946   0.795  1.00  0.00     0.040 C 
ATOM     16  C   UNL     1      -0.234  -0.430  -2.841  1.00  0.00     0.039 C 
ATOM     17  Cl  UNL     1      -2.012   2.549  -0.939  1.00  0.00    -0.121 Cl
ATOM     18  C   UNL     1      -2.825   1.822   1.797  1.00  0.00     0.025 C 
ATOM     19  Br  UNL     1      -5.501   1.282   1.138  1.00  0.00    -0.084 Br
ENDBRANCH   8   9
ENDBRANCH   1   8
TORSDOF 4
