REMARK SMILES CC1=NN(c2ccccc2)C(=O)/C1=C(\Br)[C@@H]1C(=O)N(c2ccccc2)N=C1C
REMARK SMILES IDX 1 1 2 2 3 3 4 4 11 5 12 6 13 7 14 8 15 9 5 10 6 11 10 12
REMARK SMILES IDX 7 13 9 14 8 15 16 16 17 17 27 18 18 19 19 20 26 21 28 22
REMARK SMILES IDX 20 23 21 24 25 25 22 26 24 27 23 28
REMARK H PARENT
ROOT
ATOM      1  C   UNL     1      -0.339   0.168   1.141  1.00  0.00     0.069 C 
ATOM      2  C   UNL     1       0.860   0.203   0.253  1.00  0.00     0.072 C 
ATOM      3  N   UNL     1       1.974   0.676   0.692  1.00  0.00    -0.169 NA
ATOM      4  N   UNL     1       2.961   0.635  -0.261  1.00  0.00    -0.196 N 
ATOM      5  C   UNL     1       2.446   0.124  -1.403  1.00  0.00     0.281 C 
ATOM      6  O   UNL     1       3.074  -0.043  -2.434  1.00  0.00    -0.267 OA
ATOM      7  C   UNL     1       1.032  -0.228  -1.166  1.00  0.00     0.076 C 
ATOM      8  C   UNL     1       0.199  -0.822  -2.080  1.00  0.00     0.028 C 
ATOM      9  Br  UNL     1       0.862  -1.210  -3.856  1.00  0.00    -0.053 Br
ENDROOT
BRANCH   4  10
ATOM     10  C   UNL     1       4.311   1.051   0.015  1.00  0.00     0.069 A 
ATOM     11  C   UNL     1       4.625   1.564   1.292  1.00  0.00     0.028 A 
ATOM     12  C   UNL     1       5.359   0.951  -0.933  1.00  0.00     0.028 A 
ATOM     13  C   UNL     1       5.927   1.959   1.610  1.00  0.00     0.002 A 
ATOM     14  C   UNL     1       6.659   1.348  -0.606  1.00  0.00     0.002 A 
ATOM     15  C   UNL     1       6.944   1.850   0.663  1.00  0.00     0.000 A 
ENDBRANCH   4  10
BRANCH   8  16
ATOM     16  C   UNL     1      -1.241  -1.298  -1.911  1.00  0.00     0.165 C 
ATOM     17  C   UNL     1      -2.274  -0.294  -1.514  1.00  0.00     0.261 C 
ATOM     18  C   UNL     1      -1.451  -2.292  -0.806  1.00  0.00     0.053 C 
ATOM     19  O   UNL     1      -2.519   0.731  -2.126  1.00  0.00    -0.271 OA
ATOM     20  N   UNL     1      -2.939  -0.735  -0.418  1.00  0.00    -0.200 N 
ATOM     21  N   UNL     1      -2.402  -1.932  -0.022  1.00  0.00    -0.174 NA
ATOM     22  C   UNL     1      -0.697  -3.573  -0.644  1.00  0.00     0.065 C 
BRANCH  20  23
ATOM     23  C   UNL     1      -4.061  -0.143   0.259  1.00  0.00     0.068 A 
ATOM     24  C   UNL     1      -4.756   0.981  -0.244  1.00  0.00     0.028 A 
ATOM     25  C   UNL     1      -4.512  -0.717   1.467  1.00  0.00     0.028 A 
ATOM     26  C   UNL     1      -5.860   1.501   0.442  1.00  0.00     0.002 A 
ATOM     27  C   UNL     1      -5.612  -0.188   2.148  1.00  0.00     0.002 A 
ATOM     28  C   UNL     1      -6.287   0.918   1.635  1.00  0.00     0.000 A 
ENDBRANCH  20  23
ENDBRANCH   8  16
TORSDOF 3
