REMARK SMILES C[C@@]12CCC[C@@](C)(C(=O)O[C@@H]3O[C@H](CO)[C@H](O)[C@@H](O)[C@@H]3O)[C@@H]1CC[C@]13CC[C@](O[C@@H]4O[C@H](CO)[C@@H](O)[C@H](O)[C@@H]4O[C@@H]4O[C@H](CO)[C@@H](O)[C@H](O)[C@@H]4O)(CC[C@H]12)C3
REMARK SMILES IDX 1 1 2 2 3 3 4 4 5 5 6 6 7 7 22 8 23 9 24 10 25 11 26 12
REMARK SMILES IDX 27 13 28 14 52 15 53 16 54 17 55 18 8 19 9 20 10 21 11 22
REMARK SMILES IDX 12 23 20 24 13 25 18 26 16 27 21 28 14 30 15 31 19 33 17 35
REMARK SMILES IDX 29 37 30 38 31 39 39 40 32 41 37 42 35 43 40 44 41 45 42 46
REMARK SMILES IDX 50 47 43 48 48 49 46 50 51 51 44 53 45 54 49 56 47 58 33 60
REMARK SMILES IDX 34 61 38 63 36 65
REMARK H PARENT 21 29 15 32 19 34 17 36 51 52 45 55 49 57 47 59 34 62 38 64
REMARK H PARENT 36 66
ROOT
ATOM      1  C   UNL     1       1.919   2.883   0.274  1.00  0.00     0.012 C 
ATOM      2  C   UNL     1       2.107   1.569  -0.549  1.00  0.00    -0.025 C 
ATOM      3  C   UNL     1       2.798   1.948  -1.887  1.00  0.00     0.007 C 
ATOM      4  C   UNL     1       4.255   2.420  -1.764  1.00  0.00     0.002 C 
ATOM      5  C   UNL     1       5.080   1.686  -0.685  1.00  0.00     0.019 C 
ATOM      6  C   UNL     1       4.525   0.314  -0.226  1.00  0.00     0.069 C 
ATOM      7  C   UNL     1       4.612  -0.761  -1.336  1.00  0.00     0.024 C 
ATOM      8  C   UNL     1       3.040   0.564   0.295  1.00  0.00     0.012 C 
ATOM      9  C   UNL     1       2.299  -0.713   0.791  1.00  0.00     0.006 C 
ATOM     10  C   UNL     1       0.983  -0.274   1.429  1.00  0.00     0.008 C 
ATOM     11  C   UNL     1      -0.012   0.167   0.336  1.00  0.00    -0.024 C 
ATOM     12  C   UNL     1      -0.834  -1.080  -0.173  1.00  0.00     0.010 C 
ATOM     13  C   UNL     1      -2.300  -0.641  -0.146  1.00  0.00     0.036 C 
ATOM     14  C   UNL     1      -2.208   0.884  -0.227  1.00  0.00     0.072 C 
ATOM     15  C   UNL     1      -1.719   1.320  -1.664  1.00  0.00     0.036 C 
ATOM     16  C   UNL     1      -0.280   1.838  -1.648  1.00  0.00     0.008 C 
ATOM     17  C   UNL     1       0.707   0.886  -0.891  1.00  0.00     0.002 C 
ATOM     18  C   UNL     1      -1.122   1.083   0.862  1.00  0.00     0.043 C 
ENDROOT
BRANCH   6  19
ATOM     19  C   UNL     1       5.433  -0.160   0.928  1.00  0.00     0.314 C 
ATOM     20  O   UNL     1       4.973  -0.270   2.057  1.00  0.00    -0.252 OA
BRANCH  19  21
ATOM     21  O   UNL     1       6.758  -0.422   0.720  1.00  0.00    -0.432 OA
BRANCH  21  22
ATOM     22  C   UNL     1       7.654  -0.716   1.746  1.00  0.00     0.342 C 
ATOM     23  O   UNL     1       8.711   0.239   1.789  1.00  0.00    -0.332 OA
ATOM     24  C   UNL     1       8.128  -2.186   1.727  1.00  0.00     0.214 C 
ATOM     25  C   UNL     1       9.773   0.031   0.851  1.00  0.00     0.179 C 
ATOM     26  C   UNL     1       9.192  -2.443   0.652  1.00  0.00     0.180 C 
ATOM     27  C   UNL     1      10.318  -1.418   0.873  1.00  0.00     0.177 C 
BRANCH  24  28
ATOM     28  O   UNL     1       7.047  -3.077   1.618  1.00  0.00    -0.384 OA
ATOM     29  H   UNL     1       6.676  -2.986   0.701  1.00  0.00     0.211 HD
ENDBRANCH  24  28
BRANCH  25  30
ATOM     30  C   UNL     1       9.461   0.622  -0.546  1.00  0.00     0.191 C 
BRANCH  30  31
ATOM     31  O   UNL     1       8.454  -0.076  -1.226  1.00  0.00    -0.394 OA
ATOM     32  H   UNL     1       8.885  -0.575  -1.968  1.00  0.00     0.210 HD
ENDBRANCH  30  31
ENDBRANCH  25  30
BRANCH  26  33
ATOM     33  O   UNL     1       9.684  -3.761   0.732  1.00  0.00    -0.387 OA
ATOM     34  H   UNL     1      10.075  -3.889   1.637  1.00  0.00     0.211 HD
ENDBRANCH  26  33
BRANCH  27  35
ATOM     35  O   UNL     1      11.387  -1.590  -0.024  1.00  0.00    -0.387 OA
ATOM     36  H   UNL     1      11.010  -1.675  -0.938  1.00  0.00     0.211 HD
ENDBRANCH  27  35
ENDBRANCH  21  22
ENDBRANCH  19  21
ENDBRANCH   6  19
BRANCH  14  37
ATOM     37  O   UNL     1      -3.374   1.567   0.202  1.00  0.00    -0.343 OA
BRANCH  37  38
ATOM     38  C   UNL     1      -4.518   1.382  -0.614  1.00  0.00     0.283 C 
ATOM     39  O   UNL     1      -4.864   2.633  -1.221  1.00  0.00    -0.341 OA
ATOM     40  C   UNL     1      -5.670   0.809   0.229  1.00  0.00     0.209 C 
ATOM     41  C   UNL     1      -5.852   3.412  -0.528  1.00  0.00     0.178 C 
ATOM     42  C   UNL     1      -6.018   1.751   1.407  1.00  0.00     0.180 C 
ATOM     43  C   UNL     1      -5.759   3.230   1.014  1.00  0.00     0.177 C 
BRANCH  40  44
ATOM     44  O   UNL     1      -5.379  -0.509   0.675  1.00  0.00    -0.338 OA
BRANCH  44  45
ATOM     45  C   UNL     1      -6.288  -1.475   0.167  1.00  0.00     0.282 C 
ATOM     46  O   UNL     1      -7.217  -1.810   1.187  1.00  0.00    -0.341 OA
ATOM     47  C   UNL     1      -5.507  -2.728  -0.281  1.00  0.00     0.202 C 
ATOM     48  C   UNL     1      -8.237  -2.660   0.679  1.00  0.00     0.178 C 
ATOM     49  C   UNL     1      -6.521  -3.757  -0.824  1.00  0.00     0.179 C 
ATOM     50  C   UNL     1      -7.634  -4.016   0.214  1.00  0.00     0.177 C 
BRANCH  47  51
ATOM     51  O   UNL     1      -4.718  -3.256   0.761  1.00  0.00    -0.385 OA
ATOM     52  H   UNL     1      -5.282  -3.362   1.568  1.00  0.00     0.211 HD
ENDBRANCH  47  51
BRANCH  48  53
ATOM     53  C   UNL     1      -9.279  -2.883   1.783  1.00  0.00     0.191 C 
BRANCH  53  54
ATOM     54  O   UNL     1      -9.836  -1.660   2.186  1.00  0.00    -0.394 OA
ATOM     55  H   UNL     1      -9.204  -1.260   2.839  1.00  0.00     0.210 HD
ENDBRANCH  53  54
ENDBRANCH  48  53
BRANCH  49  56
ATOM     56  O   UNL     1      -5.891  -4.944  -1.234  1.00  0.00    -0.387 OA
ATOM     57  H   UNL     1      -5.518  -5.382  -0.426  1.00  0.00     0.211 HD
ENDBRANCH  49  56
BRANCH  50  58
ATOM     58  O   UNL     1      -8.622  -4.863  -0.320  1.00  0.00    -0.387 OA
ATOM     59  H   UNL     1      -9.044  -4.386  -1.082  1.00  0.00     0.211 HD
ENDBRANCH  50  58
ENDBRANCH  44  45
ENDBRANCH  40  44
BRANCH  41  60
ATOM     60  C   UNL     1      -5.676   4.879  -0.941  1.00  0.00     0.191 C 
BRANCH  60  61
ATOM     61  O   UNL     1      -4.399   5.352  -0.601  1.00  0.00    -0.394 OA
ATOM     62  H   UNL     1      -4.482   5.794   0.284  1.00  0.00     0.210 HD
ENDBRANCH  60  61
ENDBRANCH  41  60
BRANCH  42  63
ATOM     63  O   UNL     1      -5.338   1.431   2.598  1.00  0.00    -0.387 OA
ATOM     64  H   UNL     1      -4.364   1.517   2.435  1.00  0.00     0.211 HD
ENDBRANCH  42  63
BRANCH  43  65
ATOM     65  O   UNL     1      -6.611   4.090   1.727  1.00  0.00    -0.387 OA
ATOM     66  H   UNL     1      -7.532   3.935   1.391  1.00  0.00     0.211 HD
ENDBRANCH  43  65
ENDBRANCH  37  38
ENDBRANCH  14  37
TORSDOF 21
