REMARK SMILES C[C@H]([C@H](O)C[C@H](O)C(C)(C)O)[C@H]1CC[C@@]2(O)C3=CC(=O)[C@@H]4C[C@@H](O)[C@@H](O)C[C@]4(C)[C@H]3CC[C@]12C
REMARK SMILES IDX 3 1 2 2 1 3 12 4 13 5 33 6 14 7 32 8 15 9 31 10 17 11 30 12
REMARK SMILES IDX 18 13 28 14 19 15 27 16 21 17 20 18 25 19 22 20 23 21 34 22
REMARK SMILES IDX 29 23 16 24 26 26 24 28 4 30 5 32 6 33 7 34 8 36 9 37 10 38
REMARK SMILES IDX 11 39
REMARK H PARENT 16 25 26 27 24 29 4 31 7 35 11 40
ROOT
ATOM      1  C   UNL     1       4.105  -0.216  -0.455  1.00  0.00     0.120 C 
ENDROOT
BRANCH   1   2
ATOM      2  C   UNL     1       2.683   0.436  -0.567  1.00  0.00     0.018 C 
ATOM      3  C   UNL     1       2.502   0.828  -2.050  1.00  0.00     0.011 C 
BRANCH   2   4
ATOM      4  C   UNL     1       1.469  -0.427  -0.034  1.00  0.00     0.004 C 
ATOM      5  C   UNL     1       1.540  -0.783   1.486  1.00  0.00     0.008 C 
ATOM      6  C   UNL     1       0.008   0.114  -0.187  1.00  0.00     0.003 C 
ATOM      7  C   UNL     1       0.093  -0.767   2.031  1.00  0.00     0.041 C 
ATOM      8  C   UNL     1      -0.645  -0.026  -1.598  1.00  0.00     0.011 C 
ATOM      9  C   UNL     1      -0.770  -0.845   0.771  1.00  0.00     0.092 C 
ATOM     10  C   UNL     1      -2.134   0.384  -1.574  1.00  0.00     0.009 C 
ATOM     11  C   UNL     1      -2.233  -0.395   0.798  1.00  0.00    -0.031 C 
ATOM     12  C   UNL     1      -2.964  -0.455  -0.561  1.00  0.00     0.025 C 
ATOM     13  C   UNL     1      -2.811   0.082   1.913  1.00  0.00     0.050 C 
ATOM     14  C   UNL     1      -4.527  -0.106  -0.499  1.00  0.00    -0.013 C 
ATOM     15  C   UNL     1      -4.153   0.667   1.879  1.00  0.00     0.159 C 
ATOM     16  C   UNL     1      -5.340  -1.368  -0.040  1.00  0.00     0.042 C 
ATOM     17  C   UNL     1      -4.782   1.032   0.537  1.00  0.00     0.070 C 
ATOM     18  O   UNL     1      -4.702   0.944   2.935  1.00  0.00    -0.295 OA
ATOM     19  C   UNL     1      -6.863  -1.106   0.148  1.00  0.00     0.143 C 
ATOM     20  C   UNL     1      -6.296   1.339   0.702  1.00  0.00     0.047 C 
ATOM     21  C   UNL     1      -7.075   0.067   1.136  1.00  0.00     0.143 C 
ATOM     22  C   UNL     1      -0.038   1.619   0.266  1.00  0.00     0.015 C 
ATOM     23  C   UNL     1      -4.996   0.331  -1.925  1.00  0.00     0.013 C 
BRANCH   9  24
ATOM     24  O   UNL     1      -0.720  -2.173   0.294  1.00  0.00    -0.385 OA
ATOM     25  H   UNL     1      -1.178  -2.747   0.965  1.00  0.00     0.211 HD
ENDBRANCH   9  24
BRANCH  19  26
ATOM     26  O   UNL     1      -7.474  -0.865  -1.094  1.00  0.00    -0.390 OA
ATOM     27  H   UNL     1      -8.447  -0.752  -0.942  1.00  0.00     0.211 HD
ENDBRANCH  19  26
BRANCH  21  28
ATOM     28  O   UNL     1      -8.444   0.331   1.333  1.00  0.00    -0.390 OA
ATOM     29  H   UNL     1      -8.752   0.950   0.622  1.00  0.00     0.211 HD
ENDBRANCH  21  28
ENDBRANCH   2   4
ENDBRANCH   1   2
BRANCH   1  30
ATOM     30  O   UNL     1       4.185  -1.418  -1.179  1.00  0.00    -0.393 OA
ATOM     31  H   UNL     1       3.704  -2.110  -0.656  1.00  0.00     0.210 HD
ENDBRANCH   1  30
BRANCH   1  32
ATOM     32  C   UNL     1       4.702  -0.365   0.957  1.00  0.00     0.066 C 
BRANCH  32  33
ATOM     33  C   UNL     1       6.171  -0.892   1.049  1.00  0.00     0.148 C 
BRANCH  33  34
ATOM     34  O   UNL     1       6.455  -1.095   2.414  1.00  0.00    -0.390 OA
ATOM     35  H   UNL     1       6.377  -0.223   2.879  1.00  0.00     0.211 HD
ENDBRANCH  33  34
BRANCH  33  36
ATOM     36  C   UNL     1       7.350  -0.072   0.388  1.00  0.00     0.085 C 
ATOM     37  C   UNL     1       7.278   1.436   0.732  1.00  0.00     0.044 C 
ATOM     38  C   UNL     1       7.419  -0.224  -1.149  1.00  0.00     0.044 C 
BRANCH  36  39
ATOM     39  O   UNL     1       8.570  -0.608   0.855  1.00  0.00    -0.388 OA
ATOM     40  H   UNL     1       8.730  -0.290   1.782  1.00  0.00     0.211 HD
ENDBRANCH  36  39
ENDBRANCH  33  36
ENDBRANCH  32  33
ENDBRANCH   1  32
TORSDOF 11
