REMARK SMILES COCCNC(=O)[C@@H](C)[C@H]1CC[C@]2(C)Cc3sc(-c4ccsc4)nc3[C@H](C)[C@@H]2[C@H]1O
REMARK SMILES IDX 5 1 6 2 7 3 4 5 3 6 2 7 1 8 8 9 9 10 10 11 11 12 29 13 12 14
REMARK SMILES IDX 28 15 13 16 26 17 15 18 25 19 16 20 24 21 17 22 18 23 14 24
REMARK SMILES IDX 27 25 30 26 19 28 23 29 20 30 22 31 21 32
REMARK H PARENT 5 4 30 27
ROOT
ATOM      1  N   UNL     1       5.009  -1.687   0.041  1.00  0.00    -0.354 N 
ATOM      2  C   UNL     1       3.943  -0.877   0.307  1.00  0.00     0.223 C 
ATOM      3  O   UNL     1       4.122   0.310   0.545  1.00  0.00    -0.275 OA
ATOM      4  H   UNL     1       4.843  -2.689  -0.138  1.00  0.00     0.163 HD
ENDROOT
BRANCH   1   5
ATOM      5  C   UNL     1       6.386  -1.227   0.030  1.00  0.00     0.144 C 
BRANCH   5   6
ATOM      6  C   UNL     1       6.644  -0.224  -1.106  1.00  0.00     0.181 C 
BRANCH   6   7
ATOM      7  O   UNL     1       8.016   0.113  -1.195  1.00  0.00    -0.383 OA
ATOM      8  C   UNL     1       8.363   1.066  -0.212  1.00  0.00     0.194 C 
ENDBRANCH   6   7
ENDBRANCH   5   6
ENDBRANCH   1   5
BRANCH   2   9
ATOM      9  C   UNL     1       2.542  -1.480   0.364  1.00  0.00     0.081 C 
ATOM     10  C   UNL     1       2.536  -2.420   1.597  1.00  0.00     0.018 C 
BRANCH   9  11
ATOM     11  C   UNL     1       1.378  -0.424   0.449  1.00  0.00     0.030 C 
ATOM     12  C   UNL     1       1.371   0.655  -0.665  1.00  0.00     0.007 C 
ATOM     13  C   UNL     1      -0.059  -1.050   0.615  1.00  0.00     0.122 C 
ATOM     14  C   UNL     1       0.350   1.734  -0.250  1.00  0.00     0.008 C 
ATOM     15  C   UNL     1      -1.242  -0.331  -0.127  1.00  0.00     0.033 C 
ATOM     16  C   UNL     1      -1.117   1.240  -0.369  1.00  0.00    -0.022 C 
ATOM     17  C   UNL     1      -2.672  -0.855   0.348  1.00  0.00     0.042 C 
ATOM     18  C   UNL     1      -2.029   2.007   0.622  1.00  0.00     0.055 C 
ATOM     19  C   UNL     1      -3.732   0.200   0.224  1.00  0.00     0.058 A 
ATOM     20  C   UNL     1      -3.432   1.538   0.393  1.00  0.00     0.029 A 
ATOM     21  N   UNL     1      -5.039  -0.068  -0.020  1.00  0.00    -0.240 NA
ATOM     22  S   UNL     1      -4.828   2.446   0.176  1.00  0.00    -0.119 S 
ATOM     23  C   UNL     1      -5.779   1.064  -0.072  1.00  0.00     0.124 A 
ATOM     24  C   UNL     1      -1.577   1.573  -1.830  1.00  0.00     0.012 C 
ATOM     25  C   UNL     1      -2.743  -1.338   1.811  1.00  0.00     0.015 C 
BRANCH  13  26
ATOM     26  O   UNL     1      -0.101  -2.412   0.254  1.00  0.00    -0.392 OA
ATOM     27  H   UNL     1       0.140  -2.481  -0.706  1.00  0.00     0.210 HD
ENDBRANCH  13  26
BRANCH  23  28
ATOM     28  C   UNL     1      -7.232   1.055  -0.311  1.00  0.00     0.021 A 
ATOM     29  C   UNL     1      -8.020   2.202  -0.344  1.00  0.00     0.076 A 
ATOM     30  C   UNL     1      -7.962  -0.126  -0.524  1.00  0.00     0.023 A 
ATOM     31  S   UNL     1      -9.609   1.741  -0.636  1.00  0.00    -0.152 S 
ATOM     32  C   UNL     1      -9.317   0.088  -0.725  1.00  0.00     0.065 A 
ENDBRANCH  23  28
ENDBRANCH   9  11
ENDBRANCH   2   9
TORSDOF 7
