REMARK SMILES COCCCO[C@H]1CC[C@@]2(C)[C@@H](C1)C(=O)C1=C3[C@@]24C#CC[C@@H]2CN2C(=O)[C@]25CC#C[C@@]6(C[C@H](CC1)[C@]3(O)[C@]6(C)CC4)[C@](C)(O)C(O)(O)[C@H]1O[C@H]([C@H](C2)[C@H]1CO)[C@@H](O)N5
REMARK SMILES IDX 7 1 8 2 9 3 10 4 11 5 12 6 13 7 14 8 15 9 16 10 17 11 18 12
REMARK SMILES IDX 19 13 30 14 31 15 32 16 33 17 34 18 35 19 36 20 38 21 39 22
REMARK SMILES IDX 40 23 41 24 6 25 5 26 4 27 3 28 2 29 1 30 20 31 21 32 22 33
REMARK SMILES IDX 23 34 24 35 25 36 26 37 37 39 42 41 43 42 44 43 45 45 46 47
REMARK SMILES IDX 47 49 29 51 28 52 27 53 58 54 52 55 56 56 51 57 50 58 53 59
REMARK SMILES IDX 49 60 48 61 57 65 54 67 55 68
REMARK H PARENT 37 40 44 44 46 48 47 50 58 62 57 66 55 69
REMARK Flexibility Score:   40.800
ROOT
ATOM      1  C   UNL     1       5.377  -0.623  -2.402  1.00  0.00     0.119 C 
ATOM      2  C   UNL     1       4.606   0.658  -2.711  1.00  0.00     0.033 C 
ATOM      3  C   UNL     1       3.284   0.664  -1.928  1.00  0.00     0.012 C 
ATOM      4  C   UNL     1       2.347  -0.570  -2.245  1.00  0.00    -0.002 C 
ATOM      5  C   UNL     1       1.948  -0.482  -3.753  1.00  0.00     0.014 C 
ATOM      6  C   UNL     1       3.181  -1.867  -1.975  1.00  0.00     0.071 C 
ATOM      7  C   UNL     1       4.529  -1.867  -2.755  1.00  0.00     0.044 C 
ATOM      8  C   UNL     1       3.426  -2.050  -0.478  1.00  0.00     0.162 C 
ATOM      9  O   UNL     1       4.519  -2.397  -0.051  1.00  0.00    -0.294 OA
ATOM     10  C   UNL     1       2.304  -1.907   0.461  1.00  0.00    -0.001 C 
ATOM     11  C   UNL     1       1.167  -1.315   0.027  1.00  0.00    -0.013 C 
ATOM     12  C   UNL     1       1.002  -0.565  -1.338  1.00  0.00     0.062 C 
ATOM     13  C   UNL     1       0.662   0.887  -1.104  1.00  0.00    -0.091 C 
ATOM     14  C   UNL     1      -2.635  -0.207   1.476  1.00  0.00    -0.092 C 
ATOM     15  C   UNL     1      -2.425  -1.656   1.498  1.00  0.00     0.074 C 
ATOM     16  C   UNL     1      -1.435  -2.033   2.723  1.00  0.00     0.031 C 
ATOM     17  C   UNL     1       0.008  -2.205   2.139  1.00  0.00     0.028 C 
ATOM     18  C   UNL     1       1.317  -2.022   2.891  1.00  0.00     0.012 C 
ATOM     19  C   UNL     1       2.459  -2.434   1.908  1.00  0.00     0.040 C 
ATOM     20  C   UNL     1      -0.035  -1.304   0.924  1.00  0.00     0.098 C 
ATOM     21  C   UNL     1      -1.382  -1.866   0.256  1.00  0.00     0.020 C 
ATOM     22  C   UNL     1      -1.340  -3.395  -0.131  1.00  0.00     0.016 C 
ATOM     23  C   UNL     1      -1.542  -1.135  -1.127  1.00  0.00     0.014 C 
ATOM     24  C   UNL     1      -0.255  -1.215  -2.013  1.00  0.00     0.026 C 
ENDROOT
BRANCH   1  25
ATOM     25  O   UNL     1       6.588  -0.663  -3.140  1.00  0.00    -0.378 OA
BRANCH  25  26
ATOM     26  C   UNL     1       7.671  -0.166  -2.375  1.00  0.00     0.163 C 
BRANCH  26  27
ATOM     27  C   UNL     1       8.199  -1.236  -1.402  1.00  0.00     0.057 C 
BRANCH  27  28
ATOM     28  C   UNL     1       9.398  -0.729  -0.603  1.00  0.00     0.162 C 
BRANCH  28  29
ATOM     29  O   UNL     1       9.015   0.402   0.152  1.00  0.00    -0.385 OA
ATOM     30  C   UNL     1      10.134   0.888   0.857  1.00  0.00     0.194 C 
ENDBRANCH  28  29
ENDBRANCH  27  28
ENDBRANCH  26  27
ENDBRANCH  25  26
ENDBRANCH   1  25
BRANCH  13  31
ATOM     31  C   UNL     1       0.468   2.069  -0.874  1.00  0.00    -0.100 C 
ATOM     32  C   UNL     1       0.269   3.518  -0.613  1.00  0.00     0.116 C 
BRANCH  32  33
ATOM     33  C   UNL     1      -1.037   3.992  -1.277  1.00  0.00     0.116 C 
ATOM     34  C   UNL     1      -1.176   5.773  -1.092  1.00  0.00     0.146 C 
ATOM     35  N   UNL     1      -1.872   4.771  -0.581  1.00  0.00    -0.333 N 
BRANCH  35  36
ATOM     36  C   UNL     1      -2.976   4.672   0.247  1.00  0.00     0.244 CG0
ATOM     37  O   UNL     1      -3.533   5.704   0.594  1.00  0.00    -0.273 OA
ATOM     38  G   UNL     1      -3.545   3.330   0.780  1.00  0.00     0.000 G0
ENDBRANCH  35  36
ENDBRANCH  32  33
ENDBRANCH  13  31
BRANCH  20  39
ATOM     39  O   UNL     1      -0.087   0.057   1.306  1.00  0.00    -0.385 OA
ATOM     40  H   UNL     1      -0.043   0.198   2.286  1.00  0.00     0.211 HD
ENDBRANCH  20  39
BRANCH  15  41
ATOM     41  C   UNL     1      -3.914  -2.338   1.633  1.00  0.00     0.135 C 
ATOM     42  C   UNL     1      -4.404  -2.256   3.117  1.00  0.00     0.050 C 
BRANCH  41  43
ATOM     43  O   UNL     1      -3.760  -3.706   1.319  1.00  0.00    -0.383 OA
ATOM     44  H   UNL     1      -3.261  -4.164   2.044  1.00  0.00     0.211 HD
ENDBRANCH  41  43
BRANCH  41  45
ATOM     45  C   UNL     1      -5.137  -1.817   0.670  1.00  0.00     0.221 CG1
ATOM     46  G   UNL     1      -6.090  -0.512   1.009  1.00  0.00     0.000 G1
BRANCH  45  47
ATOM     47  O   UNL     1      -6.050  -2.893   0.570  1.00  0.00    -0.361 OA
ATOM     48  H   UNL     1      -6.495  -3.035   1.442  1.00  0.00     0.214 HD
ENDBRANCH  45  47
BRANCH  45  49
ATOM     49  O   UNL     1      -4.621  -1.723  -0.614  1.00  0.00    -0.361 OA
ATOM     50  H   UNL     1      -4.021  -0.953  -0.603  1.00  0.00     0.214 HD
ENDBRANCH  45  49
ENDBRANCH  41  45
ENDBRANCH  15  41
BRANCH  14  51
ATOM     51  C   UNL     1      -2.463   0.959   1.240  1.00  0.00    -0.100 C 
ATOM     52  C   UNL     1      -2.352   2.327   0.772  1.00  0.00     0.122 C 
BRANCH  52  53
ATOM     53  C   UNL     1      -3.545   3.330   0.780  1.00  0.00     0.111 CG0
ATOM     54  N   UNL     1      -4.008   3.518   2.182  1.00  0.00    -0.275 NA
ATOM     55  C   UNL     1      -4.801   2.918  -0.085  1.00  0.00     0.040 C 
ATOM     56  C   UNL     1      -4.587   2.317   2.846  1.00  0.00     0.212 C 
ATOM     57  C   UNL     1      -5.215   1.531   0.384  1.00  0.00     0.033 C 
ATOM     58  C   UNL     1      -5.529   1.526   1.885  1.00  0.00     0.166 C 
ATOM     59  C   UNL     1      -6.345   0.641  -0.049  1.00  0.00     0.055 C 
ATOM     60  O   UNL     1      -5.729   0.161   2.224  1.00  0.00    -0.364 OA
ATOM     61  C   UNL     1      -6.090  -0.512   1.009  1.00  0.00     0.187 CG1
ATOM     62  H   UNL     1      -3.261   3.949   2.777  1.00  0.00     0.126 HD
ATOM     63  G   UNL     1      -2.976   4.672   0.247  1.00  0.00     0.000 G0
ATOM     64  G   UNL     1      -5.137  -1.817   0.670  1.00  0.00     0.000 G1
BRANCH  56  65
ATOM     65  O   UNL     1      -3.607   1.508   3.442  1.00  0.00    -0.376 OA
ATOM     66  H   UNL     1      -3.037   2.090   4.009  1.00  0.00     0.212 HD
ENDBRANCH  56  65
BRANCH  59  67
ATOM     67  C   UNL     1      -6.578   0.376  -1.555  1.00  0.00     0.162 C 
BRANCH  67  68
ATOM     68  O   UNL     1      -5.439  -0.022  -2.263  1.00  0.00    -0.396 OA
ATOM     69  H   UNL     1      -4.924   0.801  -2.469  1.00  0.00     0.210 HD
ENDBRANCH  67  68
ENDBRANCH  59  67
ENDBRANCH  52  53
ENDBRANCH  14  51
TORSDOF 12
