REMARK SMILES C=CCCC=CCCCCCCC
REMARK SMILES IDX 8 1 7 2 6 3 5 4 4 5 3 6 2 7 1 8 9 9 10 10 11 11 12 12 13 13
REMARK H PARENT
ROOT
ATOM      1  C   UNL     1      -0.823   0.140  -0.128  1.00  0.00     0.004 C 
ENDROOT
BRANCH   1   2
ATOM      2  C   UNL     1      -0.045  -1.036  -0.738  1.00  0.00     0.027 C 
BRANCH   2   3
ATOM      3  C   UNL     1       1.269  -1.292  -0.034  1.00  0.00    -0.031 C 
ATOM      4  C   UNL     1       2.505  -1.210  -0.564  1.00  0.00    -0.031 C 
BRANCH   4   5
ATOM      5  C   UNL     1       2.868  -0.826  -1.984  1.00  0.00     0.031 C 
BRANCH   5   6
ATOM      6  C   UNL     1       3.729   0.442  -2.004  1.00  0.00     0.031 C 
BRANCH   6   7
ATOM      7  C   UNL     1       5.026   0.248  -1.264  1.00  0.00    -0.034 C 
ATOM      8  C   UNL     1       5.353   0.993  -0.204  1.00  0.00     0.004 C 
ENDBRANCH   6   7
ENDBRANCH   5   6
ENDBRANCH   4   5
ENDBRANCH   2   3
ENDBRANCH   1   2
BRANCH   1   9
ATOM      9  C   UNL     1      -1.168  -0.060   1.360  1.00  0.00     0.000 C 
BRANCH   9  10
ATOM     10  C   UNL     1      -2.014   1.085   1.938  1.00  0.00     0.000 C 
BRANCH  10  11
ATOM     11  C   UNL     1      -3.371   1.397   1.263  1.00  0.00    -0.000 C 
BRANCH  11  12
ATOM     12  C   UNL     1      -4.489   0.339   1.377  1.00  0.00    -0.003 C 
ATOM     13  C   UNL     1      -4.349  -0.878   0.458  1.00  0.00     0.004 C 
ENDBRANCH  11  12
ENDBRANCH  10  11
ENDBRANCH   9  10
ENDBRANCH   1   9
TORSDOF 9
