REMARK SMILES CC[C@@H](C)[C@@H](C(=O)N1CCC[C@H]1c1nccs1)N(C)C(=O)[C@H](CC(C)C)N(C)C(=O)[C@H](Cc1ccc(O)cc1)N(C)C(=O)/C=C(\C)OC
REMARK SMILES IDX 27 1 28 2 22 3 20 4 21 5 18 6 19 7 5 8 3 9 4 10 2 11 1 12
REMARK SMILES IDX 6 13 7 14 8 15 9 16 12 17 10 18 11 19 13 20 14 21 17 22
REMARK SMILES IDX 15 23 16 24 23 25 24 26 25 27 26 28 29 29 30 30 31 31 32 32
REMARK SMILES IDX 33 33 34 34 39 35 35 36 38 37 36 38 37 39 40 41 41 42 42 43
REMARK SMILES IDX 43 44 44 45 45 46 46 47 47 48 48 49
REMARK H PARENT 37 40
ROOT
ATOM      1  N   UNL     1      -1.289  -0.038  -0.297  1.00  0.00    -0.332 N 
ATOM      2  C   UNL     1      -2.177  -0.375  -1.396  1.00  0.00     0.147 C 
ENDROOT
BRANCH   1   3
ATOM      3  C   UNL     1       0.002  -0.769  -0.148  1.00  0.00     0.174 C 
BRANCH   3   4
ATOM      4  C   UNL     1       0.991  -0.523  -1.307  1.00  0.00     0.245 C 
ATOM      5  O   UNL     1       0.521  -0.070  -2.344  1.00  0.00    -0.272 OA
BRANCH   4   6
ATOM      6  N   UNL     1       2.364  -0.770  -1.248  1.00  0.00    -0.332 N 
ATOM      7  C   UNL     1       3.094  -0.617  -2.497  1.00  0.00     0.147 C 
BRANCH   6   8
ATOM      8  C   UNL     1       3.069  -1.131   0.013  1.00  0.00     0.177 C 
BRANCH   8   9
ATOM      9  C   UNL     1       3.625  -2.614   0.117  1.00  0.00     0.018 C 
ATOM     10  C   UNL     1       3.740  -3.004   1.616  1.00  0.00     0.010 C 
BRANCH   9  11
ATOM     11  C   UNL     1       4.952  -2.957  -0.599  1.00  0.00     0.002 C 
ATOM     12  C   UNL     1       5.277  -4.454  -0.629  1.00  0.00     0.004 C 
ENDBRANCH   9  11
ENDBRANCH   8   9
BRANCH   8  13
ATOM     13  C   UNL     1       3.877   0.038   0.665  1.00  0.00     0.246 C 
ATOM     14  O   UNL     1       3.418   0.429   1.733  1.00  0.00    -0.272 OA
BRANCH  13  15
ATOM     15  N   UNL     1       5.032   0.663   0.217  1.00  0.00    -0.331 N 
ATOM     16  C   UNL     1       5.816   0.378  -0.977  1.00  0.00     0.120 C 
ATOM     17  C   UNL     1       5.763   1.600   1.065  1.00  0.00     0.145 C 
ATOM     18  C   UNL     1       7.135   1.128  -0.786  1.00  0.00     0.024 C 
ATOM     19  C   UNL     1       7.211   1.260   0.730  1.00  0.00     0.034 C 
BRANCH  17  20
ATOM     20  C   UNL     1       5.383   3.035   0.726  1.00  0.00     0.115 A 
ATOM     21  N   UNL     1       4.111   3.493   0.766  1.00  0.00    -0.247 NA
ATOM     22  S   UNL     1       6.439   4.272   0.255  1.00  0.00    -0.125 S 
ATOM     23  C   UNL     1       4.021   4.802   0.402  1.00  0.00     0.123 A 
ATOM     24  C   UNL     1       5.225   5.413   0.076  1.00  0.00     0.087 A 
ENDBRANCH  17  20
ENDBRANCH  13  15
ENDBRANCH   8  13
ENDBRANCH   6   8
ENDBRANCH   4   6
ENDBRANCH   3   4
BRANCH   3  25
ATOM     25  C   UNL     1      -0.206  -2.288   0.212  1.00  0.00     0.038 C 
BRANCH  25  26
ATOM     26  C   UNL     1      -0.803  -3.300  -0.815  1.00  0.00    -0.015 C 
ATOM     27  C   UNL     1       0.044  -3.455  -2.090  1.00  0.00     0.007 C 
ATOM     28  C   UNL     1      -0.920  -4.682  -0.148  1.00  0.00     0.007 C 
ENDBRANCH  25  26
ENDBRANCH   3  25
ENDBRANCH   1   3
BRANCH   1  29
ATOM     29  C   UNL     1      -1.594   0.986   0.600  1.00  0.00     0.246 C 
ATOM     30  O   UNL     1      -0.752   1.304   1.430  1.00  0.00    -0.272 OA
BRANCH  29  31
ATOM     31  C   UNL     1      -2.844   1.891   0.658  1.00  0.00     0.179 C 
BRANCH  31  32
ATOM     32  C   UNL     1      -3.346   2.147   2.119  1.00  0.00     0.070 C 
BRANCH  32  33
ATOM     33  C   UNL     1      -3.792   0.949   2.937  1.00  0.00    -0.045 A 
ATOM     34  C   UNL     1      -5.149   0.788   3.271  1.00  0.00     0.007 A 
ATOM     35  C   UNL     1      -2.863   0.005   3.415  1.00  0.00     0.007 A 
ATOM     36  C   UNL     1      -5.567  -0.299   4.045  1.00  0.00     0.046 A 
ATOM     37  C   UNL     1      -3.280  -1.073   4.198  1.00  0.00     0.046 A 
ATOM     38  C   UNL     1      -4.632  -1.234   4.512  1.00  0.00     0.115 A 
BRANCH  38  39
ATOM     39  O   UNL     1      -5.017  -2.279   5.270  1.00  0.00    -0.508 OA
ATOM     40  H   UNL     1      -5.942  -2.425   5.513  1.00  0.00     0.293 HD
ENDBRANCH  38  39
ENDBRANCH  32  33
ENDBRANCH  31  32
BRANCH  31  41
ATOM     41  N   UNL     1      -4.001   1.647  -0.237  1.00  0.00    -0.330 N 
ATOM     42  C   UNL     1      -4.893   0.516   0.005  1.00  0.00     0.148 C 
BRANCH  41  43
ATOM     43  C   UNL     1      -4.324   2.588  -1.205  1.00  0.00     0.250 C 
ATOM     44  O   UNL     1      -3.571   3.525  -1.397  1.00  0.00    -0.270 OA
BRANCH  43  45
ATOM     45  C   UNL     1      -5.613   2.532  -1.990  1.00  0.00     0.112 C 
ATOM     46  C   UNL     1      -6.018   3.362  -3.003  1.00  0.00     0.098 C 
ATOM     47  C   UNL     1      -5.201   4.482  -3.605  1.00  0.00     0.087 C 
BRANCH  46  48
ATOM     48  O   UNL     1      -7.255   3.236  -3.567  1.00  0.00    -0.501 OA
ATOM     49  C   UNL     1      -8.373   2.653  -3.005  1.00  0.00     0.278 C 
ENDBRANCH  46  48
ENDBRANCH  43  45
ENDBRANCH  41  43
ENDBRANCH  31  41
ENDBRANCH  29  31
ENDBRANCH   1  29
TORSDOF 20
