REMARK SMILES CC[C@@H]1CN(C(=O)c2ccc3c(c2)OCO3)[C@H](CO)[C@@H]1CN1CCC[C@@H]1COC
REMARK SMILES IDX 21 1 20 2 3 3 4 4 5 5 17 6 2 7 1 8 6 9 7 10 8 11 9 12 13 13
REMARK SMILES IDX 10 14 12 15 11 16 14 17 16 18 15 19 18 20 19 21 22 23 23 24
REMARK SMILES IDX 26 25 24 26 25 27 27 28 28 29 29 30
REMARK H PARENT 19 22
ROOT
ATOM      1  C   UNL     1      -2.001  -0.379  -0.644  1.00  0.00     0.091 C 
ENDROOT
BRANCH   1   2
ATOM      2  C   UNL     1      -0.545  -0.448  -0.101  1.00  0.00     0.033 C 
ATOM      3  C   UNL     1       0.181   0.755   0.578  1.00  0.00     0.015 C 
ATOM      4  C   UNL     1       1.542   0.089   0.815  1.00  0.00     0.124 C 
ATOM      5  N   UNL     1       1.788  -0.683  -0.395  1.00  0.00    -0.333 N 
ATOM      6  C   UNL     1       0.522  -0.991  -1.086  1.00  0.00     0.115 C 
BRANCH   3   7
ATOM      7  C   UNL     1       0.498   2.072  -0.215  1.00  0.00     0.002 C 
ATOM      8  C   UNL     1      -0.668   2.951  -0.634  1.00  0.00     0.004 C 
ENDBRANCH   3   7
BRANCH   5   9
ATOM      9  C   UNL     1       3.031  -1.092  -0.831  1.00  0.00     0.254 C 
ATOM     10  O   UNL     1       3.113  -1.724  -1.872  1.00  0.00    -0.269 OA
BRANCH   9  11
ATOM     11  C   UNL     1       4.334  -0.778  -0.141  1.00  0.00     0.043 A 
ATOM     12  C   UNL     1       4.476  -0.599   1.269  1.00  0.00     0.018 A 
ATOM     13  C   UNL     1       5.498  -0.667  -0.948  1.00  0.00     0.064 A 
ATOM     14  C   UNL     1       5.726  -0.293   1.839  1.00  0.00     0.051 A 
ATOM     15  C   UNL     1       6.707  -0.349  -0.339  1.00  0.00     0.166 A 
ATOM     16  C   UNL     1       6.815  -0.168   0.989  1.00  0.00     0.165 A 
ATOM     17  O   UNL     1       7.902  -0.168  -0.908  1.00  0.00    -0.454 OA
ATOM     18  O   UNL     1       8.080   0.129   1.295  1.00  0.00    -0.454 OA
ATOM     19  C   UNL     1       8.805   0.146   0.106  1.00  0.00     0.468 C 
ENDBRANCH   9  11
ENDBRANCH   5   9
BRANCH   6  20
ATOM     20  C   UNL     1       0.370  -0.397  -2.526  1.00  0.00     0.181 C 
BRANCH  20  21
ATOM     21  O   UNL     1       1.301  -0.922  -3.430  1.00  0.00    -0.394 OA
ATOM     22  H   UNL     1       1.959  -0.204  -3.622  1.00  0.00     0.210 HD
ENDBRANCH  20  21
ENDBRANCH   6  20
ENDBRANCH   1   2
BRANCH   1  23
ATOM     23  N   UNL     1      -3.040  -0.307   0.415  1.00  0.00    -0.298 NA
ATOM     24  C   UNL     1      -3.096   1.004   1.098  1.00  0.00     0.085 C 
ATOM     25  C   UNL     1      -4.401  -0.517  -0.143  1.00  0.00     0.082 C 
ATOM     26  C   UNL     1      -4.564   1.333   1.297  1.00  0.00     0.017 C 
ATOM     27  C   UNL     1      -5.120   0.829  -0.009  1.00  0.00     0.023 C 
BRANCH  25  28
ATOM     28  C   UNL     1      -5.106  -1.637   0.650  1.00  0.00     0.178 C 
BRANCH  28  29
ATOM     29  O   UNL     1      -6.421  -1.798   0.154  1.00  0.00    -0.383 OA
ATOM     30  C   UNL     1      -7.215  -2.466   1.107  1.00  0.00     0.194 C 
ENDBRANCH  28  29
ENDBRANCH  25  28
ENDBRANCH   1  23
TORSDOF 9
