REMARK SMILES CCCCCCCCCCCCCCCCCC(=O)OC[C@H](COC(=O)CCCCCCCCCCCCCCCCCC(C)C)OC(=O)CCCCCCC
REMARK SMILES IDX 23 1 22 2 21 3 20 4 18 5 19 6 17 7 16 8 15 9 14 10 13 11
REMARK SMILES IDX 12 12 11 13 10 14 9 15 8 16 7 17 6 18 5 19 4 20 3 21 2 22
REMARK SMILES IDX 1 23 47 24 48 25 49 26 50 27 51 28 52 29 53 30 54 31 55 32
REMARK SMILES IDX 56 33 24 34 25 35 26 36 27 37 28 38 29 39 30 40 31 41 32 42
REMARK SMILES IDX 33 43 34 44 35 45 36 46 37 47 38 48 39 49 40 50 41 51 42 52
REMARK SMILES IDX 43 53 44 54 45 55 46 56
REMARK H PARENT
ROOT
ATOM      1  C   UNL     1      -0.211  -2.606   2.706  1.00  0.00     0.281 C 
ENDROOT
BRANCH   1   2
ATOM      2  C   UNL     1       0.485  -2.575   1.335  1.00  0.00     0.251 C 
BRANCH   2   3
ATOM      3  C   UNL     1       0.601  -1.151   0.782  1.00  0.00     0.281 C 
BRANCH   3   4
ATOM      4  O   UNL     1       1.317  -1.181  -0.399  1.00  0.00    -0.462 OA
BRANCH   4   5
ATOM      5  C   UNL     1       2.630  -0.858  -0.496  1.00  0.00     0.305 C 
ATOM      6  O   UNL     1       3.255  -0.495   0.492  1.00  0.00    -0.252 OA
BRANCH   5   7
ATOM      7  C   UNL     1       3.310  -0.994  -1.833  1.00  0.00     0.123 C 
BRANCH   7   8
ATOM      8  C   UNL     1       4.829  -0.773  -1.776  1.00  0.00     0.012 C 
BRANCH   8   9
ATOM      9  C   UNL     1       5.546  -1.903  -1.002  1.00  0.00     0.001 C 
BRANCH   9  10
ATOM     10  C   UNL     1       7.048  -1.680  -0.751  1.00  0.00     0.000 C 
BRANCH  10  11
ATOM     11  C   UNL     1       8.017  -1.906  -1.930  1.00  0.00     0.000 C 
BRANCH  11  12
ATOM     12  C   UNL     1       7.928  -0.943  -3.128  1.00  0.00     0.000 C 
BRANCH  12  13
ATOM     13  C   UNL     1       7.991   0.554  -2.766  1.00  0.00     0.000 C 
BRANCH  13  14
ATOM     14  C   UNL     1       9.284   0.928  -2.038  1.00  0.00     0.000 C 
BRANCH  14  15
ATOM     15  C   UNL     1       9.357   2.438  -1.760  1.00  0.00     0.000 C 
BRANCH  15  16
ATOM     16  C   UNL     1      10.602   2.840  -0.949  1.00  0.00    -0.000 C 
BRANCH  16  17
ATOM     17  C   UNL     1      11.924   2.518  -1.679  1.00  0.00    -0.000 C 
BRANCH  17  18
ATOM     18  C   UNL     1      13.207   2.779  -0.871  1.00  0.00    -0.000 C 
BRANCH  18  19
ATOM     19  C   UNL     1      13.735   4.223  -0.788  1.00  0.00    -0.000 C 
BRANCH  19  20
ATOM     20  C   UNL     1      12.881   5.205   0.024  1.00  0.00    -0.000 C 
BRANCH  20  21
ATOM     21  C   UNL     1      13.561   6.577   0.214  1.00  0.00    -0.000 C 
BRANCH  21  22
ATOM     22  C   UNL     1      14.899   6.554   0.981  1.00  0.00    -0.003 C 
ATOM     23  C   UNL     1      14.773   5.978   2.391  1.00  0.00     0.004 C 
ENDBRANCH  21  22
ENDBRANCH  20  21
ENDBRANCH  19  20
ENDBRANCH  18  19
ENDBRANCH  17  18
ENDBRANCH  16  17
ENDBRANCH  15  16
ENDBRANCH  14  15
ENDBRANCH  13  14
ENDBRANCH  12  13
ENDBRANCH  11  12
ENDBRANCH  10  11
ENDBRANCH   9  10
ENDBRANCH   8   9
ENDBRANCH   7   8
ENDBRANCH   5   7
ENDBRANCH   4   5
ENDBRANCH   3   4
ENDBRANCH   2   3
BRANCH   2  24
ATOM     24  O   UNL     1       1.754  -3.112   1.493  1.00  0.00    -0.455 OA
BRANCH  24  25
ATOM     25  C   UNL     1       2.200  -4.242   0.885  1.00  0.00     0.306 C 
ATOM     26  O   UNL     1       1.502  -4.822   0.063  1.00  0.00    -0.252 OA
BRANCH  25  27
ATOM     27  C   UNL     1       3.562  -4.776   1.253  1.00  0.00     0.123 C 
BRANCH  27  28
ATOM     28  C   UNL     1       3.885  -6.142   0.620  1.00  0.00     0.012 C 
BRANCH  28  29
ATOM     29  C   UNL     1       2.976  -7.253   1.179  1.00  0.00     0.001 C 
BRANCH  29  30
ATOM     30  C   UNL     1       3.270  -8.604   0.521  1.00  0.00     0.000 C 
BRANCH  30  31
ATOM     31  C   UNL     1       2.343  -9.687   1.086  1.00  0.00    -0.000 C 
BRANCH  31  32
ATOM     32  C   UNL     1       2.597 -11.038   0.411  1.00  0.00    -0.003 C 
ATOM     33  C   UNL     1       1.670 -12.112   0.972  1.00  0.00     0.004 C 
ENDBRANCH  31  32
ENDBRANCH  30  31
ENDBRANCH  29  30
ENDBRANCH  28  29
ENDBRANCH  27  28
ENDBRANCH  25  27
ENDBRANCH  24  25
ENDBRANCH   2  24
ENDBRANCH   1   2
BRANCH   1  34
ATOM     34  O   UNL     1      -1.488  -2.084   2.654  1.00  0.00    -0.462 OA
BRANCH  34  35
ATOM     35  C   UNL     1      -2.530  -2.621   1.969  1.00  0.00     0.305 C 
ATOM     36  O   UNL     1      -2.418  -3.706   1.410  1.00  0.00    -0.252 OA
BRANCH  35  37
ATOM     37  C   UNL     1      -3.852  -1.904   1.898  1.00  0.00     0.123 C 
BRANCH  37  38
ATOM     38  C   UNL     1      -3.889  -0.570   2.688  1.00  0.00     0.012 C 
BRANCH  38  39
ATOM     39  C   UNL     1      -2.975   0.537   2.125  1.00  0.00     0.001 C 
BRANCH  39  40
ATOM     40  C   UNL     1      -3.532   1.475   1.029  1.00  0.00     0.000 C 
BRANCH  40  41
ATOM     41  C   UNL     1      -4.152   0.861  -0.246  1.00  0.00     0.000 C 
BRANCH  41  42
ATOM     42  C   UNL     1      -5.607   0.345  -0.110  1.00  0.00     0.000 C 
BRANCH  42  43
ATOM     43  C   UNL     1      -6.601   1.438   0.304  1.00  0.00     0.000 C 
BRANCH  43  44
ATOM     44  C   UNL     1      -8.015   0.871   0.449  1.00  0.00     0.000 C 
BRANCH  44  45
ATOM     45  C   UNL     1      -8.968   1.959   0.953  1.00  0.00     0.000 C 
BRANCH  45  46
ATOM     46  C   UNL     1     -10.366   1.395   1.214  1.00  0.00     0.000 C 
BRANCH  46  47
ATOM     47  C   UNL     1     -11.287   2.491   1.763  1.00  0.00     0.000 C 
BRANCH  47  48
ATOM     48  C   UNL     1     -12.672   1.964   2.166  1.00  0.00     0.000 C 
BRANCH  48  49
ATOM     49  C   UNL     1     -13.496   1.346   1.021  1.00  0.00     0.000 C 
BRANCH  49  50
ATOM     50  C   UNL     1     -13.788   2.289  -0.162  1.00  0.00     0.000 C 
BRANCH  50  51
ATOM     51  C   UNL     1     -14.547   3.555   0.267  1.00  0.00     0.000 C 
BRANCH  51  52
ATOM     52  C   UNL     1     -15.162   4.394  -0.872  1.00  0.00     0.000 C 
BRANCH  52  53
ATOM     53  C   UNL     1     -14.214   5.172  -1.814  1.00  0.00     0.003 C 
BRANCH  53  54
ATOM     54  C   UNL     1     -13.395   4.367  -2.855  1.00  0.00    -0.017 C 
ATOM     55  C   UNL     1     -14.289   3.485  -3.740  1.00  0.00     0.007 C 
ATOM     56  C   UNL     1     -12.604   5.341  -3.741  1.00  0.00     0.007 C 
ENDBRANCH  53  54
ENDBRANCH  52  53
ENDBRANCH  51  52
ENDBRANCH  50  51
ENDBRANCH  49  50
ENDBRANCH  48  49
ENDBRANCH  47  48
ENDBRANCH  46  47
ENDBRANCH  45  46
ENDBRANCH  44  45
ENDBRANCH  43  44
ENDBRANCH  42  43
ENDBRANCH  41  42
ENDBRANCH  40  41
ENDBRANCH  39  40
ENDBRANCH  38  39
ENDBRANCH  37  38
ENDBRANCH  35  37
ENDBRANCH  34  35
ENDBRANCH   1  34
TORSDOF 48
