REMARK SMILES CC(=O)O[C@@H]1C[C@H]2[C@@H](CC[C@H]3C[C@H](O)CC[C@@]32C)[C@@]2(O)CC[C@@](O)([C@H](C)OC(=O)c3ccccc3)[C@@]12C
REMARK SMILES IDX 5 1 6 2 7 3 8 4 9 5 10 6 11 7 12 8 13 9 15 10 16 11 17 12
REMARK SMILES IDX 18 13 19 14 21 15 22 16 23 17 36 18 37 19 4 20 2 21 3 22
REMARK SMILES IDX 1 23 24 24 25 26 26 27 27 28 28 29 29 30 30 31 31 32 35 33
REMARK SMILES IDX 32 34 34 35 33 36 20 37 14 39
REMARK H PARENT 24 25 20 38 14 40
ROOT
ATOM      1  C   UNL     1       0.105  -1.370   0.120  1.00  0.00     0.188 C 
ATOM      2  C   UNL     1       1.573  -1.310   0.621  1.00  0.00     0.050 C 
ATOM      3  C   UNL     1       2.348  -0.113   0.031  1.00  0.00     0.005 C 
ATOM      4  C   UNL     1       1.614   1.218   0.363  1.00  0.00     0.025 C 
ATOM      5  C   UNL     1       2.355   2.403  -0.309  1.00  0.00     0.007 C 
ATOM      6  C   UNL     1       3.817   2.485   0.135  1.00  0.00     0.005 C 
ATOM      7  C   UNL     1       4.552   1.168  -0.166  1.00  0.00    -0.002 C 
ATOM      8  C   UNL     1       6.062   1.280   0.213  1.00  0.00     0.036 C 
ATOM      9  C   UNL     1       6.785  -0.097   0.290  1.00  0.00     0.114 C 
ATOM     10  C   UNL     1       6.064  -1.129  -0.572  1.00  0.00     0.032 C 
ATOM     11  C   UNL     1       4.617  -1.362  -0.048  1.00  0.00     0.010 C 
ATOM     12  C   UNL     1       3.869  -0.073   0.483  1.00  0.00    -0.026 C 
ATOM     13  C   UNL     1       3.987   0.003   2.046  1.00  0.00     0.012 C 
ATOM     14  C   UNL     1       0.097   1.202  -0.021  1.00  0.00     0.080 C 
ATOM     15  C   UNL     1      -0.218   1.155  -1.546  1.00  0.00     0.039 C 
ATOM     16  C   UNL     1      -1.609   0.499  -1.686  1.00  0.00     0.043 C 
ATOM     17  C   UNL     1      -2.087   0.171  -0.245  1.00  0.00     0.113 C 
ATOM     18  C   UNL     1      -0.698  -0.055   0.510  1.00  0.00     0.066 C 
ATOM     19  C   UNL     1      -0.895  -0.017   2.055  1.00  0.00     0.022 C 
ENDROOT
BRANCH   1  20
ATOM     20  O   UNL     1      -0.492  -2.503   0.655  1.00  0.00    -0.462 OA
BRANCH  20  21
ATOM     21  C   UNL     1      -0.147  -3.784   0.329  1.00  0.00     0.302 C 
ATOM     22  O   UNL     1       0.670  -4.013  -0.553  1.00  0.00    -0.253 OA
ATOM     23  C   UNL     1      -0.810  -4.928   1.024  1.00  0.00     0.139 C 
ENDBRANCH  20  21
ENDBRANCH   1  20
BRANCH  17  24
ATOM     24  O   UNL     1      -2.659   1.338   0.330  1.00  0.00    -0.385 OA
ATOM     25  H   UNL     1      -3.180   1.837  -0.353  1.00  0.00     0.211 HD
ENDBRANCH  17  24
BRANCH  17  26
ATOM     26  C   UNL     1      -3.248  -0.893  -0.179  1.00  0.00     0.206 C 
ATOM     27  C   UNL     1      -3.112  -2.172  -1.016  1.00  0.00     0.056 C 
BRANCH  26  28
ATOM     28  O   UNL     1      -4.411  -0.279  -0.631  1.00  0.00    -0.456 OA
BRANCH  28  29
ATOM     29  C   UNL     1      -5.488   0.073   0.125  1.00  0.00     0.338 C 
ATOM     30  O   UNL     1      -5.506  -0.148   1.327  1.00  0.00    -0.246 OA
BRANCH  29  31
ATOM     31  C   UNL     1      -6.619   0.793  -0.516  1.00  0.00     0.060 A 
ATOM     32  C   UNL     1      -7.701   1.267   0.250  1.00  0.00     0.015 A 
ATOM     33  C   UNL     1      -6.617   1.019  -1.905  1.00  0.00     0.015 A 
ATOM     34  C   UNL     1      -8.755   1.954  -0.364  1.00  0.00     0.001 A 
ATOM     35  C   UNL     1      -7.675   1.701  -2.513  1.00  0.00     0.001 A 
ATOM     36  C   UNL     1      -8.742   2.169  -1.744  1.00  0.00     0.000 A 
ENDBRANCH  29  31
ENDBRANCH  28  29
ENDBRANCH  26  28
ENDBRANCH  17  26
BRANCH  14  37
ATOM     37  O   UNL     1      -0.469   2.374   0.542  1.00  0.00    -0.389 OA
ATOM     38  H   UNL     1      -0.351   3.139  -0.079  1.00  0.00     0.211 HD
ENDBRANCH  14  37
BRANCH   9  39
ATOM     39  O   UNL     1       8.142   0.032  -0.047  1.00  0.00    -0.393 OA
ATOM     40  H   UNL     1       8.189   0.265  -1.011  1.00  0.00     0.210 HD
ENDBRANCH   9  39
TORSDOF 9
