REMARK SMILES COc1ccc(-c2cc(=O)oc3cc(OCC(=O)NCC(=O)N[C@H](C(=O)NC[C@@H]4CCCO4)C(C)C)ccc23)cc1
REMARK SMILES IDX 17 1 18 2 19 3 16 5 15 6 14 7 7 8 8 9 39 10 9 11 38 12 12 13
REMARK SMILES IDX 10 14 11 15 37 16 13 17 6 18 3 19 4 20 41 21 5 22 40 23 2 24
REMARK SMILES IDX 1 25 20 26 21 27 22 28 23 29 24 31 25 32 26 33 27 34 28 36
REMARK SMILES IDX 29 37 30 38 33 39 31 40 32 41 34 42 35 43 36 44
REMARK H PARENT 19 4 23 30 27 35
ROOT
ATOM      1  C   UNL     1      -1.179  -0.896   0.822  1.00  0.00     0.258 C 
ATOM      2  O   UNL     1      -2.202  -1.091   1.463  1.00  0.00    -0.271 OA
ATOM      3  N   UNL     1      -0.599   0.343   0.832  1.00  0.00    -0.344 N 
ATOM      4  H   UNL     1       0.269   0.520   0.309  1.00  0.00     0.164 HD
ENDROOT
BRANCH   1   5
ATOM      5  C   UNL     1      -0.604  -2.068   0.053  1.00  0.00     0.329 C 
BRANCH   5   6
ATOM      6  O   UNL     1       0.573  -1.795  -0.622  1.00  0.00    -0.484 OA
BRANCH   6   7
ATOM      7  C   UNL     1       1.795  -1.537  -0.081  1.00  0.00     0.123 A 
ATOM      8  C   UNL     1       5.648  -0.618   1.484  1.00  0.00    -0.000 A 
ATOM      9  C   UNL     1       5.735  -0.501   2.883  1.00  0.00     0.103 A 
ATOM     10  C   UNL     1       4.381  -0.948   0.922  1.00  0.00     0.026 A 
ATOM     11  C   UNL     1       4.614  -0.749   3.676  1.00  0.00     0.336 A 
ATOM     12  C   UNL     1       4.133  -1.009  -0.467  1.00  0.00     0.016 A 
ATOM     13  C   UNL     1       3.294  -1.176   1.806  1.00  0.00     0.142 A 
ATOM     14  O   UNL     1       4.697  -0.668   4.888  1.00  0.00    -0.246 OA
ATOM     15  O   UNL     1       3.458  -1.078   3.120  1.00  0.00    -0.423 OA
ATOM     16  C   UNL     1       2.859  -1.301  -0.953  1.00  0.00     0.047 A 
ATOM     17  C   UNL     1       2.022  -1.481   1.306  1.00  0.00     0.094 A 
BRANCH   8  18
ATOM     18  C   UNL     1       6.887  -0.379   0.679  1.00  0.00    -0.017 A 
ATOM     19  C   UNL     1       9.231   0.100  -0.833  1.00  0.00     0.118 A 
ATOM     20  C   UNL     1       8.901   0.930   0.256  1.00  0.00     0.047 A 
ATOM     21  C   UNL     1       8.395  -0.977  -1.142  1.00  0.00     0.047 A 
ATOM     22  C   UNL     1       7.749   0.683   1.008  1.00  0.00     0.012 A 
ATOM     23  C   UNL     1       7.236  -1.214  -0.400  1.00  0.00     0.012 A 
BRANCH  19  24
ATOM     24  O   UNL     1      10.333   0.301  -1.601  1.00  0.00    -0.497 OA
ATOM     25  C   UNL     1      11.214   1.356  -1.483  1.00  0.00     0.278 C 
ENDBRANCH  19  24
ENDBRANCH   8  18
ENDBRANCH   6   7
ENDBRANCH   5   6
ENDBRANCH   1   5
BRANCH   3  26
ATOM     26  C   UNL     1      -1.139   1.435   1.625  1.00  0.00     0.216 C 
BRANCH  26  27
ATOM     27  C   UNL     1      -2.482   1.940   1.133  1.00  0.00     0.240 C 
ATOM     28  O   UNL     1      -3.078   2.739   1.842  1.00  0.00    -0.273 OA
ATOM     29  N   UNL     1      -3.000   1.576  -0.079  1.00  0.00    -0.343 N 
ATOM     30  H   UNL     1      -2.446   0.969  -0.700  1.00  0.00     0.164 HD
BRANCH  29  31
ATOM     31  C   UNL     1      -4.274   2.080  -0.591  1.00  0.00     0.173 C 
BRANCH  31  32
ATOM     32  C   UNL     1      -5.240   0.927  -0.902  1.00  0.00     0.242 C 
ATOM     33  O   UNL     1      -6.385   1.202  -1.228  1.00  0.00    -0.273 OA
ATOM     34  N   UNL     1      -4.861  -0.385  -0.840  1.00  0.00    -0.352 N 
ATOM     35  H   UNL     1      -3.901  -0.640  -0.578  1.00  0.00     0.163 HD
BRANCH  34  36
ATOM     36  C   UNL     1      -5.734  -1.486  -1.215  1.00  0.00     0.147 C 
BRANCH  36  37
ATOM     37  C   UNL     1      -6.931  -1.663  -0.268  1.00  0.00     0.137 C 
ATOM     38  C   UNL     1      -6.496  -1.935   1.170  1.00  0.00     0.036 C 
ATOM     39  O   UNL     1      -7.719  -2.768  -0.682  1.00  0.00    -0.376 OA
ATOM     40  C   UNL     1      -7.735  -2.604   1.667  1.00  0.00     0.031 C 
ATOM     41  C   UNL     1      -7.999  -3.516   0.486  1.00  0.00     0.160 C 
ENDBRANCH  36  37
ENDBRANCH  34  36
ENDBRANCH  31  32
BRANCH  31  42
ATOM     42  C   UNL     1      -3.990   2.971  -1.845  1.00  0.00     0.015 C 
ATOM     43  C   UNL     1      -5.253   3.631  -2.430  1.00  0.00     0.010 C 
ATOM     44  C   UNL     1      -2.986   4.089  -1.502  1.00  0.00     0.010 C 
ENDBRANCH  31  42
ENDBRANCH  29  31
ENDBRANCH  26  27
ENDBRANCH   3  26
TORSDOF 12
