REMARK SMILES CC(C)[C]CCC(C)C[C]C[C@@H](C)CCC[C@@]1(C)O[C@H]([C@@](C)(CCC[C@@H](C)CCCC(C)CCCC(C)C)O[C@](C)(CCC[C@H](C)CCCC(C)CC[C]C(C)C)[C@@H]2CC[C@@H](C(C)(CCC[C@@H](C)CCCC(C)C[C]CC(C)C)O[C@@](C)(CCC[C@H](C)CCC[C@H](C)CCCC(C)C)[C@@H]3CC[C@H]([C@@](C)(O)CCCC(C)CCCC(C)CCCC(C)C)O3)O2)CC[C@H]1O
REMARK SMILES IDX 61 1 60 2 59 3 58 4 123 5 62 6 63 7 80 8 81 9 82 10 99 11
REMARK SMILES IDX 102 12 101 13 122 14 100 15 103 16 104 17 106 18 107 19
REMARK SMILES IDX 108 20 109 21 110 22 111 23 112 24 113 25 114 26 115 27
REMARK SMILES IDX 116 28 117 29 118 30 119 31 120 32 121 33 105 34 83 36 84 37
REMARK SMILES IDX 85 38 86 39 87 40 88 41 89 42 90 43 91 44 92 45 93 46 94 47
REMARK SMILES IDX 95 48 96 49 97 50 98 51 64 52 65 53 66 54 67 55 68 56 69 57
REMARK SMILES IDX 70 58 71 59 72 60 73 61 74 62 75 63 76 64 77 65 78 66 79 67
REMARK SMILES IDX 40 68 41 69 42 70 43 71 44 72 45 73 46 74 47 75 48 76 49 77
REMARK SMILES IDX 50 78 51 79 52 80 53 81 54 82 55 83 56 84 57 85 39 86 21 87
REMARK SMILES IDX 22 88 23 89 24 90 25 91 26 92 27 93 28 94 29 95 30 96 31 97
REMARK SMILES IDX 32 98 33 99 34 100 35 101 36 102 37 103 38 104 20 105
REMARK SMILES IDX 124 106 19 107 125 108 17 109 126 110 18 111 16 112 15 113
REMARK SMILES IDX 14 114 12 115 13 116 11 117 10 118 9 119 7 120 8 121 6 122
REMARK SMILES IDX 5 123 4 124 2 125 1 126 3 127 127 128
REMARK H PARENT 105 35 127 129
ROOT
ATOM      1  C   UNL     1       7.662  -4.129   0.000  1.00  0.00     0.150 C 
ATOM      2  C   UNL     1       7.026  -4.234  -1.515  1.00  0.00     0.038 C 
ATOM      3  C   UNL     1       5.801  -3.357  -1.603  1.00  0.00     0.038 C 
ATOM      4  C   UNL     1       5.350  -3.338  -0.144  1.00  0.00     0.150 C 
ATOM      5  O   UNL     1       6.409  -3.915   0.730  1.00  0.00    -0.369 OA
ENDROOT
BRANCH   1   6
ATOM      6  C   UNL     1       8.704  -3.050   0.000  1.00  0.00     0.092 C 
ATOM      7  C   UNL     1       7.625  -2.008   0.000  1.00  0.00     0.045 C 
BRANCH   6   8
ATOM      8  O   UNL     1       9.746  -1.971   0.000  1.00  0.00    -0.364 OA
BRANCH   8   9
ATOM      9  C   UNL     1      11.201  -2.334   0.000  1.00  0.00     0.092 C 
ATOM     10  C   UNL     1      10.838  -3.789   0.000  1.00  0.00     0.045 C 
BRANCH   9  11
ATOM     11  C   UNL     1      11.939  -1.226   0.935  1.00  0.00     0.150 C 
ATOM     12  C   UNL     1      13.831   0.166   0.975  1.00  0.00     0.150 C 
ATOM     13  C   UNL     1      12.560   0.990   0.952  1.00  0.00     0.038 C 
ATOM     14  O   UNL     1      13.379  -1.212   0.857  1.00  0.00    -0.369 OA
ATOM     15  C   UNL     1      11.523   0.118   0.432  1.00  0.00     0.038 C 
BRANCH  12  16
ATOM     16  C   UNL     1      15.046   0.755   0.000  1.00  0.00     0.088 C 
ATOM     17  C   UNL     1      16.010  -0.394   0.000  1.00  0.00     0.045 C 
BRANCH  16  18
ATOM     18  C   UNL     1      15.082   2.421   0.347  1.00  0.00     0.038 C 
BRANCH  18  19
ATOM     19  C   UNL     1      13.900   3.614  -0.140  1.00  0.00     0.003 C 
BRANCH  19  20
ATOM     20  C   UNL     1      12.453   4.196   0.574  1.00  0.00     0.003 C 
BRANCH  20  21
ATOM     21  C   UNL     1      11.189   5.351   0.000  1.00  0.00    -0.014 C 
ATOM     22  C   UNL     1      12.338   6.315   0.000  1.00  0.00     0.007 C 
BRANCH  21  23
ATOM     23  C   UNL     1      10.040   4.387   0.000  1.00  0.00     0.003 C 
BRANCH  23  24
ATOM     24  C   UNL     1       8.891   3.423   0.000  1.00  0.00     0.001 C 
BRANCH  24  25
ATOM     25  C   UNL     1       7.742   2.458   0.000  1.00  0.00     0.003 C 
BRANCH  25  26
ATOM     26  C   UNL     1       6.593   1.494   0.000  1.00  0.00    -0.014 C 
ATOM     27  C   UNL     1       7.557   0.345   0.000  1.00  0.00     0.007 C 
BRANCH  26  28
ATOM     28  C   UNL     1       5.629   2.643   0.000  1.00  0.00     0.003 C 
BRANCH  28  29
ATOM     29  C   UNL     1       4.665   3.792   0.000  1.00  0.00     0.001 C 
BRANCH  29  30
ATOM     30  C   UNL     1       3.701   4.941   0.000  1.00  0.00     0.003 C 
BRANCH  30  31
ATOM     31  C   UNL     1       2.736   6.091   0.000  1.00  0.00    -0.017 C 
ATOM     32  C   UNL     1       3.885   7.055   0.000  1.00  0.00     0.007 C 
ATOM     33  C   UNL     1       1.587   5.126   0.000  1.00  0.00     0.007 C 
ENDBRANCH  30  31
ENDBRANCH  29  30
ENDBRANCH  28  29
ENDBRANCH  26  28
ENDBRANCH  25  26
ENDBRANCH  24  25
ENDBRANCH  23  24
ENDBRANCH  21  23
ENDBRANCH  20  21
ENDBRANCH  19  20
ENDBRANCH  18  19
ENDBRANCH  16  18
BRANCH  16  34
ATOM     34  O   UNL     1      14.539   0.787  -1.319  1.00  0.00    -0.387 OA
ATOM     35  H   UNL     1      15.228   1.194  -1.910  1.00  0.00     0.211 HD
ENDBRANCH  16  34
ENDBRANCH  12  16
ENDBRANCH   9  11
BRANCH   9  36
ATOM     36  C   UNL     1      12.175  -2.315  -1.425  1.00  0.00     0.038 C 
BRANCH  36  37
ATOM     37  C   UNL     1      13.892  -2.302  -1.632  1.00  0.00     0.003 C 
BRANCH  37  38
ATOM     38  C   UNL     1      15.590  -2.601  -1.706  1.00  0.00     0.003 C 
BRANCH  38  39
ATOM     39  C   UNL     1      17.023  -3.785  -0.000  1.00  0.00    -0.014 C 
ATOM     40  C   UNL     1      18.478  -4.148  -0.000  1.00  0.00     0.007 C 
BRANCH  39  41
ATOM     41  C   UNL     1      17.101  -5.643   1.327  1.00  0.00     0.003 C 
BRANCH  41  42
ATOM     42  C   UNL     1      16.963  -7.157   0.629  1.00  0.00     0.001 C 
BRANCH  42  43
ATOM     43  C   UNL     1      16.581  -8.644   1.237  1.00  0.00     0.003 C 
BRANCH  43  44
ATOM     44  C   UNL     1      15.571  -9.607   0.000  1.00  0.00    -0.014 C 
ATOM     45  C   UNL     1      15.209 -11.063   0.000  1.00  0.00     0.007 C 
BRANCH  44  46
ATOM     46  C   UNL     1      17.164 -10.313  -0.168  1.00  0.00     0.003 C 
BRANCH  46  47
ATOM     47  C   UNL     1      18.717  -9.697  -0.282  1.00  0.00     0.001 C 
BRANCH  47  48
ATOM     48  C   UNL     1      19.740 -10.842   0.081  1.00  0.00     0.003 C 
BRANCH  48  49
ATOM     49  C   UNL     1      21.393 -11.059   0.000  1.00  0.00    -0.017 C 
ATOM     50  C   UNL     1      22.849 -11.422   0.000  1.00  0.00     0.007 C 
ATOM     51  C   UNL     1      21.030 -12.514   0.000  1.00  0.00     0.007 C 
ENDBRANCH  48  49
ENDBRANCH  47  48
ENDBRANCH  46  47
ENDBRANCH  44  46
ENDBRANCH  43  44
ENDBRANCH  42  43
ENDBRANCH  41  42
ENDBRANCH  39  41
ENDBRANCH  38  39
ENDBRANCH  37  38
ENDBRANCH  36  37
ENDBRANCH   9  36
ENDBRANCH   8   9
ENDBRANCH   6   8
BRANCH   6  52
ATOM     52  C   UNL     1       9.783  -4.092   0.000  1.00  0.00     0.038 C 
BRANCH  52  53
ATOM     53  C   UNL     1      10.862  -5.134   0.000  1.00  0.00     0.003 C 
BRANCH  53  54
ATOM     54  C   UNL     1      12.066  -5.986  -0.861  1.00  0.00     0.003 C 
BRANCH  54  55
ATOM     55  C   UNL     1      13.020  -7.218   0.000  1.00  0.00    -0.014 C 
ATOM     56  C   UNL     1      14.099  -8.260   0.000  1.00  0.00     0.007 C 
BRANCH  55  57
ATOM     57  C   UNL     1      14.062  -6.139   0.000  1.00  0.00     0.003 C 
BRANCH  57  58
ATOM     58  C   UNL     1      15.104  -5.060   0.000  1.00  0.00     0.001 C 
BRANCH  58  59
ATOM     59  C   UNL     1      16.146  -3.981   0.000  1.00  0.00     0.003 C 
BRANCH  59  60
ATOM     60  C   UNL     1      17.188  -2.902   0.000  1.00  0.00    -0.014 C 
ATOM     61  C   UNL     1      18.230  -1.823   0.000  1.00  0.00     0.007 C 
BRANCH  60  62
ATOM     62  C   UNL     1      18.267  -3.944   0.000  1.00  0.00     0.011 C 
BRANCH  62  63
ATOM     63  C   UNL     1      19.346  -4.986   0.000  1.00  0.00    -0.017 C 
BRANCH  63  64
ATOM     64  C   UNL     1      20.425  -6.028   0.000  1.00  0.00     0.011 C 
BRANCH  64  65
ATOM     65  C   UNL     1      21.504  -7.070   0.000  1.00  0.00    -0.017 C 
ATOM     66  C   UNL     1      22.583  -8.112   0.000  1.00  0.00     0.007 C 
ATOM     67  C   UNL     1      22.546  -5.991   0.000  1.00  0.00     0.007 C 
ENDBRANCH  64  65
ENDBRANCH  63  64
ENDBRANCH  62  63
ENDBRANCH  60  62
ENDBRANCH  59  60
ENDBRANCH  58  59
ENDBRANCH  57  58
ENDBRANCH  55  57
ENDBRANCH  54  55
ENDBRANCH  53  54
ENDBRANCH  52  53
ENDBRANCH   6  52
ENDBRANCH   1   6
BRANCH   4  68
ATOM     68  C   UNL     1       3.830  -3.802   0.000  1.00  0.00     0.092 C 
ATOM     69  C   UNL     1       2.352  -4.063   0.000  1.00  0.00     0.045 C 
BRANCH  68  70
ATOM     70  C   UNL     1       4.090  -5.279   0.000  1.00  0.00     0.038 C 
BRANCH  70  71
ATOM     71  C   UNL     1       4.351  -6.757   0.000  1.00  0.00     0.003 C 
BRANCH  71  72
ATOM     72  C   UNL     1       4.611  -8.234  -0.000  1.00  0.00     0.003 C 
BRANCH  72  73
ATOM     73  C   UNL     1       5.972  -7.655  -1.112  1.00  0.00    -0.014 C 
ATOM     74  C   UNL     1       5.726  -7.717  -2.629  1.00  0.00     0.007 C 
BRANCH  73  75
ATOM     75  C   UNL     1       6.349  -9.451  -0.000  1.00  0.00     0.003 C 
BRANCH  75  76
ATOM     76  C   UNL     1       7.826  -9.190   0.000  1.00  0.00     0.001 C 
BRANCH  76  77
ATOM     77  C   UNL     1       9.303  -8.930  -0.000  1.00  0.00     0.003 C 
BRANCH  77  78
ATOM     78  C   UNL     1      10.780  -8.669   0.000  1.00  0.00    -0.014 C 
ATOM     79  C   UNL     1      12.258  -8.409  -0.000  1.00  0.00     0.007 C 
BRANCH  78  80
ATOM     80  C   UNL     1      10.846 -10.347   0.783  1.00  0.00     0.004 C 
BRANCH  80  81
ATOM     81  C   UNL     1      11.301 -11.624  -0.000  1.00  0.00     0.009 C 
BRANCH  81  82
ATOM     82  C   UNL     1      11.562 -13.101   0.000  1.00  0.00    -0.015 C 
BRANCH  82  83
ATOM     83  C   UNL     1      11.822 -14.578  -0.000  1.00  0.00    -0.010 C 
ATOM     84  C   UNL     1      12.083 -16.055   0.000  1.00  0.00     0.008 C 
ATOM     85  C   UNL     1      13.299 -14.318  -0.000  1.00  0.00     0.008 C 
ENDBRANCH  82  83
ENDBRANCH  81  82
ENDBRANCH  80  81
ENDBRANCH  78  80
ENDBRANCH  77  78
ENDBRANCH  76  77
ENDBRANCH  75  76
ENDBRANCH  73  75
ENDBRANCH  72  73
ENDBRANCH  71  72
ENDBRANCH  70  71
ENDBRANCH  68  70
BRANCH  68  86
ATOM     86  O   UNL     1       3.313  -2.507  -0.715  1.00  0.00    -0.364 OA
BRANCH  86  87
ATOM     87  C   UNL     1       2.159  -1.812   0.000  1.00  0.00     0.092 C 
ATOM     88  C   UNL     1       2.673  -0.403   0.000  1.00  0.00     0.045 C 
BRANCH  87  89
ATOM     89  C   UNL     1       1.647  -3.222   0.000  1.00  0.00     0.038 C 
BRANCH  89  90
ATOM     90  C   UNL     1       1.133  -4.631   0.000  1.00  0.00     0.003 C 
BRANCH  90  91
ATOM     91  C   UNL     1       0.256  -5.916  -0.823  1.00  0.00     0.003 C 
BRANCH  91  92
ATOM     92  C   UNL     1       0.107  -7.450  -0.000  1.00  0.00    -0.014 C 
ATOM     93  C   UNL     1      -0.406  -8.860   0.000  1.00  0.00     0.007 C 
BRANCH  92  94
ATOM     94  C   UNL     1       1.517  -7.963   0.000  1.00  0.00     0.003 C 
BRANCH  94  95
ATOM     95  C   UNL     1       2.926  -8.476   0.000  1.00  0.00     0.001 C 
BRANCH  95  96
ATOM     96  C   UNL     1       4.336  -8.989   0.000  1.00  0.00     0.003 C 
BRANCH  96  97
ATOM     97  C   UNL     1       5.746  -9.502   0.000  1.00  0.00    -0.014 C 
ATOM     98  C   UNL     1       7.155 -10.015   0.000  1.00  0.00     0.007 C 
BRANCH  97  99
ATOM     99  C   UNL     1       5.189 -11.431   0.519  1.00  0.00     0.003 C 
BRANCH  99 100
ATOM    100  C   UNL     1       3.816 -12.282   0.225  1.00  0.00     0.001 C 
BRANCH 100 101
ATOM    101  C   UNL     1       3.420 -13.778   0.824  1.00  0.00     0.003 C 
BRANCH 101 102
ATOM    102  C   UNL     1       3.693 -15.140   0.000  1.00  0.00    -0.017 C 
ATOM    103  C   UNL     1       3.180 -16.550   0.000  1.00  0.00     0.007 C 
ATOM    104  C   UNL     1       5.103 -15.653   0.000  1.00  0.00     0.007 C 
ENDBRANCH 101 102
ENDBRANCH 100 101
ENDBRANCH  99 100
ENDBRANCH  97  99
ENDBRANCH  96  97
ENDBRANCH  95  96
ENDBRANCH  94  95
ENDBRANCH  92  94
ENDBRANCH  91  92
ENDBRANCH  90  91
ENDBRANCH  89  90
ENDBRANCH  87  89
BRANCH  87 105
ATOM    105  C   UNL     1       0.902  -0.651  -0.862  1.00  0.00     0.151 C 
ATOM    106  C   UNL     1       0.807   0.998  -0.815  1.00  0.00     0.038 C 
ATOM    107  O   UNL     1      -0.544  -0.880  -0.800  1.00  0.00    -0.366 OA
ATOM    108  C   UNL     1       0.347   1.440   0.627  1.00  0.00     0.037 C 
ATOM    109  C   UNL     1      -1.500   0.000   0.000  1.00  0.00     0.092 C 
ATOM    110  C   UNL     1      -0.685   0.429   1.219  1.00  0.00     0.146 C 
ATOM    111  C   UNL     1      -2.649  -0.964   0.000  1.00  0.00     0.045 C 
BRANCH 109 112
ATOM    112  C   UNL     1      -2.301   1.419  -0.550  1.00  0.00     0.038 C 
BRANCH 112 113
ATOM    113  C   UNL     1      -3.087   2.901  -0.333  1.00  0.00     0.003 C 
BRANCH 113 114
ATOM    114  C   UNL     1      -4.654   2.916   0.158  1.00  0.00     0.003 C 
BRANCH 114 115
ATOM    115  C   UNL     1      -6.096   3.857   0.000  1.00  0.00    -0.014 C 
ATOM    116  C   UNL     1      -7.245   4.821  -0.000  1.00  0.00     0.007 C 
BRANCH 115 117
ATOM    117  C   UNL     1      -7.060   2.708   0.000  1.00  0.00     0.011 C 
BRANCH 117 118
ATOM    118  C   UNL     1      -8.025   1.559   0.000  1.00  0.00    -0.017 C 
BRANCH 118 119
ATOM    119  C   UNL     1      -8.989   0.409   0.000  1.00  0.00     0.011 C 
BRANCH 119 120
ATOM    120  C   UNL     1      -9.953  -0.740   0.000  1.00  0.00    -0.014 C 
ATOM    121  C   UNL     1     -10.917  -1.889   0.000  1.00  0.00     0.007 C 
BRANCH 120 122
ATOM    122  C   UNL     1     -11.148   0.274  -0.825  1.00  0.00     0.004 C 
BRANCH 122 123
ATOM    123  C   UNL     1     -12.251   1.189   0.000  1.00  0.00     0.009 C 
BRANCH 123 124
ATOM    124  C   UNL     1     -13.400   2.153   0.000  1.00  0.00    -0.015 C 
BRANCH 124 125
ATOM    125  C   UNL     1     -14.549   3.117   0.000  1.00  0.00    -0.010 C 
ATOM    126  C   UNL     1     -15.698   4.081   0.000  1.00  0.00     0.008 C 
ATOM    127  C   UNL     1     -15.513   1.968  -0.000  1.00  0.00     0.008 C 
ENDBRANCH 124 125
ENDBRANCH 123 124
ENDBRANCH 122 123
ENDBRANCH 120 122
ENDBRANCH 119 120
ENDBRANCH 118 119
ENDBRANCH 117 118
ENDBRANCH 115 117
ENDBRANCH 114 115
ENDBRANCH 113 114
ENDBRANCH 112 113
ENDBRANCH 109 112
BRANCH 110 128
ATOM    128  O   UNL     1      -1.460   1.016   2.232  1.00  0.00    -0.390 OA
ATOM    129  H   UNL     1      -0.848   1.165   2.999  1.00  0.00     0.211 HD
ENDBRANCH 110 128
ENDBRANCH  87 105
ENDBRANCH  86  87
ENDBRANCH  68  86
ENDBRANCH   4  68
TORSDOF 83
