REMARK SMILES CCCCCCCCC=CCCCCCCCC(=O)N1CCCC1
REMARK SMILES IDX 9 1 10 2 8 3 7 4 6 5 5 6 4 7 3 8 2 9 1 10 11 11 12 12 13 13
REMARK SMILES IDX 14 14 15 15 16 16 17 17 18 18 19 19 20 20 21 21 24 22 22 23
REMARK SMILES IDX 23 24
REMARK H PARENT
ROOT
ATOM      1  C   UNL     1      -2.756  -1.225   0.628  1.00  0.00    -0.031 C 
ATOM      2  C   UNL     1      -1.835  -0.602  -0.124  1.00  0.00    -0.031 C 
ENDROOT
BRANCH   1   3
ATOM      3  C   UNL     1      -3.929  -0.496   1.224  1.00  0.00     0.027 C 
BRANCH   3   4
ATOM      4  C   UNL     1      -4.952   0.051   0.223  1.00  0.00     0.004 C 
BRANCH   4   5
ATOM      5  C   UNL     1      -5.659  -1.071  -0.560  1.00  0.00     0.000 C 
BRANCH   5   6
ATOM      6  C   UNL     1      -6.856  -0.588  -1.408  1.00  0.00     0.000 C 
BRANCH   6   7
ATOM      7  C   UNL     1      -8.212  -0.472  -0.661  1.00  0.00    -0.000 C 
BRANCH   7   8
ATOM      8  C   UNL     1      -8.323   0.533   0.495  1.00  0.00    -0.000 C 
BRANCH   8   9
ATOM      9  C   UNL     1      -8.060   1.981   0.057  1.00  0.00    -0.003 C 
ATOM     10  C   UNL     1      -8.174   2.938   1.240  1.00  0.00     0.004 C 
ENDBRANCH   8   9
ENDBRANCH   7   8
ENDBRANCH   6   7
ENDBRANCH   5   6
ENDBRANCH   4   5
ENDBRANCH   3   4
ENDBRANCH   1   3
BRANCH   2  11
ATOM     11  C   UNL     1      -0.585  -1.307  -0.593  1.00  0.00     0.027 C 
BRANCH  11  12
ATOM     12  C   UNL     1       0.225  -1.782   0.630  1.00  0.00     0.004 C 
BRANCH  12  13
ATOM     13  C   UNL     1       1.578  -2.428   0.307  1.00  0.00     0.000 C 
BRANCH  13  14
ATOM     14  C   UNL     1       2.591  -1.434  -0.281  1.00  0.00     0.000 C 
BRANCH  14  15
ATOM     15  C   UNL     1       3.982  -2.079  -0.377  1.00  0.00     0.001 C 
BRANCH  15  16
ATOM     16  C   UNL     1       5.046  -1.157  -0.993  1.00  0.00     0.010 C 
BRANCH  16  17
ATOM     17  C   UNL     1       5.306   0.120  -0.176  1.00  0.00     0.100 C 
BRANCH  17  18
ATOM     18  C   UNL     1       6.420   0.925  -0.811  1.00  0.00     0.222 C 
ATOM     19  O   UNL     1       6.262   1.321  -1.958  1.00  0.00    -0.275 OA
ATOM     20  N   UNL     1       7.584   1.214  -0.154  1.00  0.00    -0.343 N 
ATOM     21  C   UNL     1       7.899   0.826   1.205  1.00  0.00     0.119 C 
ATOM     22  C   UNL     1       8.680   1.937  -0.767  1.00  0.00     0.119 C 
ATOM     23  C   UNL     1       9.161   1.629   1.518  1.00  0.00     0.023 C 
ATOM     24  C   UNL     1       9.849   1.660   0.174  1.00  0.00     0.023 C 
ENDBRANCH  17  18
ENDBRANCH  16  17
ENDBRANCH  15  16
ENDBRANCH  14  15
ENDBRANCH  13  14
ENDBRANCH  12  13
ENDBRANCH  11  12
ENDBRANCH   2  11
TORSDOF 15
