REMARK SMILES COc1cc(-c2c3cn[nH]c3nc3c2oc2c(O)c(O)ccc23)cc2c1OCO2
REMARK SMILES IDX 6 1 7 2 8 3 9 4 10 5 11 6 12 7 13 8 14 9 15 10 16 11 17 12
REMARK SMILES IDX 19 13 21 14 22 15 23 16 5 18 3 19 4 20 26 21 25 22 27 23
REMARK SMILES IDX 24 24 29 25 28 26 2 27 1 28 18 29 20 31
REMARK H PARENT 10 17 18 30 20 32
ROOT
ATOM      1  C   UNL     1      -0.456   0.718   0.815  1.00  0.00     0.040 A 
ATOM      2  C   UNL     1      -1.161   1.757   1.442  1.00  0.00     0.050 A 
ATOM      3  C   UNL     1      -0.786   2.756   2.314  1.00  0.00     0.146 A 
ATOM      4  N   UNL     1      -1.884   3.502   2.602  1.00  0.00    -0.182 NA
ATOM      5  N   UNL     1      -2.927   3.005   1.942  1.00  0.00    -0.261 N 
ATOM      6  C   UNL     1      -2.507   1.948   1.234  1.00  0.00     0.156 A 
ATOM      7  N   UNL     1      -3.259   1.154   0.420  1.00  0.00    -0.224 NA
ATOM      8  C   UNL     1      -2.590   0.137  -0.194  1.00  0.00     0.120 A 
ATOM      9  C   UNL     1      -1.231  -0.100  -0.024  1.00  0.00     0.162 A 
ATOM     10  O   UNL     1      -0.854  -1.149  -0.732  1.00  0.00    -0.450 OA
ATOM     11  C   UNL     1      -1.936  -1.597  -1.352  1.00  0.00     0.182 A 
ATOM     12  C   UNL     1      -2.035  -2.697  -2.211  1.00  0.00     0.201 A 
ATOM     13  C   UNL     1      -3.306  -2.994  -2.763  1.00  0.00     0.161 A 
ATOM     14  C   UNL     1      -4.427  -2.191  -2.442  1.00  0.00     0.051 A 
ATOM     15  C   UNL     1      -4.301  -1.092  -1.574  1.00  0.00     0.018 A 
ATOM     16  C   UNL     1      -3.042  -0.827  -1.050  1.00  0.00     0.051 A 
ATOM     17  H   UNL     1      -3.896   3.389   1.982  1.00  0.00     0.192 HD
ENDROOT
BRANCH   1  18
ATOM     18  C   UNL     1       0.982   0.508   1.024  1.00  0.00    -0.006 A 
ATOM     19  C   UNL     1       3.308   0.892   0.324  1.00  0.00     0.165 A 
ATOM     20  C   UNL     1       1.916   1.070   0.119  1.00  0.00     0.059 A 
ATOM     21  C   UNL     1       3.697   0.141   1.432  1.00  0.00     0.207 A 
ATOM     22  C   UNL     1       2.805  -0.396   2.292  1.00  0.00     0.170 A 
ATOM     23  O   UNL     1       4.933  -0.166   1.835  1.00  0.00    -0.450 OA
ATOM     24  C   UNL     1       1.432  -0.236   2.133  1.00  0.00     0.059 A 
ATOM     25  O   UNL     1       3.458  -1.054   3.252  1.00  0.00    -0.453 OA
ATOM     26  C   UNL     1       4.821  -0.930   2.994  1.00  0.00     0.468 C 
BRANCH  19  27
ATOM     27  O   UNL     1       4.257   1.417  -0.492  1.00  0.00    -0.493 OA
ATOM     28  C   UNL     1       4.011   2.212  -1.592  1.00  0.00     0.278 C 
ENDBRANCH  19  27
ENDBRANCH   1  18
BRANCH  12  29
ATOM     29  O   UNL     1      -0.958  -3.454  -2.505  1.00  0.00    -0.502 OA
ATOM     30  H   UNL     1      -0.083  -3.270  -2.135  1.00  0.00     0.293 HD
ENDBRANCH  12  29
BRANCH  13  31
ATOM     31  O   UNL     1      -3.475  -4.041  -3.597  1.00  0.00    -0.504 OA
ATOM     32  H   UNL     1      -2.748  -4.628  -3.852  1.00  0.00     0.293 HD
ENDBRANCH  13  31
TORSDOF 4
