REMARK SMILES C[C]CCCCCCCCCCCCC(=O)O[C@@H](COC(=O)CCCCCCCCCC[C]CC[C]CCCCCCC(C)CC)COC(=O)CCCCCCCCCCCCC
REMARK SMILES IDX 24 1 23 2 21 3 22 4 20 5 19 6 18 7 17 8 15 9 16 10 14 11
REMARK SMILES IDX 13 12 12 13 11 14 10 15 9 16 8 17 7 18 6 19 5 20 4 21 3 22
REMARK SMILES IDX 2 23 1 24 47 25 48 26 49 27 50 28 51 29 52 30 53 31 54 32
REMARK SMILES IDX 55 33 56 34 57 35 58 36 59 37 60 38 61 39 62 40 63 41 25 42
REMARK SMILES IDX 26 43 27 44 28 45 29 46 30 47 31 48 32 49 33 50 34 51 35 52
REMARK SMILES IDX 36 53 37 54 38 55 39 56 40 57 41 58 42 59 43 60 44 61 45 62
REMARK SMILES IDX 46 63
REMARK H PARENT
ROOT
ATOM      1  C   UNL     1       3.201  -7.446   0.000  1.00  0.00     0.012 C 
ENDROOT
BRANCH   1   2
ATOM      2  C   UNL     1       2.619  -6.109   0.832  1.00  0.00     0.123 C 
BRANCH   2   3
ATOM      3  C   UNL     1       1.438  -5.210   0.096  1.00  0.00     0.305 C 
ATOM      4  O   UNL     1       1.093  -5.649  -0.993  1.00  0.00    -0.252 OA
BRANCH   3   5
ATOM      5  O   UNL     1       0.739  -4.017   0.557  1.00  0.00    -0.462 OA
BRANCH   5   6
ATOM      6  C   UNL     1      -0.549  -3.549   0.000  1.00  0.00     0.281 C 
BRANCH   6   7
ATOM      7  C   UNL     1      -1.299  -2.250   0.000  1.00  0.00     0.251 C 
BRANCH   7   8
ATOM      8  O   UNL     1      -0.078  -1.573  -0.526  1.00  0.00    -0.455 OA
BRANCH   8   9
ATOM      9  C   UNL     1       0.898  -0.680   0.036  1.00  0.00     0.306 C 
ATOM     10  O   UNL     1       0.939  -0.560   1.250  1.00  0.00    -0.252 OA
BRANCH   9  11
ATOM     11  C   UNL     1       1.949   0.207  -0.831  1.00  0.00     0.123 C 
BRANCH  11  12
ATOM     12  C   UNL     1       3.048   1.200  -0.101  1.00  0.00     0.012 C 
BRANCH  12  13
ATOM     13  C   UNL     1       4.156   2.125  -0.926  1.00  0.00     0.001 C 
BRANCH  13  14
ATOM     14  C   UNL     1       5.196   3.000   0.000  1.00  0.00     0.000 C 
BRANCH  14  15
ATOM     15  C   UNL     1       6.495   3.750   0.000  1.00  0.00     0.000 C 
BRANCH  15  16
ATOM     16  C   UNL     1       7.794   4.500   0.000  1.00  0.00     0.000 C 
BRANCH  16  17
ATOM     17  C   UNL     1       9.093   5.250   0.000  1.00  0.00     0.000 C 
BRANCH  17  18
ATOM     18  C   UNL     1      10.392   6.000   0.000  1.00  0.00     0.000 C 
BRANCH  18  19
ATOM     19  C   UNL     1      11.691   6.750   0.000  1.00  0.00     0.000 C 
BRANCH  19  20
ATOM     20  C   UNL     1      13.263   7.198   0.389  1.00  0.00     0.000 C 
BRANCH  20  21
ATOM     21  C   UNL     1      14.006   8.546  -0.337  1.00  0.00     0.001 C 
BRANCH  21  22
ATOM     22  C   UNL     1      15.588   9.000   0.000  1.00  0.00     0.008 C 
BRANCH  22  23
ATOM     23  C   UNL     1      16.887   9.750   0.000  1.00  0.00    -0.021 C 
ATOM     24  C   UNL     1      18.186  10.500   0.000  1.00  0.00     0.012 C 
ENDBRANCH  22  23
ENDBRANCH  21  22
ENDBRANCH  20  21
ENDBRANCH  19  20
ENDBRANCH  18  19
ENDBRANCH  17  18
ENDBRANCH  16  17
ENDBRANCH  15  16
ENDBRANCH  14  15
ENDBRANCH  13  14
ENDBRANCH  12  13
ENDBRANCH  11  12
ENDBRANCH   9  11
ENDBRANCH   8   9
ENDBRANCH   7   8
BRANCH   7  25
ATOM     25  C   UNL     1      -2.049  -0.951  -0.000  1.00  0.00     0.281 C 
BRANCH  25  26
ATOM     26  O   UNL     1      -3.481  -0.630   0.133  1.00  0.00    -0.462 OA
BRANCH  26  27
ATOM     27  C   UNL     1      -3.988   0.735   0.065  1.00  0.00     0.305 C 
ATOM     28  O   UNL     1      -3.150   1.622   0.003  1.00  0.00    -0.252 OA
BRANCH  27  29
ATOM     29  C   UNL     1      -5.546   1.287   0.049  1.00  0.00     0.123 C 
BRANCH  29  30
ATOM     30  C   UNL     1      -5.799   2.946   0.000  1.00  0.00     0.012 C 
BRANCH  30  31
ATOM     31  C   UNL     1      -6.549   4.245   0.000  1.00  0.00     0.001 C 
BRANCH  31  32
ATOM     32  C   UNL     1      -7.299   5.544   0.000  1.00  0.00     0.000 C 
BRANCH  32  33
ATOM     33  C   UNL     1      -8.049   6.843   0.000  1.00  0.00     0.000 C 
BRANCH  33  34
ATOM     34  C   UNL     1      -8.799   8.142   0.000  1.00  0.00     0.000 C 
BRANCH  34  35
ATOM     35  C   UNL     1      -9.549   9.441   0.000  1.00  0.00     0.000 C 
BRANCH  35  36
ATOM     36  C   UNL     1      -9.877  11.089   0.034  1.00  0.00    -0.000 C 
BRANCH  36  37
ATOM     37  C   UNL     1     -11.469  11.691  -0.049  1.00  0.00    -0.000 C 
BRANCH  37  38
ATOM     38  C   UNL     1     -11.799  13.338   0.000  1.00  0.00    -0.000 C 
BRANCH  38  39
ATOM     39  C   UNL     1     -12.549  14.637   0.000  1.00  0.00    -0.000 C 
BRANCH  39  40
ATOM     40  C   UNL     1     -13.299  15.937   0.000  1.00  0.00    -0.003 C 
ATOM     41  C   UNL     1     -14.049  17.236   0.000  1.00  0.00     0.004 C 
ENDBRANCH  39  40
ENDBRANCH  38  39
ENDBRANCH  37  38
ENDBRANCH  36  37
ENDBRANCH  35  36
ENDBRANCH  34  35
ENDBRANCH  33  34
ENDBRANCH  32  33
ENDBRANCH  31  32
ENDBRANCH  30  31
ENDBRANCH  29  30
ENDBRANCH  27  29
ENDBRANCH  26  27
ENDBRANCH  25  26
ENDBRANCH   7  25
ENDBRANCH   6   7
ENDBRANCH   5   6
ENDBRANCH   3   5
ENDBRANCH   2   3
ENDBRANCH   1   2
BRANCH   1  42
ATOM     42  C   UNL     1       3.951  -8.745   0.000  1.00  0.00     0.001 C 
BRANCH  42  43
ATOM     43  C   UNL     1       4.701 -10.044   0.000  1.00  0.00     0.000 C 
BRANCH  43  44
ATOM     44  C   UNL     1       5.451 -11.343   0.000  1.00  0.00     0.000 C 
BRANCH  44  45
ATOM     45  C   UNL     1       6.201 -12.642   0.000  1.00  0.00     0.000 C 
BRANCH  45  46
ATOM     46  C   UNL     1       6.951 -13.941   0.000  1.00  0.00     0.000 C 
BRANCH  46  47
ATOM     47  C   UNL     1       7.531 -15.438  -0.496  1.00  0.00     0.000 C 
BRANCH  47  48
ATOM     48  C   UNL     1       8.621 -16.329   0.459  1.00  0.00     0.001 C 
BRANCH  48  49
ATOM     49  C   UNL     1       9.201 -17.838   0.000  1.00  0.00     0.008 C 
BRANCH  49  50
ATOM     50  C   UNL     1       9.951 -19.137   0.000  1.00  0.00    -0.017 C 
BRANCH  50  51
ATOM     51  C   UNL     1      10.701 -20.436   0.000  1.00  0.00     0.009 C 
BRANCH  51  52
ATOM     52  C   UNL     1      11.451 -21.736   0.000  1.00  0.00     0.009 C 
BRANCH  52  53
ATOM     53  C   UNL     1      12.201 -23.035   0.000  1.00  0.00    -0.017 C 
BRANCH  53  54
ATOM     54  C   UNL     1      12.951 -24.334   0.000  1.00  0.00     0.008 C 
BRANCH  54  55
ATOM     55  C   UNL     1      13.525 -25.852  -0.440  1.00  0.00     0.001 C 
BRANCH  55  56
ATOM     56  C   UNL     1      14.642 -26.728   0.502  1.00  0.00     0.000 C 
BRANCH  56  57
ATOM     57  C   UNL     1      15.201 -28.231   0.000  1.00  0.00     0.000 C 
BRANCH  57  58
ATOM     58  C   UNL     1      15.951 -29.530   0.000  1.00  0.00     0.000 C 
BRANCH  58  59
ATOM     59  C   UNL     1      16.701 -30.829   0.000  1.00  0.00     0.003 C 
BRANCH  59  60
ATOM     60  C   UNL     1      17.451 -32.128   0.000  1.00  0.00    -0.015 C 
ATOM     61  C   UNL     1      18.201 -33.427   0.000  1.00  0.00     0.007 C 
BRANCH  60  62
ATOM     62  C   UNL     1      18.750 -31.378   0.000  1.00  0.00    -0.000 C 
ATOM     63  C   UNL     1      20.049 -30.628   0.000  1.00  0.00     0.004 C 
ENDBRANCH  60  62
ENDBRANCH  59  60
ENDBRANCH  58  59
ENDBRANCH  57  58
ENDBRANCH  56  57
ENDBRANCH  55  56
ENDBRANCH  54  55
ENDBRANCH  53  54
ENDBRANCH  52  53
ENDBRANCH  51  52
ENDBRANCH  50  51
ENDBRANCH  49  50
ENDBRANCH  48  49
ENDBRANCH  47  48
ENDBRANCH  46  47
ENDBRANCH  45  46
ENDBRANCH  44  45
ENDBRANCH  43  44
ENDBRANCH  42  43
ENDBRANCH   1  42
TORSDOF 55
