REMARK SMILES CCC(=O)O[C@H]1[C@H](O)[C@@H](O)[C@H](O[C@H]2[C@@H](O)[C@H](Oc3c(-c4ccc(OC)cc4)oc4c(CC=C(C)C)c(O[C@@H]5O[C@H](CO)[C@@H](O)[C@H](O)[C@H]5O)cc(O)c4c3=O)O[C@@H](C)[C@@H]2OC(C)=O)O[C@@H]1COC(C)=O
REMARK SMILES IDX 13 1 14 2 16 3 55 4 56 5 57 6 58 7 12 8 11 9 6 10 7 11 64 12
REMARK SMILES IDX 9 13 63 14 5 15 3 16 4 17 2 18 1 19 8 20 65 22 66 23 67 24
REMARK SMILES IDX 69 25 68 26 10 27 15 29 59 31 60 32 62 33 61 34 17 35 18 36
REMARK SMILES IDX 19 37 53 38 28 39 52 40 54 41 29 42 50 43 30 44 49 45 36 46
REMARK SMILES IDX 20 47 21 48 27 49 22 50 26 51 23 52 24 53 25 54 51 55 31 57
REMARK SMILES IDX 32 58 33 59 34 60 35 61 37 62 38 63 39 64 47 65 40 66 45 67
REMARK SMILES IDX 43 68 48 69 41 71 42 72 46 74 44 76
REMARK H PARENT 8 21 10 28 15 30 51 56 48 70 42 73 46 75 44 77
ROOT
ATOM      1  C   UNL     1       4.077  -2.197   0.292  1.00  0.00     0.200 C 
ATOM      2  C   UNL     1       2.827  -2.444   1.165  1.00  0.00     0.216 C 
ATOM      3  C   UNL     1       1.546  -2.152   0.361  1.00  0.00     0.339 C 
ATOM      4  O   UNL     1       1.484  -3.003  -0.778  1.00  0.00    -0.334 OA
ATOM      5  C   UNL     1       2.552  -2.775  -1.691  1.00  0.00     0.163 C 
ATOM      6  C   UNL     1       2.384  -1.449  -2.449  1.00  0.00     0.043 C 
ATOM      7  C   UNL     1       3.942  -2.979  -1.027  1.00  0.00     0.237 C 
ENDROOT
BRANCH   1   8
ATOM      8  O   UNL     1       4.252  -0.804   0.029  1.00  0.00    -0.340 OA
BRANCH   8   9
ATOM      9  C   UNL     1       5.581  -0.347   0.297  1.00  0.00     0.282 C 
ATOM     10  C   UNL     1       5.840   2.415  -0.554  1.00  0.00     0.240 C 
ATOM     11  C   UNL     1       5.878   1.290  -1.633  1.00  0.00     0.192 C 
ATOM     12  C   UNL     1       6.283   1.882   0.832  1.00  0.00     0.203 C 
ATOM     13  C   UNL     1       6.327  -0.061  -1.043  1.00  0.00     0.203 C 
ATOM     14  O   UNL     1       5.489   0.763   1.194  1.00  0.00    -0.339 OA
BRANCH  10  15
ATOM     15  O   UNL     1       6.648   3.471  -0.946  1.00  0.00    -0.457 OA
BRANCH  15  16
ATOM     16  C   UNL     1       6.223   4.733  -1.216  1.00  0.00     0.305 C 
ATOM     17  O   UNL     1       5.034   5.021  -1.153  1.00  0.00    -0.252 OA
BRANCH  16  18
ATOM     18  C   UNL     1       7.245   5.768  -1.600  1.00  0.00     0.119 C 
ATOM     19  C   UNL     1       6.633   7.139  -1.890  1.00  0.00     0.016 C 
ENDBRANCH  16  18
ENDBRANCH  15  16
ENDBRANCH  10  15
BRANCH  11  20
ATOM     20  O   UNL     1       4.640   1.180  -2.291  1.00  0.00    -0.386 OA
ATOM     21  H   UNL     1       3.937   1.078  -1.603  1.00  0.00     0.211 HD
ENDBRANCH  11  20
BRANCH  12  22
ATOM     22  C   UNL     1       6.131   2.962   1.918  1.00  0.00     0.269 C 
BRANCH  22  23
ATOM     23  O   UNL     1       6.456   2.462   3.169  1.00  0.00    -0.463 OA
BRANCH  23  24
ATOM     24  C   UNL     1       7.695   2.068   3.566  1.00  0.00     0.302 C 
ATOM     25  O   UNL     1       8.670   2.232   2.847  1.00  0.00    -0.253 OA
ATOM     26  C   UNL     1       7.870   1.430   4.906  1.00  0.00     0.139 C 
ENDBRANCH  23  24
ENDBRANCH  22  23
ENDBRANCH  12  22
BRANCH  13  27
ATOM     27  O   UNL     1       7.714  -0.005  -0.812  1.00  0.00    -0.385 OA
ATOM     28  H   UNL     1       8.031  -0.941  -0.707  1.00  0.00     0.211 HD
ENDBRANCH  13  27
ENDBRANCH   8   9
ENDBRANCH   1   8
BRANCH   2  29
ATOM     29  O   UNL     1       2.883  -1.697   2.356  1.00  0.00    -0.384 OA
ATOM     30  H   UNL     1       2.799  -0.738   2.116  1.00  0.00     0.211 HD
ENDBRANCH   2  29
BRANCH   7  31
ATOM     31  O   UNL     1       4.136  -4.327  -0.750  1.00  0.00    -0.457 OA
BRANCH  31  32
ATOM     32  C   UNL     1       5.137  -5.082  -1.288  1.00  0.00     0.303 C 
ATOM     33  O   UNL     1       5.815  -4.666  -2.217  1.00  0.00    -0.253 OA
ATOM     34  C   UNL     1       5.440  -6.429  -0.724  1.00  0.00     0.139 C 
ENDBRANCH  31  32
ENDBRANCH   7  31
BRANCH   3  35
ATOM     35  O   UNL     1       0.429  -2.409   1.141  1.00  0.00    -0.454 OA
BRANCH  35  36
ATOM     36  C   UNL     1      -0.747  -1.738   1.025  1.00  0.00     0.214 A 
ATOM     37  C   UNL     1      -1.936  -2.420   0.675  1.00  0.00     0.180 A 
ATOM     38  C   UNL     1      -0.797  -0.348   1.207  1.00  0.00     0.239 A 
ATOM     39  O   UNL     1      -3.059  -1.718   0.482  1.00  0.00    -0.451 OA
ATOM     40  C   UNL     1      -2.006   0.346   1.013  1.00  0.00     0.111 A 
ATOM     41  O   UNL     1       0.215   0.248   1.537  1.00  0.00    -0.285 OA
ATOM     42  C   UNL     1      -3.151  -0.393   0.630  1.00  0.00     0.149 A 
ATOM     43  C   UNL     1      -2.102   1.742   1.176  1.00  0.00     0.134 A 
ATOM     44  C   UNL     1      -4.391   0.271   0.420  1.00  0.00     0.042 A 
ATOM     45  C   UNL     1      -3.319   2.389   0.966  1.00  0.00     0.094 A 
ATOM     46  C   UNL     1      -4.481   1.679   0.600  1.00  0.00     0.134 A 
BRANCH  37  47
ATOM     47  C   UNL     1      -1.991  -3.906   0.467  1.00  0.00     0.021 A 
ATOM     48  C   UNL     1      -3.031  -4.434  -0.314  1.00  0.00     0.016 A 
ATOM     49  C   UNL     1      -1.058  -4.813   1.021  1.00  0.00     0.016 A 
ATOM     50  C   UNL     1      -3.136  -5.807  -0.553  1.00  0.00     0.047 A 
ATOM     51  C   UNL     1      -1.165  -6.187   0.787  1.00  0.00     0.047 A 
ATOM     52  C   UNL     1      -2.206  -6.696  -0.008  1.00  0.00     0.118 A 
BRANCH  52  53
ATOM     53  O   UNL     1      -2.346  -8.022  -0.269  1.00  0.00    -0.497 OA
ATOM     54  C   UNL     1      -1.516  -9.024   0.193  1.00  0.00     0.278 C 
ENDBRANCH  52  53
ENDBRANCH  37  47
BRANCH  43  55
ATOM     55  O   UNL     1      -1.022   2.475   1.530  1.00  0.00    -0.507 OA
ATOM     56  H   UNL     1      -1.057   3.434   1.653  1.00  0.00     0.293 HD
ENDBRANCH  43  55
BRANCH  44  57
ATOM     57  C   UNL     1      -5.640  -0.510   0.012  1.00  0.00     0.070 C 
BRANCH  57  58
ATOM     58  C   UNL     1      -5.485  -1.113  -1.366  1.00  0.00    -0.023 C 
ATOM     59  C   UNL     1      -5.859  -2.358  -1.755  1.00  0.00    -0.080 C 
ATOM     60  C   UNL     1      -6.537  -3.378  -0.864  1.00  0.00     0.039 C 
ATOM     61  C   UNL     1      -5.632  -2.780  -3.186  1.00  0.00     0.039 C 
ENDBRANCH  57  58
ENDBRANCH  44  57
BRANCH  46  62
ATOM     62  O   UNL     1      -5.677   2.318   0.399  1.00  0.00    -0.461 OA
BRANCH  62  63
ATOM     63  C   UNL     1      -6.025   3.619   0.758  1.00  0.00     0.339 C 
ATOM     64  O   UNL     1      -7.229   3.557   1.531  1.00  0.00    -0.332 OA
ATOM     65  C   UNL     1      -6.162   4.493  -0.554  1.00  0.00     0.214 C 
ATOM     66  C   UNL     1      -7.844   4.828   1.603  1.00  0.00     0.179 C 
ATOM     67  C   UNL     1      -7.646   4.573  -0.949  1.00  0.00     0.180 C 
ATOM     68  C   UNL     1      -8.477   5.189   0.225  1.00  0.00     0.177 C 
BRANCH  65  69
ATOM     69  O   UNL     1      -5.657   5.805  -0.424  1.00  0.00    -0.384 OA
ATOM     70  H   UNL     1      -5.358   5.981   0.502  1.00  0.00     0.211 HD
ENDBRANCH  65  69
BRANCH  66  71
ATOM     71  C   UNL     1      -8.876   4.849   2.736  1.00  0.00     0.191 C 
BRANCH  71  72
ATOM     72  O   UNL     1      -9.441   6.124   2.878  1.00  0.00    -0.394 OA
ATOM     73  H   UNL     1      -8.783   6.671   3.383  1.00  0.00     0.210 HD
ENDBRANCH  71  72
ENDBRANCH  66  71
BRANCH  67  74
ATOM     74  O   UNL     1      -8.103   3.282  -1.295  1.00  0.00    -0.387 OA
ATOM     75  H   UNL     1      -8.419   2.809  -0.483  1.00  0.00     0.211 HD
ENDBRANCH  67  74
BRANCH  68  76
ATOM     76  O   UNL     1      -8.617   6.585   0.105  1.00  0.00    -0.387 OA
ATOM     77  H   UNL     1      -7.715   6.993   0.133  1.00  0.00     0.211 HD
ENDBRANCH  68  76
ENDBRANCH  62  63
ENDBRANCH  46  62
ENDBRANCH  35  36
ENDBRANCH   3  35
TORSDOF 27
