REMARK SMILES C[C@@H]1CCCCCCC/C=C/c2cc(O)cc(O)c2C(=O)O1
REMARK SMILES IDX 20 1 21 2 22 3 2 4 1 5 3 6 4 7 5 8 6 9 19 11 17 12 12 13
REMARK SMILES IDX 16 14 13 15 14 16 18 17 11 19 10 20 9 21 8 22 7 23 15 25
REMARK H PARENT 18 18 15 26
REMARK Flexibility Score:   35.900
ROOT
ATOM      1  C   UNL     1      -1.329  -1.715   0.241  1.00  0.00     0.342 C 
ATOM      2  O   UNL     1      -1.535  -2.905   0.444  1.00  0.00    -0.246 OA
ENDROOT
BRANCH   1   3
ATOM      3  O   UNL     1      -0.036  -1.287   0.280  1.00  0.00    -0.459 OA
BRANCH   3   4
ATOM      4  C   UNL     1       1.037  -2.133   0.599  1.00  0.00     0.173 C 
ATOM      5  C   UNL     1       0.951  -2.579   2.072  1.00  0.00     0.053 C 
BRANCH   4   6
ATOM      6  C   UNL     1       2.368  -1.402   0.387  1.00  0.00     0.045 C 
BRANCH   6   7
ATOM      7  C   UNL     1       2.611  -0.999  -1.088  1.00  0.00     0.004 C 
BRANCH   7   8
ATOM      8  C   UNL     1       3.746   0.055  -1.260  1.00  0.00     0.000 C 
BRANCH   8   9
ATOM      9  C   UNL     1       3.640   1.254  -0.281  1.00  0.00     0.000 CG0
ATOM     10  G   UNL     1       2.238   1.903  -0.262  1.00  0.00     0.000 G0
ENDBRANCH   8   9
ENDBRANCH   7   8
ENDBRANCH   6   7
ENDBRANCH   4   6
ENDBRANCH   3   4
ENDBRANCH   1   3
BRANCH   1  11
ATOM     11  C   UNL     1      -2.502  -0.840  -0.165  1.00  0.00     0.109 A 
ATOM     12  C   UNL     1      -3.716  -1.523  -0.526  1.00  0.00     0.134 A 
ATOM     13  C   UNL     1      -2.502   0.606  -0.277  1.00  0.00    -0.004 A 
ATOM     14  C   UNL     1      -4.840  -0.826  -0.972  1.00  0.00     0.093 A 
ATOM     15  C   UNL     1      -3.669   1.247  -0.757  1.00  0.00     0.055 A 
ATOM     16  C   UNL     1      -4.821   0.547  -1.092  1.00  0.00     0.119 A 
BRANCH  12  17
ATOM     17  O   UNL     1      -3.808  -2.872  -0.466  1.00  0.00    -0.507 OA
ATOM     18  H   UNL     1      -4.607  -3.357  -0.714  1.00  0.00     0.293 HD
ENDBRANCH  12  17
BRANCH  13  19
ATOM     19  C   UNL     1      -1.447   1.615   0.082  1.00  0.00     0.005 C 
ATOM     20  C   UNL     1      -0.486   1.553   1.018  1.00  0.00    -0.026 C 
BRANCH  20  21
ATOM     21  C   UNL     1       0.401   2.781   1.261  1.00  0.00     0.027 C 
BRANCH  21  22
ATOM     22  C   UNL     1       1.899   2.476   1.121  1.00  0.00     0.004 C 
BRANCH  22  23
ATOM     23  C   UNL     1       2.238   1.903  -0.262  1.00  0.00     0.000 CG0
ATOM     24  G   UNL     1       3.640   1.254  -0.281  1.00  0.00     0.000 G0
ENDBRANCH  22  23
ENDBRANCH  21  22
ENDBRANCH  20  21
ENDBRANCH  13  19
BRANCH  16  25
ATOM     25  O   UNL     1      -5.925   1.191  -1.524  1.00  0.00    -0.508 OA
ATOM     26  H   UNL     1      -5.962   2.154  -1.608  1.00  0.00     0.293 HD
ENDBRANCH  16  25
ENDBRANCH   1  11
TORSDOF 2
