REMARK SMILES CC(C)=CCC[C@H](C)[C@@H]1CC[C@]2(C)C3=C(CC[C@@]12C)[C@@]1(C)CC[C@H](O)C(C)(C)[C@@H]1CC3=O
REMARK SMILES IDX 6 1 5 2 4 3 2 4 1 5 3 6 7 7 8 8 9 9 10 10 18 11 11 12 17 13
REMARK SMILES IDX 12 14 16 15 14 16 15 17 31 18 20 19 30 20 32 21 22 22 29 23
REMARK SMILES IDX 23 24 26 25 24 26 19 27 13 28 21 29 27 30 28 31 25 32
REMARK H PARENT 25 33
ROOT
ATOM      1  C   UNL     1       3.821   0.923   1.319  1.00  0.00     0.008 C 
ENDROOT
BRANCH   1   2
ATOM      2  C   UNL     1       4.874   0.290   2.253  1.00  0.00     0.027 C 
BRANCH   2   3
ATOM      3  C   UNL     1       6.303   0.493   1.813  1.00  0.00    -0.028 C 
ATOM      4  C   UNL     1       7.179  -0.503   1.548  1.00  0.00    -0.080 C 
ATOM      5  C   UNL     1       8.576  -0.136   1.121  1.00  0.00     0.039 C 
ATOM      6  C   UNL     1       6.793  -1.960   1.651  1.00  0.00     0.039 C 
ENDBRANCH   2   3
ENDBRANCH   1   2
BRANCH   1   7
ATOM      7  C   UNL     1       3.626   0.208  -0.055  1.00  0.00    -0.010 C 
ATOM      8  C   UNL     1       4.829   0.481  -0.988  1.00  0.00     0.008 C 
BRANCH   7   9
ATOM      9  C   UNL     1       2.318   0.594  -0.833  1.00  0.00    -0.001 C 
ATOM     10  C   UNL     1       2.094   2.101  -1.157  1.00  0.00     0.005 C 
ATOM     11  C   UNL     1       0.899   0.100  -0.441  1.00  0.00    -0.020 C 
ATOM     12  C   UNL     1       0.559   2.273  -1.359  1.00  0.00     0.012 C 
ATOM     13  C   UNL     1       0.642  -1.407  -0.597  1.00  0.00     0.012 C 
ATOM     14  C   UNL     1       0.027   0.839  -1.530  1.00  0.00     0.002 C 
ATOM     15  C   UNL     1      -0.842  -1.720  -0.301  1.00  0.00     0.032 C 
ATOM     16  C   UNL     1      -1.457   0.568  -1.280  1.00  0.00     0.001 C 
ATOM     17  C   UNL     1      -1.853  -0.644  -0.749  1.00  0.00    -0.057 C 
ATOM     18  C   UNL     1      -2.494   1.590  -1.656  1.00  0.00     0.159 C 
ATOM     19  C   UNL     1      -3.362  -0.928  -0.605  1.00  0.00    -0.007 C 
ATOM     20  C   UNL     1      -3.908   1.504  -1.123  1.00  0.00     0.086 C 
ATOM     21  O   UNL     1      -2.203   2.528  -2.382  1.00  0.00    -0.295 OA
ATOM     22  C   UNL     1      -3.700  -2.064   0.381  1.00  0.00     0.014 C 
ATOM     23  C   UNL     1      -4.011   0.405  -0.039  1.00  0.00     0.015 C 
ATOM     24  C   UNL     1      -5.233  -2.300   0.529  1.00  0.00     0.033 C 
ATOM     25  C   UNL     1      -5.398   0.274   0.757  1.00  0.00    -0.005 C 
ATOM     26  C   UNL     1      -6.136  -1.037   0.351  1.00  0.00     0.120 C 
ATOM     27  C   UNL     1       0.547   0.509   1.033  1.00  0.00     0.012 C 
ATOM     28  C   UNL     1       0.244   0.452  -3.035  1.00  0.00     0.017 C 
ATOM     29  C   UNL     1      -3.799  -1.392  -2.030  1.00  0.00     0.016 C 
ATOM     30  C   UNL     1      -5.142   0.220   2.297  1.00  0.00     0.014 C 
ATOM     31  C   UNL     1      -6.320   1.510   0.560  1.00  0.00     0.014 C 
BRANCH  26  32
ATOM     32  O   UNL     1      -6.671  -0.998  -0.955  1.00  0.00    -0.393 OA
ATOM     33  H   UNL     1      -6.291  -0.245  -1.470  1.00  0.00     0.210 HD
ENDBRANCH  26  32
ENDBRANCH   7   9
ENDBRANCH   1   7
TORSDOF 5
