REMARK SMILES CC(=O)O[C@H]1CC[C@]2(C)[C@H]3C=C[C@@]45OC(=O)[C@]6(CC[C@@H](C)[C@H](C)[C@H]64)CC[C@]5(C)[C@@]3(C)CC[C@H]2C1(C)C
REMARK SMILES IDX 4 1 2 2 3 3 1 4 5 5 6 6 34 7 7 8 33 9 8 10 32 11 10 12 31 13
REMARK SMILES IDX 11 14 29 15 12 16 27 17 13 18 26 19 14 20 24 21 25 22 15 23
REMARK SMILES IDX 22 24 17 25 16 26 20 27 18 28 19 29 35 30 36 31 9 32 30 33
REMARK SMILES IDX 28 34 23 35 21 36
REMARK H PARENT
ROOT
ATOM      1  O   UNL     1       6.386   0.573   0.059  1.00  0.00    -0.462 OA
ENDROOT
BRANCH   1   2
ATOM      2  C   UNL     1       7.422  -0.024   0.707  1.00  0.00     0.302 C 
ATOM      3  O   UNL     1       7.230  -0.785   1.645  1.00  0.00    -0.253 OA
ATOM      4  C   UNL     1       8.818   0.238   0.241  1.00  0.00     0.139 C 
ENDBRANCH   1   2
BRANCH   1   5
ATOM      5  C   UNL     1       5.039   0.358   0.315  1.00  0.00     0.182 C 
ATOM      6  C   UNL     1       4.370   1.676   0.771  1.00  0.00     0.046 C 
ATOM      7  C   UNL     1       4.351  -0.305  -0.934  1.00  0.00     0.005 C 
ATOM      8  C   UNL     1       2.838   1.502   1.046  1.00  0.00     0.011 C 
ATOM      9  C   UNL     1       2.822  -0.410  -0.576  1.00  0.00     0.005 C 
ATOM     10  C   UNL     1       2.068   0.950  -0.201  1.00  0.00    -0.022 C 
ATOM     11  C   UNL     1       1.906  -1.299  -1.407  1.00  0.00     0.005 C 
ATOM     12  C   UNL     1       0.485   0.666   0.063  1.00  0.00     0.024 C 
ATOM     13  C   UNL     1       0.682  -1.764  -0.530  1.00  0.00     0.008 C 
ATOM     14  C   UNL     1      -0.370   0.724  -1.241  1.00  0.00    -0.023 C 
ATOM     15  C   UNL     1       0.158  -0.767   0.624  1.00  0.00    -0.016 C 
ATOM     16  C   UNL     1      -1.670   0.398  -1.253  1.00  0.00     0.018 C 
ATOM     17  C   UNL     1      -1.463  -0.937   0.911  1.00  0.00     0.017 C 
ATOM     18  C   UNL     1      -2.337   0.110   0.055  1.00  0.00     0.140 C 
ATOM     19  C   UNL     1      -1.898  -0.655   2.403  1.00  0.00     0.013 C 
ATOM     20  O   UNL     1      -2.345   1.364   0.680  1.00  0.00    -0.453 OA
ATOM     21  C   UNL     1      -3.880  -0.303   0.108  1.00  0.00     0.058 C 
ATOM     22  C   UNL     1      -3.446  -0.618   2.595  1.00  0.00     0.020 C 
ATOM     23  C   UNL     1      -3.456   1.538   1.412  1.00  0.00     0.313 C 
ATOM     24  C   UNL     1      -4.796   0.318  -1.016  1.00  0.00    -0.003 C 
ATOM     25  C   UNL     1      -4.182   0.252   1.522  1.00  0.00     0.075 C 
ATOM     26  O   UNL     1      -3.847   2.631   1.792  1.00  0.00    -0.252 OA
ATOM     27  C   UNL     1      -6.300   0.350  -0.570  1.00  0.00    -0.011 C 
ATOM     28  C   UNL     1      -5.679   0.341   1.861  1.00  0.00     0.019 C 
ATOM     29  C   UNL     1      -6.461   1.075   0.774  1.00  0.00     0.005 C 
ATOM     30  C   UNL     1       4.662   0.422  -2.266  1.00  0.00     0.015 C 
ATOM     31  C   UNL     1       4.957  -1.732  -1.090  1.00  0.00     0.015 C 
ATOM     32  C   UNL     1       2.128   2.102  -1.265  1.00  0.00     0.012 C 
ATOM     33  C   UNL     1       0.883  -1.097   1.978  1.00  0.00     0.013 C 
ATOM     34  C   UNL     1      -1.842  -2.439   0.648  1.00  0.00     0.016 C 
ATOM     35  C   UNL     1      -4.711  -0.549  -2.308  1.00  0.00     0.008 C 
ATOM     36  C   UNL     1      -7.219   1.027  -1.605  1.00  0.00     0.008 C 
ENDBRANCH   1   5
TORSDOF 2
