REMARK SMILES C=Nn1ccc2conc21
REMARK SMILES IDX 3 1 4 2 5 3 6 4 7 5 8 6 9 7 10 8 2 9 1 10
REMARK H PARENT
ROOT
ATOM      1  N   UNL     1      -0.784   0.486  -0.090  1.00  0.00    -0.220 N 
ATOM      2  C   UNL     1      -0.175   1.636  -0.491  1.00  0.00     0.116 A 
ATOM      3  C   UNL     1       1.220   1.453  -0.538  1.00  0.00     0.036 A 
ATOM      4  C   UNL     1       1.404   0.146  -0.149  1.00  0.00     0.062 A 
ATOM      5  C   UNL     1       2.311  -0.851   0.090  1.00  0.00     0.241 A 
ATOM      6  O   UNL     1       1.597  -1.911   0.470  1.00  0.00    -0.362 OA
ATOM      7  N   UNL     1       0.307  -1.656   0.487  1.00  0.00    -0.059 NA
ATOM      8  C   UNL     1       0.226  -0.378   0.100  1.00  0.00     0.203 A 
ENDROOT
BRANCH   1   9
ATOM      9  N   UNL     1      -2.160   0.319   0.064  1.00  0.00    -0.183 NA
ATOM     10  C   UNL     1      -2.712  -0.771   0.468  1.00  0.00     0.166 C 
ENDBRANCH   1   9
TORSDOF 1
