REMARK SMILES CC/C=C\CCO[C@H]1O[C@@H](CO[C@@H]2OC[C@](O)(COC(=O)/C=C\c3ccc(O)c(O)c3)[C@H]2O)[C@H](O)[C@@H](O)[C@@H]1O
REMARK SMILES IDX 12 1 11 2 10 3 8 4 9 5 38 6 36 7 34 8 7 9 6 10 5 11 4 12
REMARK SMILES IDX 3 13 2 14 1 15 39 16 37 18 35 20 13 22 14 23 32 24 15 25
REMARK SMILES IDX 16 26 33 27 17 29 18 31 19 32 20 33 21 34 22 35 23 36 24 37
REMARK SMILES IDX 25 38 31 39 26 40 29 41 27 42 30 43 28 45
REMARK H PARENT 39 17 37 19 35 21 33 28 17 30 30 44 28 46
ROOT
ATOM      1  O   UNL     1      -0.689  -1.315   1.545  1.00  0.00    -0.347 OA
ENDROOT
BRANCH   1   2
ATOM      2  C   UNL     1      -1.972  -1.358   0.962  1.00  0.00     0.198 C 
BRANCH   2   3
ATOM      3  C   UNL     1      -2.868  -0.321   1.660  1.00  0.00     0.178 C 
ATOM      4  C   UNL     1      -5.027   0.621   1.048  1.00  0.00     0.281 C 
ATOM      5  O   UNL     1      -4.218  -0.543   1.227  1.00  0.00    -0.341 OA
ATOM      6  C   UNL     1      -4.754   1.716   2.108  1.00  0.00     0.202 C 
ATOM      7  C   UNL     1      -3.268   2.164   2.093  1.00  0.00     0.179 C 
ATOM      8  C   UNL     1      -2.366   1.127   1.389  1.00  0.00     0.177 C 
BRANCH   4   9
ATOM      9  O   UNL     1      -4.843   1.112  -0.272  1.00  0.00    -0.350 OA
BRANCH   9  10
ATOM     10  C   UNL     1      -6.010   1.744  -0.775  1.00  0.00     0.168 C 
BRANCH  10  11
ATOM     11  C   UNL     1      -6.711   0.864  -1.814  1.00  0.00     0.055 C 
BRANCH  11  12
ATOM     12  C   UNL     1      -7.156  -0.450  -1.210  1.00  0.00    -0.029 C 
ATOM     13  C   UNL     1      -8.421  -0.900  -1.086  1.00  0.00    -0.031 C 
BRANCH  13  14
ATOM     14  C   UNL     1      -9.684  -0.191  -1.513  1.00  0.00     0.023 C 
ATOM     15  C   UNL     1     -10.441  -1.037  -2.530  1.00  0.00     0.008 C 
ENDBRANCH  13  14
ENDBRANCH  11  12
ENDBRANCH  10  11
ENDBRANCH   9  10
ENDBRANCH   4   9
BRANCH   6  16
ATOM     16  O   UNL     1      -5.130   1.250   3.384  1.00  0.00    -0.385 OA
ATOM     17  H   UNL     1      -4.566   0.476   3.627  1.00  0.00     0.211 HD
ENDBRANCH   6  16
BRANCH   7  18
ATOM     18  O   UNL     1      -3.105   3.425   1.491  1.00  0.00    -0.387 OA
ATOM     19  H   UNL     1      -3.486   3.373   0.576  1.00  0.00     0.211 HD
ENDBRANCH   7  18
BRANCH   8  20
ATOM     20  O   UNL     1      -1.022   1.330   1.746  1.00  0.00    -0.387 OA
ATOM     21  H   UNL     1      -0.936   1.112   2.710  1.00  0.00     0.211 HD
ENDBRANCH   8  20
ENDBRANCH   2   3
ENDBRANCH   1   2
BRANCH   1  22
ATOM     22  C   UNL     1       0.264  -2.026   0.783  1.00  0.00     0.282 C 
ATOM     23  O   UNL     1       1.091  -2.772   1.663  1.00  0.00    -0.347 OA
ATOM     24  C   UNL     1       1.171  -1.036   0.049  1.00  0.00     0.208 C 
ATOM     25  C   UNL     1       2.427  -2.399   1.382  1.00  0.00     0.205 C 
ATOM     26  C   UNL     1       2.453  -1.825  -0.035  1.00  0.00     0.153 C 
BRANCH  24  27
ATOM     27  O   UNL     1       0.668  -0.575  -1.181  1.00  0.00    -0.385 OA
ATOM     28  H   UNL     1       0.409  -1.366  -1.720  1.00  0.00     0.211 HD
ENDBRANCH  24  27
BRANCH  26  29
ATOM     29  O   UNL     1       2.328  -2.857  -0.990  1.00  0.00    -0.381 OA
ATOM     30  H   UNL     1       3.104  -3.464  -0.881  1.00  0.00     0.211 HD
ENDBRANCH  26  29
BRANCH  26  31
ATOM     31  C   UNL     1       3.684  -0.945  -0.325  1.00  0.00     0.273 C 
BRANCH  31  32
ATOM     32  O   UNL     1       4.847  -1.663  -0.127  1.00  0.00    -0.459 OA
BRANCH  32  33
ATOM     33  C   UNL     1       6.084  -1.103  -0.140  1.00  0.00     0.330 C 
ATOM     34  O   UNL     1       6.208   0.090  -0.364  1.00  0.00    -0.247 OA
BRANCH  33  35
ATOM     35  C   UNL     1       7.228  -1.933   0.315  1.00  0.00     0.094 C 
ATOM     36  C   UNL     1       8.535  -1.600   0.426  1.00  0.00     0.016 C 
BRANCH  36  37
ATOM     37  C   UNL     1       9.243  -0.355   0.011  1.00  0.00    -0.021 A 
ATOM     38  C   UNL     1      10.380   0.025   0.744  1.00  0.00     0.012 A 
ATOM     39  C   UNL     1       8.868   0.426  -1.099  1.00  0.00     0.058 A 
ATOM     40  C   UNL     1      11.096   1.177   0.410  1.00  0.00     0.051 A 
ATOM     41  C   UNL     1       9.586   1.578  -1.444  1.00  0.00     0.157 A 
ATOM     42  C   UNL     1      10.702   1.962  -0.681  1.00  0.00     0.157 A 
BRANCH  41  43
ATOM     43  O   UNL     1       9.193   2.295  -2.518  1.00  0.00    -0.504 OA
ATOM     44  H   UNL     1       9.651   3.096  -2.809  1.00  0.00     0.293 HD
ENDBRANCH  41  43
BRANCH  42  45
ATOM     45  O   UNL     1      11.394   3.074  -1.005  1.00  0.00    -0.504 OA
ATOM     46  H   UNL     1      12.166   3.366  -0.499  1.00  0.00     0.293 HD
ENDBRANCH  42  45
ENDBRANCH  36  37
ENDBRANCH  33  35
ENDBRANCH  32  33
ENDBRANCH  31  32
ENDBRANCH  26  31
ENDBRANCH   1  22
TORSDOF 20
