REMARK SMILES CCn1cc(C=C2Oc3cc(OCC(=O)OCc4ccccc4)ccc3C2=O)c2cc(OC)ccc21
REMARK SMILES IDX 12 1 11 2 6 3 7 4 8 5 27 6 9 7 26 8 28 9 10 10 25 11 24 12
REMARK SMILES IDX 5 13 3 14 4 15 36 16 35 17 29 18 34 19 30 20 31 21 2 22 1 23
REMARK SMILES IDX 32 24 33 25 13 26 14 27 15 28 16 29 17 30 18 31 19 32 23 33
REMARK SMILES IDX 20 34 22 35 21 36
REMARK H PARENT
ROOT
ATOM      1  O   UNL     1       4.031   0.111  -2.818  1.00  0.00    -0.482 OA
ENDROOT
BRANCH   1   2
ATOM      2  C   UNL     1       2.808   0.502  -2.362  1.00  0.00     0.123 A 
ATOM      3  C   UNL     1      -2.809  -0.615  -0.994  1.00  0.00     0.061 C 
ATOM      4  C   UNL     1      -1.604  -0.076  -1.266  1.00  0.00     0.176 C 
ATOM      5  O   UNL     1      -0.627  -0.790  -1.893  1.00  0.00    -0.452 OA
ATOM      6  C   UNL     1      -1.054   1.248  -0.922  1.00  0.00     0.231 C 
ATOM      7  C   UNL     1       0.492  -0.032  -1.939  1.00  0.00     0.142 A 
ATOM      8  C   UNL     1       0.311   1.204  -1.370  1.00  0.00     0.069 A 
ATOM      9  O   UNL     1      -1.554   2.143  -0.261  1.00  0.00    -0.285 OA
ATOM     10  C   UNL     1       1.734  -0.408  -2.456  1.00  0.00     0.094 A 
ATOM     11  C   UNL     1       1.334   2.136  -1.269  1.00  0.00     0.020 A 
ATOM     12  C   UNL     1       2.594   1.779  -1.767  1.00  0.00     0.047 A 
BRANCH   3  13
ATOM     13  C   UNL     1      -3.959   0.051  -0.329  1.00  0.00     0.004 A 
ATOM     14  N   UNL     1      -5.441   1.585   0.405  1.00  0.00    -0.347 N 
ATOM     15  C   UNL     1      -4.305   1.402  -0.309  1.00  0.00     0.095 A 
ATOM     16  C   UNL     1      -5.817   0.366   0.847  1.00  0.00     0.049 A 
ATOM     17  C   UNL     1      -6.909   0.034   1.652  1.00  0.00     0.031 A 
ATOM     18  C   UNL     1      -4.941  -0.592   0.403  1.00  0.00     0.011 A 
ATOM     19  C   UNL     1      -7.092  -1.315   1.997  1.00  0.00     0.048 A 
ATOM     20  C   UNL     1      -5.098  -1.941   0.727  1.00  0.00     0.057 A 
ATOM     21  C   UNL     1      -6.196  -2.310   1.544  1.00  0.00     0.119 A 
BRANCH  14  22
ATOM     22  C   UNL     1      -6.091   2.879   0.633  1.00  0.00     0.119 C 
ATOM     23  C   UNL     1      -7.449   2.947  -0.063  1.00  0.00     0.027 C 
ENDBRANCH  14  22
BRANCH  21  24
ATOM     24  O   UNL     1      -6.419  -3.594   1.927  1.00  0.00    -0.497 OA
ATOM     25  C   UNL     1      -5.621  -4.676   1.613  1.00  0.00     0.278 C 
ENDBRANCH  21  24
ENDBRANCH   3  13
ENDBRANCH   1   2
BRANCH   1  26
ATOM     26  C   UNL     1       5.230   0.759  -2.558  1.00  0.00     0.351 C 
BRANCH  26  27
ATOM     27  C   UNL     1       5.561   0.726  -1.085  1.00  0.00     0.344 C 
ATOM     28  O   UNL     1       4.829   0.131  -0.305  1.00  0.00    -0.248 OA
BRANCH  27  29
ATOM     29  O   UNL     1       6.655   1.391  -0.628  1.00  0.00    -0.458 OA
BRANCH  29  30
ATOM     30  C   UNL     1       7.004   1.467   0.710  1.00  0.00     0.268 C 
BRANCH  30  31
ATOM     31  C   UNL     1       7.421   0.118   1.236  1.00  0.00    -0.011 A 
ATOM     32  C   UNL     1       8.547  -0.524   0.697  1.00  0.00     0.007 A 
ATOM     33  C   UNL     1       6.697  -0.509   2.265  1.00  0.00     0.007 A 
ATOM     34  C   UNL     1       8.945  -1.773   1.182  1.00  0.00     0.000 A 
ATOM     35  C   UNL     1       7.095  -1.762   2.742  1.00  0.00     0.000 A 
ATOM     36  C   UNL     1       8.219  -2.393   2.202  1.00  0.00     0.000 A 
ENDBRANCH  30  31
ENDBRANCH  29  30
ENDBRANCH  27  29
ENDBRANCH  26  27
ENDBRANCH   1  26
TORSDOF 9
