REMARK SMILES C[C@@]1(O)C(=O)N2[C@@H]3C(=O)NC(=O)NC3=NC[C@@]2(O)[C@H](C(=O)O[C@@H]2[C@H](O)[C@H](O)[C@@H](O)[C@@H](O)[C@@H]2O)[C@]12C(=O)Nc1cc(Br)ccc12
REMARK SMILES IDX 20 1 21 2 19 3 2 4 4 5 34 6 5 7 6 8 35 9 44 10 7 11 17 12
REMARK SMILES IDX 36 13 37 14 43 15 38 16 8 17 14 18 16 19 42 20 39 21 9 22
REMARK SMILES IDX 10 23 13 24 15 25 40 26 11 27 12 28 1 29 41 33 3 34 18 36
REMARK SMILES IDX 22 38 23 39 24 40 32 41 26 42 30 43 28 44 25 45 33 47 27 49
REMARK SMILES IDX 31 51 29 53
REMARK H PARENT 37 30 10 31 13 32 3 35 18 37 25 46 33 48 27 50 31 52 29 54
ROOT
ATOM      1  C   UNL     1       0.639   0.709   0.834  1.00  0.00     0.315 C 
ATOM      2  O   UNL     1       0.770   1.669   1.577  1.00  0.00    -0.252 OA
ENDROOT
BRANCH   1   3
ATOM      3  C   UNL     1      -0.737   0.341   0.260  1.00  0.00     0.177 C 
ATOM      4  C   UNL     1      -3.376   0.710   0.477  1.00  0.00     0.160 C 
ATOM      5  C   UNL     1      -3.354  -0.441  -0.517  1.00  0.00     0.259 C 
ATOM      6  C   UNL     1      -1.927   1.375   0.557  1.00  0.00     0.132 C 
ATOM      7  O   UNL     1      -4.248  -0.514  -1.343  1.00  0.00    -0.271 OA
ATOM      8  N   UNL     1      -2.330  -1.369  -0.466  1.00  0.00    -0.290 N 
ATOM      9  C   UNL     1      -1.809   2.114   1.897  1.00  0.00     0.239 C 
ATOM     10  C   UNL     1      -1.756   2.575  -0.361  1.00  0.00    -0.004 A 
ATOM     11  C   UNL     1      -2.209  -2.553  -1.363  1.00  0.00     0.244 C 
ATOM     12  C   UNL     1      -1.212  -1.128   0.501  1.00  0.00     0.176 C 
ATOM     13  O   UNL     1      -1.852   1.579   2.995  1.00  0.00    -0.274 OA
ATOM     14  N   UNL     1      -1.620   3.441   1.754  1.00  0.00    -0.325 N 
ATOM     15  C   UNL     1      -1.762   2.635  -1.759  1.00  0.00     0.008 A 
ATOM     16  C   UNL     1      -1.585   3.720   0.385  1.00  0.00     0.046 A 
ATOM     17  C   UNL     1      -3.406  -2.954  -2.223  1.00  0.00     0.258 C 
ATOM     18  C   UNL     1      -1.765  -3.698  -0.486  1.00  0.00     0.138 C 
ATOM     19  C   UNL     1      -0.105  -2.207   0.286  1.00  0.00     0.203 C 
ATOM     20  C   UNL     1      -1.581   3.884  -2.380  1.00  0.00     0.016 A 
ATOM     21  C   UNL     1      -1.402   4.970  -0.202  1.00  0.00     0.042 A 
ATOM     22  O   UNL     1      -3.801  -2.198  -3.095  1.00  0.00    -0.272 OA
ATOM     23  N   UNL     1      -4.006  -4.170  -2.087  1.00  0.00    -0.276 N 
ATOM     24  N   UNL     1      -2.478  -4.921  -0.441  1.00  0.00    -0.294 N 
ATOM     25  N   UNL     1      -0.752  -3.505   0.292  1.00  0.00    -0.265 NA
ATOM     26  C   UNL     1      -1.402   5.046  -1.605  1.00  0.00     0.020 A 
ATOM     27  C   UNL     1      -3.571  -5.126  -1.217  1.00  0.00     0.326 C 
ATOM     28  O   UNL     1      -4.163  -6.192  -1.155  1.00  0.00    -0.248 OA
ATOM     29  C   UNL     1      -4.484   1.754   0.164  1.00  0.00     0.054 C 
ATOM     30  H   UNL     1      -1.508   4.121   2.519  1.00  0.00     0.169 HD
ATOM     31  H   UNL     1      -4.817  -4.386  -2.688  1.00  0.00     0.174 HD
ATOM     32  H   UNL     1      -2.166  -5.665   0.200  1.00  0.00     0.173 HD
ATOM     33  Br  UNL     1      -1.157   6.736  -2.458  1.00  0.00    -0.051 Br
BRANCH   4  34
ATOM     34  O   UNL     1      -3.697   0.154   1.735  1.00  0.00    -0.379 OA
ATOM     35  H   UNL     1      -4.570  -0.318   1.663  1.00  0.00     0.212 HD
ENDBRANCH   4  34
BRANCH  12  36
ATOM     36  O   UNL     1      -1.678  -1.296   1.819  1.00  0.00    -0.368 OA
ATOM     37  H   UNL     1      -0.948  -1.026   2.436  1.00  0.00     0.213 HD
ENDBRANCH  12  36
ENDBRANCH   1   3
BRANCH   1  38
ATOM     38  O   UNL     1       1.745   0.012   0.441  1.00  0.00    -0.456 OA
BRANCH  38  39
ATOM     39  C   UNL     1       3.053   0.323   0.798  1.00  0.00     0.239 C 
ATOM     40  C   UNL     1       3.917   0.715  -0.452  1.00  0.00     0.189 C 
ATOM     41  C   UNL     1       3.656  -0.862   1.620  1.00  0.00     0.189 C 
ATOM     42  C   UNL     1       4.815  -0.446  -0.950  1.00  0.00     0.178 C 
ATOM     43  C   UNL     1       5.197  -0.777   1.650  1.00  0.00     0.178 C 
ATOM     44  C   UNL     1       5.803  -0.858   0.202  1.00  0.00     0.177 C 
BRANCH  40  45
ATOM     45  O   UNL     1       3.163   1.335  -1.467  1.00  0.00    -0.386 OA
ATOM     46  H   UNL     1       2.497   0.691  -1.814  1.00  0.00     0.211 HD
ENDBRANCH  40  45
BRANCH  41  47
ATOM     47  O   UNL     1       3.275  -2.090   1.052  1.00  0.00    -0.386 OA
ATOM     48  H   UNL     1       3.461  -2.795   1.726  1.00  0.00     0.211 HD
ENDBRANCH  41  47
BRANCH  42  49
ATOM     49  O   UNL     1       4.069  -1.582  -1.329  1.00  0.00    -0.387 OA
ATOM     50  H   UNL     1       3.213  -1.309  -1.738  1.00  0.00     0.211 HD
ENDBRANCH  42  49
BRANCH  43  51
ATOM     51  O   UNL     1       5.615   0.367   2.362  1.00  0.00    -0.387 OA
ATOM     52  H   UNL     1       5.366   1.182   1.865  1.00  0.00     0.211 HD
ENDBRANCH  43  51
BRANCH  44  53
ATOM     53  O   UNL     1       7.026  -0.163   0.142  1.00  0.00    -0.387 OA
ATOM     54  H   UNL     1       6.827   0.805   0.054  1.00  0.00     0.211 HD
ENDBRANCH  44  53
ENDBRANCH  38  39
ENDBRANCH   1  38
TORSDOF 10
