REMARK SMILES CC1(C)CC[C@]2(C(=O)O[C@@H]3O[C@H](CO[C@@H]4O[C@H](CO)[C@@H](O)[C@H](O)[C@H]4O)[C@@H](O)[C@H](O)[C@H]3O)CC[C@]3(C)C(=CC[C@@H]4[C@@]5(C)CC[C@H](O[C@@H]6OC[C@H](O)[C@H](O)[C@H]6O[C@@H]6O[C@H](CO)[C@@H](O)[C@H](O)[C@H]6O)C(C)(C)[C@@H]5CC[C@]43C)[C@@H]2C1
REMARK SMILES IDX 7 1 8 2 6 3 2 4 4 5 75 6 5 7 74 8 36 9 32 10 34 11 37 12
REMARK SMILES IDX 33 13 72 14 38 15 71 16 39 17 70 18 40 19 69 20 42 21 66 22
REMARK SMILES IDX 43 23 44 24 1 25 3 26 35 27 73 28 41 29 67 30 68 31 45 32
REMARK SMILES IDX 46 33 47 34 53 35 48 36 51 37 49 38 54 39 55 40 56 41 64 42
REMARK SMILES IDX 57 43 62 44 60 45 65 46 58 48 59 49 63 51 61 53 52 55 50 57
REMARK SMILES IDX 9 59 10 60 11 61 30 62 12 63 28 64 26 65 31 66 13 68 14 69
REMARK SMILES IDX 15 70 16 71 24 72 17 73 22 74 20 75 25 76 18 78 19 79 23 81
REMARK SMILES IDX 21 83 29 85 27 87
REMARK H PARENT 65 47 59 50 63 52 61 54 52 56 50 58 31 67 25 77 19 80 23 82
REMARK H PARENT 21 84 29 86 27 88
ROOT
ATOM      1  C   UNL     1      -4.520   0.184  -1.587  1.00  0.00     0.315 C 
ATOM      2  O   UNL     1      -4.589   0.239  -0.364  1.00  0.00    -0.252 OA
ENDROOT
BRANCH   1   3
ATOM      3  C   UNL     1      -3.150   0.023  -2.271  1.00  0.00     0.075 C 
ATOM      4  C   UNL     1      -3.827  -2.592  -3.567  1.00  0.00    -0.035 C 
ATOM      5  C   UNL     1      -4.181  -1.245  -4.291  1.00  0.00     0.007 C 
ATOM      6  C   UNL     1      -2.457  -2.460  -2.868  1.00  0.00     0.015 C 
ATOM      7  C   UNL     1      -3.347  -0.022  -3.814  1.00  0.00     0.020 C 
ATOM      8  C   UNL     1      -2.400  -1.300  -1.819  1.00  0.00     0.033 C 
ATOM      9  C   UNL     1      -0.926  -1.122  -1.404  1.00  0.00    -0.063 C 
ATOM     10  C   UNL     1      -2.352   1.282  -1.825  1.00  0.00     0.020 C 
ATOM     11  C   UNL     1      -0.048   0.075  -1.834  1.00  0.00    -0.006 C 
ATOM     12  C   UNL     1      -0.437  -2.052  -0.543  1.00  0.00    -0.027 C 
ATOM     13  C   UNL     1      -0.918   1.280  -2.352  1.00  0.00     0.013 C 
ATOM     14  C   UNL     1       0.948   0.476  -0.611  1.00  0.00    -0.020 C 
ATOM     15  C   UNL     1       0.905  -1.998   0.146  1.00  0.00     0.032 C 
ATOM     16  C   UNL     1       1.898   1.664  -0.998  1.00  0.00     0.008 C 
ATOM     17  C   UNL     1       1.824  -0.825  -0.279  1.00  0.00     0.006 C 
ATOM     18  C   UNL     1       3.122   1.852  -0.067  1.00  0.00     0.005 C 
ATOM     19  C   UNL     1       3.132  -0.634   0.625  1.00  0.00    -0.025 C 
ATOM     20  C   UNL     1       3.933   0.538  -0.089  1.00  0.00     0.003 C 
ATOM     21  C   UNL     1       4.053  -1.926   0.679  1.00  0.00     0.010 C 
ATOM     22  C   UNL     1       5.478   0.557   0.185  1.00  0.00    -0.006 C 
ATOM     23  C   UNL     1       5.061  -1.989  -0.467  1.00  0.00     0.033 C 
ATOM     24  C   UNL     1       6.046  -0.768  -0.476  1.00  0.00     0.127 C 
ATOM     25  C   UNL     1      -4.909  -2.994  -2.533  1.00  0.00     0.011 C 
ATOM     26  C   UNL     1      -3.767  -3.721  -4.618  1.00  0.00     0.011 C 
ATOM     27  C   UNL     1       0.718  -0.429  -3.109  1.00  0.00     0.017 C 
ATOM     28  C   UNL     1       0.084   0.979   0.586  1.00  0.00     0.012 C 
ATOM     29  C   UNL     1       2.761  -0.361   2.122  1.00  0.00     0.012 C 
ATOM     30  C   UNL     1       5.852   0.676   1.684  1.00  0.00     0.014 C 
ATOM     31  C   UNL     1       6.161   1.761  -0.516  1.00  0.00     0.014 C 
BRANCH  24  32
ATOM     32  O   UNL     1       7.314  -1.101   0.085  1.00  0.00    -0.346 OA
BRANCH  32  33
ATOM     33  C   UNL     1       8.357  -0.971  -0.874  1.00  0.00     0.282 C 
ATOM     34  O   UNL     1       8.412  -2.179  -1.644  1.00  0.00    -0.347 OA
ATOM     35  C   UNL     1       9.680  -0.684  -0.138  1.00  0.00     0.209 C 
ATOM     36  C   UNL     1       9.693  -2.502  -2.195  1.00  0.00     0.198 C 
ATOM     37  C   UNL     1      10.822  -0.481  -1.167  1.00  0.00     0.179 C 
ATOM     38  C   UNL     1      10.541  -1.253  -2.478  1.00  0.00     0.171 C 
BRANCH  35  39
ATOM     39  O   UNL     1       9.566   0.472   0.676  1.00  0.00    -0.338 OA
BRANCH  39  40
ATOM     40  C   UNL     1      10.274   0.335   1.899  1.00  0.00     0.282 C 
ATOM     41  O   UNL     1       9.305   0.007   2.903  1.00  0.00    -0.341 OA
ATOM     42  C   UNL     1      11.071   1.660   2.154  1.00  0.00     0.202 C 
ATOM     43  C   UNL     1       9.592   0.583   4.158  1.00  0.00     0.178 C 
ATOM     44  C   UNL     1      10.129   2.703   2.772  1.00  0.00     0.179 C 
ATOM     45  C   UNL     1       9.502   2.140   4.090  1.00  0.00     0.177 C 
BRANCH  42  46
ATOM     46  O   UNL     1      12.139   1.437   3.040  1.00  0.00    -0.385 OA
ATOM     47  H   UNL     1      12.857   0.988   2.520  1.00  0.00     0.211 HD
ENDBRANCH  42  46
BRANCH  43  48
ATOM     48  C   UNL     1       8.631   0.025   5.215  1.00  0.00     0.191 C 
BRANCH  48  49
ATOM     49  O   UNL     1       8.752  -1.370   5.302  1.00  0.00    -0.394 OA
ATOM     50  H   UNL     1       8.190  -1.752   4.578  1.00  0.00     0.210 HD
ENDBRANCH  48  49
ENDBRANCH  43  48
BRANCH  44  51
ATOM     51  O   UNL     1       9.145   3.072   1.832  1.00  0.00    -0.387 OA
ATOM     52  H   UNL     1       8.416   2.406   1.849  1.00  0.00     0.211 HD
ENDBRANCH  44  51
BRANCH  45  53
ATOM     53  O   UNL     1      10.111   2.699   5.229  1.00  0.00    -0.387 OA
ATOM     54  H   UNL     1      11.080   2.488   5.187  1.00  0.00     0.211 HD
ENDBRANCH  45  53
ENDBRANCH  39  40
ENDBRANCH  35  39
BRANCH  37  55
ATOM     55  O   UNL     1      12.056  -0.824  -0.587  1.00  0.00    -0.387 OA
ATOM     56  H   UNL     1      12.032  -1.796  -0.384  1.00  0.00     0.211 HD
ENDBRANCH  37  55
BRANCH  38  57
ATOM     57  O   UNL     1      11.718  -1.523  -3.198  1.00  0.00    -0.388 OA
ATOM     58  H   UNL     1      12.171  -2.288  -2.758  1.00  0.00     0.211 HD
ENDBRANCH  38  57
ENDBRANCH  32  33
ENDBRANCH  24  32
ENDBRANCH   1   3
BRANCH   1  59
ATOM     59  O   UNL     1      -5.638   0.365  -2.335  1.00  0.00    -0.432 OA
BRANCH  59  60
ATOM     60  C   UNL     1      -6.842   0.867  -1.885  1.00  0.00     0.342 C 
ATOM     61  O   UNL     1      -7.454  -0.017  -0.950  1.00  0.00    -0.332 OA
ATOM     62  C   UNL     1      -7.769   1.048  -3.099  1.00  0.00     0.214 C 
ATOM     63  C   UNL     1      -8.595   0.613  -0.367  1.00  0.00     0.180 C 
ATOM     64  C   UNL     1      -9.078   1.692  -2.621  1.00  0.00     0.180 C 
ATOM     65  C   UNL     1      -9.676   0.875  -1.462  1.00  0.00     0.177 C 
BRANCH  62  66
ATOM     66  O   UNL     1      -7.163   1.829  -4.099  1.00  0.00    -0.384 OA
ATOM     67  H   UNL     1      -6.876   2.684  -3.685  1.00  0.00     0.211 HD
ENDBRANCH  62  66
BRANCH  63  68
ATOM     68  C   UNL     1      -9.142  -0.286   0.763  1.00  0.00     0.198 C 
BRANCH  68  69
ATOM     69  O   UNL     1      -9.995   0.452   1.623  1.00  0.00    -0.347 OA
BRANCH  69  70
ATOM     70  C   UNL     1     -11.361   0.063   1.570  1.00  0.00     0.282 C 
ATOM     71  O   UNL     1     -12.149   1.184   1.940  1.00  0.00    -0.341 OA
ATOM     72  C   UNL     1     -11.673  -1.161   2.487  1.00  0.00     0.202 C 
ATOM     73  C   UNL     1     -11.921   1.636   3.288  1.00  0.00     0.178 C 
ATOM     74  C   UNL     1     -11.865  -0.757   3.972  1.00  0.00     0.179 C 
ATOM     75  C   UNL     1     -11.210   0.604   4.233  1.00  0.00     0.177 C 
BRANCH  72  76
ATOM     76  O   UNL     1     -12.810  -1.861   2.043  1.00  0.00    -0.385 OA
ATOM     77  H   UNL     1     -13.555  -1.205   1.973  1.00  0.00     0.211 HD
ENDBRANCH  72  76
BRANCH  73  78
ATOM     78  C   UNL     1     -11.223   3.006   3.299  1.00  0.00     0.191 C 
BRANCH  78  79
ATOM     79  O   UNL     1      -9.941   2.938   2.733  1.00  0.00    -0.394 OA
ATOM     80  H   UNL     1      -9.308   2.735   3.470  1.00  0.00     0.210 HD
ENDBRANCH  78  79
ENDBRANCH  73  78
BRANCH  74  81
ATOM     81  O   UNL     1     -11.412  -1.764   4.840  1.00  0.00    -0.387 OA
ATOM     82  H   UNL     1     -10.427  -1.828   4.728  1.00  0.00     0.211 HD
ENDBRANCH  74  81
BRANCH  75  83
ATOM     83  O   UNL     1     -11.317   0.990   5.582  1.00  0.00    -0.387 OA
ATOM     84  H   UNL     1     -12.280   0.991   5.824  1.00  0.00     0.211 HD
ENDBRANCH  75  83
ENDBRANCH  69  70
ENDBRANCH  68  69
ENDBRANCH  63  68
BRANCH  64  85
ATOM     85  O   UNL     1      -9.996   1.828  -3.677  1.00  0.00    -0.387 OA
ATOM     86  H   UNL     1     -10.174   0.919  -4.037  1.00  0.00     0.211 HD
ENDBRANCH  64  85
BRANCH  65  87
ATOM     87  O   UNL     1     -10.806   1.535  -0.952  1.00  0.00    -0.387 OA
ATOM     88  H   UNL     1     -10.494   2.376  -0.526  1.00  0.00     0.211 HD
ENDBRANCH  65  87
ENDBRANCH  59  60
ENDBRANCH   1  59
TORSDOF 25
