REMARK SMILES COc1cc2c(c(OC)c1OC)-c1ccc(NC(=O)c3ccccc3)c(=O)cc1[C@@H](NC(C)=O)CC2
REMARK SMILES IDX 13 1 14 2 15 3 16 4 26 5 27 6 28 7 29 8 6 9 3 10 4 11 10 12
REMARK SMILES IDX 5 13 7 14 2 15 1 16 11 17 12 18 36 19 8 21 9 22 30 23 31 24
REMARK SMILES IDX 32 25 34 26 33 28 35 29 17 31 18 32 19 33 20 35 21 36 25 37
REMARK SMILES IDX 22 38 24 39 23 40
REMARK H PARENT 31 27 17 34
REMARK Flexibility Score:   21.900
ROOT
ATOM      1  C   UNL     1      -0.869   0.242   0.701  1.00  0.00    -0.009 A 
ATOM      2  C   UNL     1       0.126  -0.695   1.072  1.00  0.00     0.011 A 
ATOM      3  C   UNL     1       1.504  -0.648   1.210  1.00  0.00     0.031 A 
ATOM      4  C   UNL     1       2.416   0.392   1.036  1.00  0.00     0.089 A 
ATOM      5  C   UNL     1       2.018   1.719   0.809  1.00  0.00     0.202 A 
ATOM      6  O   UNL     1       2.904   2.559   0.741  1.00  0.00    -0.288 OA
ATOM      7  C   UNL     1       0.723   2.217   0.634  1.00  0.00     0.060 A 
ATOM      8  C   UNL     1      -0.577   1.644   0.548  1.00  0.00    -0.014 A 
ENDROOT
BRANCH   1   9
ATOM      9  C   UNL     1      -2.255  -0.420   0.534  1.00  0.00     0.031 A 
ATOM     10  C   UNL     1      -4.768  -1.789   0.310  1.00  0.00     0.164 A 
ATOM     11  C   UNL     1      -4.700  -0.477   0.776  1.00  0.00     0.055 A 
ATOM     12  C   UNL     1      -3.604  -2.442  -0.074  1.00  0.00     0.203 A 
ATOM     13  C   UNL     1      -3.476   0.207   0.898  1.00  0.00    -0.032 A 
ATOM     14  C   UNL     1      -2.359  -1.766  -0.006  1.00  0.00     0.172 A 
BRANCH  10  15
ATOM     15  O   UNL     1      -5.947  -2.459   0.190  1.00  0.00    -0.493 OA
ATOM     16  C   UNL     1      -7.207  -1.946   0.418  1.00  0.00     0.278 C 
ENDBRANCH  10  15
BRANCH  12  17
ATOM     17  O   UNL     1      -3.754  -3.728  -0.511  1.00  0.00    -0.490 OA
ATOM     18  C   UNL     1      -2.784  -4.656  -0.828  1.00  0.00     0.278 C 
ENDBRANCH  12  17
BRANCH  13  19
ATOM     19  C   UNL     1      -3.559   1.623   1.373  1.00  0.00     0.039 CG0
ATOM     20  G   UNL     1      -3.098   2.491   0.226  1.00  0.00     0.000 G0
ENDBRANCH  13  19
BRANCH  14  21
ATOM     21  O   UNL     1      -1.282  -2.417  -0.510  1.00  0.00    -0.492 OA
ATOM     22  C   UNL     1      -0.607  -2.011  -1.647  1.00  0.00     0.278 C 
ENDBRANCH  14  21
ENDBRANCH   1   9
BRANCH   8  23
ATOM     23  C   UNL     1      -1.607   2.773   0.292  1.00  0.00     0.113 C 
BRANCH  23  24
ATOM     24  N   UNL     1      -1.260   3.523  -0.914  1.00  0.00    -0.350 N 
ATOM     25  C   UNL     1      -0.930   4.849  -0.899  1.00  0.00     0.217 C 
ATOM     26  O   UNL     1      -0.911   5.479   0.147  1.00  0.00    -0.275 OA
ATOM     27  H   UNL     1      -1.280   3.020  -1.815  1.00  0.00     0.164 HD
ATOM     28  C   UNL     1      -0.581   5.566  -2.170  1.00  0.00     0.114 C 
ENDBRANCH  23  24
BRANCH  23  29
ATOM     29  C   UNL     1      -3.098   2.491   0.226  1.00  0.00     0.034 CG0
ATOM     30  G   UNL     1      -3.559   1.623   1.373  1.00  0.00     0.000 G0
ENDBRANCH  23  29
ENDBRANCH   8  23
BRANCH   4  31
ATOM     31  N   UNL     1       3.845   0.133   1.104  1.00  0.00    -0.319 N 
ATOM     32  C   UNL     1       4.479  -1.065   0.858  1.00  0.00     0.255 C 
ATOM     33  O   UNL     1       3.833  -2.061   0.572  1.00  0.00    -0.269 OA
ATOM     34  H   UNL     1       4.448   0.946   1.258  1.00  0.00     0.170 HD
BRANCH  32  35
ATOM     35  C   UNL     1       5.978  -1.201   0.835  1.00  0.00     0.040 A 
ATOM     36  C   UNL     1       6.864  -0.111   1.012  1.00  0.00     0.014 A 
ATOM     37  C   UNL     1       6.541  -2.476   0.597  1.00  0.00     0.014 A 
ATOM     38  C   UNL     1       8.249  -0.299   0.947  1.00  0.00     0.001 A 
ATOM     39  C   UNL     1       7.925  -2.655   0.537  1.00  0.00     0.001 A 
ATOM     40  C   UNL     1       8.778  -1.568   0.710  1.00  0.00     0.000 A 
ENDBRANCH  32  35
ENDBRANCH   4  31
TORSDOF 6
