REMARK SMILES C=C(C)C(=O)N1C[C@@H]2C[C@H](C1)c1cccc(=O)n1C2
REMARK SMILES IDX 1 1 2 2 3 3 4 4 5 5 6 6 11 7 7 8 10 9 8 10 9 11 12 12 19 13
REMARK SMILES IDX 18 14 13 15 16 16 14 17 15 18 17 19
REMARK H PARENT
ROOT
ATOM      1  C   UNL     1       5.046   1.306   0.007  1.00  0.00     0.018 C 
ATOM      2  C   UNL     1       3.965   0.509   0.169  1.00  0.00     0.007 C 
ATOM      3  C   UNL     1       4.254  -0.938   0.514  1.00  0.00     0.050 C 
ENDROOT
BRANCH   2   4
ATOM      4  C   UNL     1       2.579   1.129   0.014  1.00  0.00     0.248 C 
ATOM      5  O   UNL     1       2.560   2.337  -0.191  1.00  0.00    -0.269 OA
BRANCH   4   6
ATOM      6  N   UNL     1       1.362   0.469   0.096  1.00  0.00    -0.338 N 
ATOM      7  C   UNL     1       0.108   1.249  -0.028  1.00  0.00     0.129 C 
ATOM      8  C   UNL     1       1.232  -0.998   0.308  1.00  0.00     0.125 C 
ATOM      9  C   UNL     1      -0.930   0.578  -0.989  1.00  0.00     0.056 C 
ATOM     10  C   UNL     1      -0.209  -1.548  -0.026  1.00  0.00     0.029 C 
ATOM     11  C   UNL     1      -0.494  -0.841  -1.364  1.00  0.00     0.019 C 
ATOM     12  C   UNL     1      -2.275   0.443  -0.285  1.00  0.00     0.026 A 
ATOM     13  C   UNL     1      -1.652  -1.873   0.506  1.00  0.00     0.131 C 
ATOM     14  N   UNL     1      -2.608  -0.721   0.397  1.00  0.00    -0.312 N 
ATOM     15  C   UNL     1      -3.187   1.502  -0.362  1.00  0.00     0.022 A 
ATOM     16  C   UNL     1      -3.863  -0.841   0.973  1.00  0.00     0.250 A 
ATOM     17  C   UNL     1      -4.439   1.382   0.233  1.00  0.00     0.007 A 
ATOM     18  C   UNL     1      -4.782   0.209   0.896  1.00  0.00     0.072 A 
ATOM     19  O   UNL     1      -4.181  -1.862   1.560  1.00  0.00    -0.269 OA
ENDBRANCH   4   6
ENDBRANCH   2   4
TORSDOF 2
