REMARK SMILES CC1(C)C(=O)CC[C@]2(C)[C@@H]1CC[C@@]13CO[C@]4(CC[C@H]5C(C)(C)C(=O)CC[C@@]5(C)[C@H]4CC[C@H]12)C3
REMARK SMILES IDX 1 1 2 2 3 3 4 4 5 5 6 6 7 7 8 8 9 9 10 10 11 11 12 12 13 13
REMARK SMILES IDX 14 14 15 15 16 16 17 17 18 18 19 19 20 20 21 21 22 22 23 23
REMARK SMILES IDX 24 24 25 25 26 26 27 27 28 28 29 29 32 30 33 31 31 32 30 34
REMARK H PARENT
REMARK Flexibility Score:    0.900
ROOT
ATOM      1  C   UNL     1       6.226  -0.998   1.037  1.00  0.00     0.020 C 
ATOM      2  C   UNL     1       5.407  -0.272  -0.059  1.00  0.00     0.027 C 
ATOM      3  C   UNL     1       5.996   1.163  -0.174  1.00  0.00     0.020 C 
ATOM      4  C   UNL     1       5.595  -1.050  -1.364  1.00  0.00     0.138 C 
ATOM      5  O   UNL     1       6.647  -1.002  -1.983  1.00  0.00    -0.299 OA
ATOM      6  C   UNL     1       4.514  -2.009  -1.793  1.00  0.00     0.077 C 
ATOM      7  C   UNL     1       3.120  -1.347  -1.905  1.00  0.00     0.015 C 
ATOM      8  C   UNL     1       2.915  -0.087  -0.972  1.00  0.00    -0.025 C 
ATOM      9  C   UNL     1       3.252   1.147  -1.870  1.00  0.00     0.012 C 
ATOM     10  C   UNL     1       3.862  -0.296   0.300  1.00  0.00     0.008 C 
ATOM     11  C   UNL     1       3.455   0.474   1.594  1.00  0.00     0.006 C 
ATOM     12  C   UNL     1       2.541   1.637   1.293  1.00  0.00     0.010 C 
ATOM     13  C   UNL     1       1.203   1.156   0.640  1.00  0.00    -0.000 C 
ATOM     14  C   UNL     1       0.392   2.376   0.171  1.00  0.00     0.168 C 
ATOM     15  O   UNL     1      -0.965   1.972   0.074  1.00  0.00    -0.374 OA
ATOM     16  C   UNL     1      -1.139   0.868   0.965  1.00  0.00     0.072 C 
ATOM     17  C   UNL     1      -2.218   1.248   1.996  1.00  0.00     0.036 C 
ATOM     18  C   UNL     1      -3.547   1.410   1.280  1.00  0.00     0.008 C 
ATOM     19  C   UNL     1      -4.114   0.040   0.863  1.00  0.00     0.008 C 
ATOM     20  C   UNL     1      -5.452   0.133   0.022  1.00  0.00     0.027 C 
ATOM     21  C   UNL     1      -5.301   0.958  -1.282  1.00  0.00     0.020 C 
ATOM     22  C   UNL     1      -6.563   0.840   0.853  1.00  0.00     0.020 C 
ATOM     23  C   UNL     1      -5.910  -1.293  -0.298  1.00  0.00     0.138 C 
ATOM     24  O   UNL     1      -7.064  -1.639  -0.088  1.00  0.00    -0.299 OA
ATOM     25  C   UNL     1      -4.946  -2.345  -0.780  1.00  0.00     0.077 C 
ATOM     26  C   UNL     1      -3.520  -1.811  -0.898  1.00  0.00     0.015 C 
ATOM     27  C   UNL     1      -3.010  -1.024   0.365  1.00  0.00    -0.023 C 
ATOM     28  C   UNL     1      -2.871  -2.101   1.500  1.00  0.00     0.012 C 
ATOM     29  C   UNL     1      -1.521  -0.426   0.141  1.00  0.00     0.027 C 
ATOM     30  C   UNL     1       1.422   0.008  -0.469  1.00  0.00     0.004 C 
ATOM     31  C   UNL     1       0.211   0.695   1.689  1.00  0.00     0.045 C 
ENDROOT
BRANCH  30  32
ATOM     32  C   UNL     1       0.389   0.075  -1.643  1.00  0.00     0.005 CG0
ATOM     33  G   UNL     1      -1.058  -0.367  -1.342  1.00  0.00     0.000 G0
ENDBRANCH  30  32
BRANCH  29  34
ATOM     34  C   UNL     1      -1.058  -0.367  -1.342  1.00  0.00     0.007 CG0
ATOM     35  G   UNL     1       0.389   0.075  -1.643  1.00  0.00     0.000 G0
ENDBRANCH  29  34
TORSDOF 0
