REMARK SMILES C=C[C@](C)(O)CC[C@H]1C(=C)CC[C@H]2[C@@](C)(COC(=O)/C(C)=C/C)CCC[C@]12C
REMARK SMILES IDX 8 1 9 2 10 3 11 4 12 5 13 6 14 7 15 8 24 9 25 10 26 11 27 12
REMARK SMILES IDX 28 13 7 14 6 15 3 16 4 17 2 18 1 19 5 20 16 22 17 23 18 24
REMARK SMILES IDX 19 25 20 26 22 27 21 28 23 29
REMARK H PARENT 5 21
ROOT
ATOM      1  C   UNL     1      -1.558  -0.288  -0.296  1.00  0.00     0.021 C 
ATOM      2  C   UNL     1      -0.864   0.404  -1.498  1.00  0.00    -0.074 C 
ATOM      3  C   UNL     1      -1.494   1.218  -2.364  1.00  0.00     0.008 C 
ATOM      4  C   UNL     1       0.648   0.274  -1.633  1.00  0.00     0.031 C 
ATOM      5  C   UNL     1       1.218  -0.712  -0.614  1.00  0.00     0.009 C 
ATOM      6  C   UNL     1       0.698  -0.507   0.851  1.00  0.00     0.005 C 
ATOM      7  C   UNL     1       1.725  -0.100   1.995  1.00  0.00     0.005 C 
ATOM      8  C   UNL     1       2.692  -1.298   2.217  1.00  0.00     0.015 C 
ATOM      9  C   UNL     1       0.953   0.150   3.350  1.00  0.00     0.010 C 
ATOM     10  C   UNL     1      -0.304  -0.720   3.450  1.00  0.00     0.001 C 
ATOM     11  C   UNL     1      -1.342  -0.397   2.330  1.00  0.00     0.008 C 
ATOM     12  C   UNL     1      -0.729   0.144   0.979  1.00  0.00    -0.023 C 
ATOM     13  C   UNL     1      -0.712   1.715   1.035  1.00  0.00     0.012 C 
ENDROOT
BRANCH   1  14
ATOM     14  C   UNL     1      -3.094  -0.071  -0.149  1.00  0.00     0.012 C 
BRANCH  14  15
ATOM     15  C   UNL     1      -3.939  -0.780  -1.238  1.00  0.00     0.040 C 
BRANCH  15  16
ATOM     16  C   UNL     1      -5.448  -0.822  -0.875  1.00  0.00     0.080 C 
ATOM     17  C   UNL     1      -6.228  -1.462  -2.040  1.00  0.00     0.047 C 
BRANCH  16  18
ATOM     18  C   UNL     1      -5.967   0.591  -0.644  1.00  0.00    -0.001 C 
ATOM     19  C   UNL     1      -6.465   1.019   0.525  1.00  0.00     0.007 C 
ENDBRANCH  16  18
BRANCH  16  20
ATOM     20  O   UNL     1      -5.593  -1.619   0.282  1.00  0.00    -0.386 OA
ATOM     21  H   UNL     1      -6.560  -1.800   0.421  1.00  0.00     0.211 HD
ENDBRANCH  16  20
ENDBRANCH  15  16
ENDBRANCH  14  15
ENDBRANCH   1  14
BRANCH   7  22
ATOM     22  C   UNL     1       2.582   1.168   1.691  1.00  0.00     0.240 C 
BRANCH  22  23
ATOM     23  O   UNL     1       3.372   1.011   0.564  1.00  0.00    -0.462 OA
BRANCH  23  24
ATOM     24  C   UNL     1       4.691   0.672   0.570  1.00  0.00     0.333 C 
ATOM     25  O   UNL     1       5.245   0.373   1.621  1.00  0.00    -0.247 OA
BRANCH  24  26
ATOM     26  C   UNL     1       5.443   0.592  -0.715  1.00  0.00     0.030 C 
ATOM     27  C   UNL     1       6.677   0.028  -0.734  1.00  0.00    -0.020 C 
ATOM     28  C   UNL     1       4.808   1.136  -1.974  1.00  0.00     0.052 C 
ATOM     29  C   UNL     1       7.539  -0.131  -1.958  1.00  0.00     0.036 C 
ENDBRANCH  24  26
ENDBRANCH  23  24
ENDBRANCH  22  23
ENDBRANCH   7  22
TORSDOF 9
