REMARK SMILES COc1ccc(-c2oc3cc(O)c4c(=O)c(-c5ccc(OC)c(OC)c5)coc4c3c2CC(=O)O)cc1
REMARK SMILES IDX 7 1 31 2 30 3 29 4 28 5 27 6 16 7 14 8 15 9 13 10 11 11
REMARK SMILES IDX 10 12 9 13 8 14 6 15 3 16 4 17 37 18 5 19 36 20 2 21 1 22
REMARK SMILES IDX 32 23 33 24 34 25 35 26 12 28 17 30 18 31 26 32 19 33 23 34
REMARK SMILES IDX 20 35 24 36 25 37 21 38 22 39
REMARK H PARENT 35 27 12 29
ROOT
ATOM      1  C   UNL     1       3.572   0.101   0.328  1.00  0.00     0.139 A 
ATOM      2  C   UNL     1       2.314   0.106  -0.325  1.00  0.00     0.021 A 
ATOM      3  C   UNL     1       1.373   0.107   0.709  1.00  0.00     0.068 A 
ATOM      4  C   UNL     1      -0.033   0.111   0.735  1.00  0.00     0.152 A 
ATOM      5  O   UNL     1      -0.724   0.084  -0.394  1.00  0.00    -0.462 OA
ATOM      6  C   UNL     1      -2.046   0.086  -0.441  1.00  0.00     0.208 A 
ATOM      7  C   UNL     1      -2.816   0.148   0.732  1.00  0.00     0.065 A 
ATOM      8  C   UNL     1      -2.124   0.170   1.967  1.00  0.00     0.204 A 
ATOM      9  O   UNL     1      -2.761   0.183   3.002  1.00  0.00    -0.288 OA
ATOM     10  C   UNL     1      -0.704   0.140   1.997  1.00  0.00     0.108 A 
ATOM     11  C   UNL     1       0.089   0.135   3.204  1.00  0.00     0.134 A 
ATOM     12  C   UNL     1       1.489   0.112   3.116  1.00  0.00     0.095 A 
ATOM     13  C   UNL     1       2.087   0.103   1.869  1.00  0.00     0.142 A 
ATOM     14  O   UNL     1       3.370   0.094   1.633  1.00  0.00    -0.455 OA
ENDROOT
BRANCH   1  15
ATOM     15  C   UNL     1       4.973   0.136  -0.203  1.00  0.00     0.018 A 
ATOM     16  C   UNL     1       7.683   0.231  -1.040  1.00  0.00     0.118 A 
ATOM     17  C   UNL     1       6.647   0.236  -1.978  1.00  0.00     0.047 A 
ATOM     18  C   UNL     1       7.361   0.176   0.326  1.00  0.00     0.047 A 
ATOM     19  C   UNL     1       5.309   0.193  -1.570  1.00  0.00     0.016 A 
ATOM     20  C   UNL     1       6.027   0.128   0.734  1.00  0.00     0.016 A 
BRANCH  16  21
ATOM     21  O   UNL     1       8.965   0.285  -1.488  1.00  0.00    -0.497 OA
ATOM     22  C   UNL     1      10.093   0.328  -0.694  1.00  0.00     0.278 C 
ENDBRANCH  16  21
ENDBRANCH   1  15
BRANCH   2  23
ATOM     23  C   UNL     1       2.014   0.138  -1.808  1.00  0.00     0.162 C 
BRANCH  23  24
ATOM     24  C   UNL     1       2.409  -1.129  -2.530  1.00  0.00     0.307 C 
ATOM     25  O   UNL     1       2.902  -2.069  -1.927  1.00  0.00    -0.252 OA
BRANCH  24  26
ATOM     26  O   UNL     1       2.210  -1.232  -3.860  1.00  0.00    -0.481 OA
ATOM     27  H   UNL     1       1.821  -0.507  -4.370  1.00  0.00     0.296 HD
ENDBRANCH  24  26
ENDBRANCH  23  24
ENDBRANCH   2  23
BRANCH  11  28
ATOM     28  O   UNL     1      -0.418   0.149   4.459  1.00  0.00    -0.507 OA
ATOM     29  H   UNL     1      -1.343   0.155   4.717  1.00  0.00     0.293 HD
ENDBRANCH  11  28
BRANCH   7  30
ATOM     30  C   UNL     1      -4.319   0.189   0.637  1.00  0.00    -0.007 A 
ATOM     31  C   UNL     1      -5.095   0.887   1.585  1.00  0.00     0.013 A 
ATOM     32  C   UNL     1      -4.992  -0.468  -0.414  1.00  0.00     0.059 A 
ATOM     33  C   UNL     1      -6.484   0.935   1.482  1.00  0.00     0.051 A 
ATOM     34  C   UNL     1      -6.400  -0.442  -0.511  1.00  0.00     0.161 A 
ATOM     35  C   UNL     1      -7.148   0.270   0.437  1.00  0.00     0.160 A 
BRANCH  34  36
ATOM     36  O   UNL     1      -7.072  -1.097  -1.496  1.00  0.00    -0.493 OA
ATOM     37  C   UNL     1      -6.511  -1.916  -2.454  1.00  0.00     0.278 C 
ENDBRANCH  34  36
BRANCH  35  38
ATOM     38  O   UNL     1      -8.502   0.292   0.312  1.00  0.00    -0.493 OA
ATOM     39  C   UNL     1      -9.379   0.967   1.136  1.00  0.00     0.278 C 
ENDBRANCH  35  38
ENDBRANCH   7  30
TORSDOF 9
