REMARK SMILES O=C1C=CC(=O)N1c1cccc([N+](=O)[O-])c1
REMARK SMILES IDX 8 1 9 2 10 3 11 4 12 5 16 6 7 7 1 8 2 9 3 10 4 11 5 12 6 13
REMARK SMILES IDX 13 14 14 15 15 16
REMARK H PARENT
ROOT
ATOM      1  C   UNL     1       0.010  -0.280   0.015  1.00  0.00     0.059 A 
ATOM      2  C   UNL     1      -0.400  -1.566  -0.355  1.00  0.00     0.027 A 
ATOM      3  C   UNL     1      -1.758  -1.883  -0.393  1.00  0.00     0.009 A 
ATOM      4  C   UNL     1      -2.715  -0.919  -0.061  1.00  0.00     0.086 A 
ATOM      5  C   UNL     1      -2.321   0.380   0.315  1.00  0.00     0.271 A 
ATOM      6  C   UNL     1      -0.946   0.689   0.349  1.00  0.00     0.112 A 
ENDROOT
BRANCH   1   7
ATOM      7  N   UNL     1       1.391   0.043   0.049  1.00  0.00    -0.243 N 
ATOM      8  O   UNL     1       1.862  -0.524   2.199  1.00  0.00    -0.269 OA
ATOM      9  C   UNL     1       2.212  -0.095   1.110  1.00  0.00     0.258 C 
ATOM     10  C   UNL     1       3.564   0.341   0.761  1.00  0.00     0.078 C 
ATOM     11  C   UNL     1       3.501   0.745  -0.563  1.00  0.00     0.078 C 
ATOM     12  C   UNL     1       2.112   0.541  -0.975  1.00  0.00     0.258 C 
ATOM     13  O   UNL     1       1.656   0.781  -2.083  1.00  0.00    -0.269 OA
ENDBRANCH   1   7
BRANCH   5  14
ATOM     14  N   UNL     1      -3.300   1.363   0.653  1.00  0.00     0.062 N 
ATOM     15  O   UNL     1      -2.968   2.465   0.973  1.00  0.00    -0.258 OA
ATOM     16  O   UNL     1      -4.582   1.068   0.615  1.00  0.00    -0.258 OA
ENDBRANCH   5  14
TORSDOF 2
