REMARK SMILES CCOc1cc2c(cc1O)[C@H]1C=CC[N@+]3(C)[C@H](O)Cc4cc(OC)c(OC[C@H]5[C@@H]6Cc7ccc(cc7)[C@@]78CCCC[C@H]7[C@@H](Cc7ccc(cc7)C[C@@H]7c9cccc(c9)Cc9cccc(c9)C9(CCCCC9)c9cccc(c9)C[C@@H]5[C@@H]7C6)Cc5ccccc58)c-2c4[C@@H]13
REMARK SMILES IDX 28 1 29 2 79 3 80 4 81 5 27 7 26 8 25 9 4 10 9 11 5 12 8 13
REMARK SMILES IDX 6 14 7 15 89 16 11 17 90 18 91 19 12 20 22 21 20 22 15 23
REMARK SMILES IDX 13 24 21 25 19 26 14 27 17 28 16 29 3 30 2 31 1 32 10 33
REMARK SMILES IDX 23 35 24 36 18 37 30 39 31 40 32 41 36 42 33 43 35 44 34 45
REMARK SMILES IDX 37 46 38 47 42 48 88 49 39 50 41 51 43 52 87 53 83 54 40 55
REMARK SMILES IDX 82 56 86 57 84 58 85 59 52 61 51 62 48 63 47 64 49 65 46 66
REMARK SMILES IDX 50 67 45 68 44 69 53 71 58 72 54 73 57 74 55 75 56 76 59 77
REMARK SMILES IDX 60 78 65 79 61 80 64 81 62 82 63 83 66 84 67 85 71 86 68 87
REMARK SMILES IDX 70 88 69 89 72 90 77 91 73 92 76 93 74 94 75 95 78 96
REMARK H PARENT 10 34 18 38
REMARK Flexibility Score:  453.800
ROOT
ATOM      1  C   UNL     1      -0.303  -1.569  -0.421  1.00  0.00     0.034 C 
ATOM      2  C   UNL     1       1.106  -2.161  -0.719  1.00  0.00     0.000 C 
ATOM      3  C   UNL     1      -0.099  -0.004  -0.671  1.00  0.00     0.004 CG1
ATOM      4  C   UNL     1       1.256   0.130  -1.422  1.00  0.00     0.001 C 
ATOM      5  C   UNL     1       2.038  -0.976  -0.693  1.00  0.00     0.009 C 
ATOM      6  G   UNL     1      -1.298   0.819  -1.237  1.00  0.00     0.000 G1
ENDROOT
BRANCH   1   7
ATOM      7  C   UNL     1      -1.370  -2.378  -1.229  1.00  0.00     0.234 C 
BRANCH   7   8
ATOM      8  O   UNL     1      -1.691  -3.620  -0.628  1.00  0.00    -0.489 OA
BRANCH   8   9
ATOM      9  C   UNL     1      -2.924  -4.067  -0.175  1.00  0.00     0.169 A 
ATOM     10  C   UNL     1       0.124  -7.982  -0.504  1.00  0.00     0.161 A 
ATOM     11  C   UNL     1      -0.578  -9.089  -1.024  1.00  0.00     0.157 A 
ATOM     12  C   UNL     1      -0.686  -6.777  -0.228  1.00  0.00     0.059 A 
ATOM     13  C   UNL     1      -1.958  -9.061  -1.278  1.00  0.00     0.055 A 
ATOM     14  C   UNL     1      -2.152  -6.734  -0.465  1.00  0.00    -0.006 A 
ATOM     15  C   UNL     1      -2.740  -7.939  -1.018  1.00  0.00    -0.023 A 
ATOM     16  C   UNL     1      -3.179  -5.548  -0.118  1.00  0.00     0.038 A 
ATOM     17  C   UNL     1      -4.226  -7.933  -1.394  1.00  0.00     0.106 C 
ATOM     18  C   UNL     1      -4.557  -5.983   0.201  1.00  0.00     0.026 A 
ATOM     19  C   UNL     1      -5.087  -7.411  -0.229  1.00  0.00     0.231 C 
ATOM     20  C   UNL     1      -5.039  -8.736  -2.399  1.00  0.00    -0.011 C 
ATOM     21  C   UNL     1      -4.012  -3.101   0.131  1.00  0.00     0.161 A 
ATOM     22  C   UNL     1      -5.541  -5.049   0.591  1.00  0.00    -0.026 A 
ATOM     23  N   UNL     1      -6.559  -8.009   0.000  1.00  0.00    -0.291 N 
ATOM     24  C   UNL     1      -6.407  -8.620  -2.443  1.00  0.00     0.030 C 
ATOM     25  C   UNL     1      -5.263  -3.658   0.544  1.00  0.00     0.055 A 
ATOM     26  C   UNL     1      -6.961  -5.576   0.885  1.00  0.00     0.133 C 
ATOM     27  C   UNL     1      -7.217  -7.807  -1.369  1.00  0.00     0.294 C 
ATOM     28  C   UNL     1      -7.151  -7.152   1.083  1.00  0.00     0.326 C 
ATOM     29  C   UNL     1      -6.871  -9.477   0.000  1.00  0.00     0.337 C 
BRANCH  10  30
ATOM     30  O   UNL     1       1.513  -8.249  -0.321  1.00  0.00    -0.490 OA
BRANCH  30  31
ATOM     31  C   UNL     1       2.803  -7.699   0.000  1.00  0.00     0.226 C 
ATOM     32  C   UNL     1       3.918  -8.703   0.000  1.00  0.00     0.049 C 
ENDBRANCH  30  31
ENDBRANCH  10  30
BRANCH  11  33
ATOM     33  O   UNL     1       0.112 -10.219  -1.298  1.00  0.00    -0.504 OA
ATOM     34  H   UNL     1      -0.309 -11.012  -1.659  1.00  0.00     0.293 HD
ENDBRANCH  11  33
BRANCH  21  35
ATOM     35  O   UNL     1      -3.885  -1.677   0.000  1.00  0.00    -0.493 OA
ATOM     36  C   UNL     1      -5.000  -0.673   0.000  1.00  0.00     0.278 C 
ENDBRANCH  21  35
BRANCH  28  37
ATOM     37  O   UNL     1      -8.524  -7.416   1.239  1.00  0.00    -0.344 OA
ATOM     38  H   UNL     1      -8.756  -7.198   2.180  1.00  0.00     0.217 HD
ENDBRANCH  28  37
ENDBRANCH   8   9
ENDBRANCH   7   8
ENDBRANCH   1   7
BRANCH   2  39
ATOM     39  C   UNL     1       1.502  -3.357   0.170  1.00  0.00     0.039 C 
BRANCH  39  40
ATOM     40  C   UNL     1       2.994  -3.529   0.406  1.00  0.00    -0.048 A 
ATOM     41  C   UNL     1       3.462  -3.635   1.719  1.00  0.00     0.004 A 
ATOM     42  C   UNL     1       3.923  -3.582  -0.637  1.00  0.00     0.004 A 
ATOM     43  C   UNL     1       4.815  -3.825   1.987  1.00  0.00     0.005 A 
ATOM     44  C   UNL     1       5.292  -3.730  -0.369  1.00  0.00     0.005 A 
ATOM     45  C   UNL     1       5.787  -3.886   0.952  1.00  0.00    -0.037 A 
BRANCH  45  46
ATOM     46  C   UNL     1       7.293  -4.199   1.290  1.00  0.00     0.024 C 
ATOM     47  C   UNL     1       7.687  -5.583   0.648  1.00  0.00     0.017 C 
ATOM     48  C   UNL     1       8.383  -3.149   0.818  1.00  0.00     0.008 C 
ATOM     49  C   UNL     1       7.489  -4.275   2.836  1.00  0.00    -0.034 A 
ATOM     50  C   UNL     1       7.946  -5.568  -0.869  1.00  0.00     0.001 C 
ATOM     51  C   UNL     1       8.642  -3.111  -0.706  1.00  0.00     0.005 C 
ATOM     52  C   UNL     1       8.396  -1.754   1.577  1.00  0.00     0.002 CG0
ATOM     53  C   UNL     1       7.603  -5.486   3.560  1.00  0.00     0.005 A 
ATOM     54  C   UNL     1       7.596  -3.059   3.558  1.00  0.00    -0.044 A 
ATOM     55  C   UNL     1       9.005  -4.516  -1.222  1.00  0.00     0.000 C 
ATOM     56  C   UNL     1       7.474  -1.768   2.812  1.00  0.00     0.040 C 
ATOM     57  C   UNL     1       7.804  -5.475   4.943  1.00  0.00     0.000 A 
ATOM     58  C   UNL     1       7.811  -3.061   4.942  1.00  0.00     0.004 A 
ATOM     59  C   UNL     1       7.909  -4.267   5.632  1.00  0.00     0.000 A 
ATOM     60  G   UNL     1       8.233  -0.451   0.739  1.00  0.00     0.000 G0
ENDBRANCH  45  46
ENDBRANCH  39  40
ENDBRANCH   2  39
BRANCH   4  61
ATOM     61  C   UNL     1       2.068   1.509  -1.398  1.00  0.00     0.027 C 
BRANCH  61  62
ATOM     62  C   UNL     1       2.891   1.787  -0.097  1.00  0.00     0.044 C 
BRANCH  62  63
ATOM     63  C   UNL     1       4.248   1.108   0.061  1.00  0.00    -0.047 A 
ATOM     64  C   UNL     1       4.925   0.389  -0.957  1.00  0.00     0.004 A 
ATOM     65  C   UNL     1       4.899   1.290   1.287  1.00  0.00     0.004 A 
ATOM     66  C   UNL     1       6.201  -0.134  -0.737  1.00  0.00     0.004 A 
ATOM     67  C   UNL     1       6.167   0.763   1.505  1.00  0.00     0.004 A 
ATOM     68  C   UNL     1       6.829   0.038   0.497  1.00  0.00    -0.048 A 
BRANCH  68  69
ATOM     69  C   UNL     1       8.233  -0.451   0.739  1.00  0.00     0.039 CG0
ATOM     70  G   UNL     1       8.396  -1.754   1.577  1.00  0.00     0.000 G0
ENDBRANCH  68  69
ENDBRANCH  62  63
ENDBRANCH  61  62
BRANCH  61  71
ATOM     71  C   UNL     1       1.310   2.762  -1.843  1.00  0.00    -0.044 A 
ATOM     72  C   UNL     1       0.968   3.806  -0.945  1.00  0.00     0.008 A 
ATOM     73  C   UNL     1       1.006   2.928  -3.207  1.00  0.00     0.004 A 
ATOM     74  C   UNL     1       0.378   4.992  -1.404  1.00  0.00    -0.043 A 
ATOM     75  C   UNL     1       0.409   4.105  -3.665  1.00  0.00     0.001 A 
ATOM     76  C   UNL     1       0.105   5.133  -2.774  1.00  0.00     0.004 A 
BRANCH  74  77
ATOM     77  C   UNL     1       0.031   6.109  -0.440  1.00  0.00     0.071 C 
BRANCH  77  78
ATOM     78  C   UNL     1      -1.443   6.392  -0.533  1.00  0.00    -0.043 A 
ATOM     79  C   UNL     1      -2.360   5.379  -0.225  1.00  0.00     0.008 A 
ATOM     80  C   UNL     1      -1.903   7.633  -0.976  1.00  0.00     0.004 A 
ATOM     81  C   UNL     1      -3.758   5.547  -0.405  1.00  0.00    -0.037 A 
ATOM     82  C   UNL     1      -3.265   7.846  -1.136  1.00  0.00     0.001 A 
ATOM     83  C   UNL     1      -4.177   6.821  -0.871  1.00  0.00     0.004 A 
BRANCH  81  84
ATOM     84  C   UNL     1      -4.782   4.391  -0.128  1.00  0.00     0.020 C 
ATOM     85  C   UNL     1      -5.808   4.819   1.011  1.00  0.00     0.016 C 
ATOM     86  C   UNL     1      -5.582   4.121  -1.466  1.00  0.00     0.016 C 
ATOM     87  C   UNL     1      -7.093   5.462   0.481  1.00  0.00     0.001 C 
ATOM     88  C   UNL     1      -6.930   3.472  -1.176  1.00  0.00     0.001 C 
ATOM     89  C   UNL     1      -7.856   4.469  -0.433  1.00  0.00     0.000 C 
BRANCH  84  90
ATOM     90  C   UNL     1      -4.006   3.087   0.308  1.00  0.00    -0.037 A 
ATOM     91  C   UNL     1      -3.129   2.438  -0.607  1.00  0.00     0.008 A 
ATOM     92  C   UNL     1      -4.062   2.548   1.620  1.00  0.00     0.004 A 
ATOM     93  C   UNL     1      -2.318   1.343  -0.230  1.00  0.00    -0.047 A 
ATOM     94  C   UNL     1      -3.289   1.449   1.987  1.00  0.00     0.001 A 
ATOM     95  C   UNL     1      -2.414   0.858   1.082  1.00  0.00     0.004 A 
BRANCH  93  96
ATOM     96  C   UNL     1      -1.298   0.819  -1.237  1.00  0.00     0.039 CG1
ATOM     97  G   UNL     1      -0.099  -0.004  -0.671  1.00  0.00     0.000 G1
ENDBRANCH  93  96
ENDBRANCH  84  90
ENDBRANCH  81  84
ENDBRANCH  77  78
ENDBRANCH  74  77
ENDBRANCH  61  71
ENDBRANCH   4  61
TORSDOF 8
