REMARK SMILES CC(C)(O)/C=C/C[C@](C)(O[C@@H]1O[C@H](CO)[C@@H](O)[C@H](O)[C@H]1O)[C@H]1CC[C@]2(C)[C@@H]1[C@H](O)C[C@@H]1[C@@]3(C)CC[C@H](O)C(C)(C)[C@@H]3[C@@H](O[C@@H]3O[C@H](CO)[C@@H](O)[C@H](O)[C@H]3O[C@@H]3OC[C@@H](O)[C@H](O)[C@H]3O)C[C@]12C
REMARK SMILES IDX 22 1 23 2 24 3 25 4 26 5 27 6 28 7 30 8 31 9 32 10 33 11
REMARK SMILES IDX 34 12 35 13 36 14 38 15 39 16 40 17 41 18 42 19 64 20 65 21
REMARK SMILES IDX 66 22 8 23 9 24 7 25 6 26 5 27 2 28 1 29 3 30 4 31 10 33
REMARK SMILES IDX 11 34 12 35 20 36 13 37 18 38 16 39 21 40 14 42 15 43 19 45
REMARK SMILES IDX 17 47 29 49 43 51 44 52 45 53 53 54 46 55 51 56 49 57 54 58
REMARK SMILES IDX 55 59 56 60 62 61 57 62 60 63 58 64 63 65 61 67 59 69 47 71
REMARK SMILES IDX 48 72 52 74 50 76 37 78
REMARK H PARENT 4 32 21 41 15 44 19 46 17 48 29 50 63 66 61 68 59 70 48 73
REMARK H PARENT 52 75 50 77 37 79
ROOT
ATOM      1  C   UNL     1      -3.108  -0.991   1.387  1.00  0.00     0.028 C 
ATOM      2  C   UNL     1      -2.103  -2.112   1.841  1.00  0.00     0.007 C 
ATOM      3  C   UNL     1      -0.694  -1.689   1.386  1.00  0.00     0.008 C 
ATOM      4  C   UNL     1      -0.807  -0.192   1.091  1.00  0.00    -0.021 C 
ATOM      5  C   UNL     1      -0.830   0.536   2.506  1.00  0.00     0.012 C 
ATOM      6  C   UNL     1      -2.209  -0.178   0.384  1.00  0.00     0.030 C 
ATOM      7  C   UNL     1      -2.587   1.259  -0.065  1.00  0.00     0.118 C 
ATOM      8  C   UNL     1      -1.454   1.988  -0.847  1.00  0.00     0.036 C 
ATOM      9  C   UNL     1      -0.065   1.938  -0.141  1.00  0.00     0.004 C 
ATOM     10  C   UNL     1       1.051   2.905  -0.753  1.00  0.00    -0.023 C 
ATOM     11  C   UNL     1       1.233   2.686  -2.294  1.00  0.00     0.012 C 
ATOM     12  C   UNL     1       0.565   4.384  -0.583  1.00  0.00     0.010 C 
ATOM     13  C   UNL     1       1.650   5.427  -0.891  1.00  0.00     0.033 C 
ATOM     14  C   UNL     1       2.832   5.241   0.066  1.00  0.00     0.120 C 
ATOM     15  C   UNL     1       3.504   3.825  -0.019  1.00  0.00    -0.004 C 
ATOM     16  C   UNL     1       4.361   3.654  -1.297  1.00  0.00     0.014 C 
ATOM     17  C   UNL     1       4.484   3.782   1.192  1.00  0.00     0.014 C 
ATOM     18  C   UNL     1       2.371   2.709   0.133  1.00  0.00     0.033 C 
ATOM     19  C   UNL     1       2.824   1.201   0.046  1.00  0.00     0.126 C 
ATOM     20  C   UNL     1       1.748   0.346   0.766  1.00  0.00     0.040 C 
ATOM     21  C   UNL     1       0.333   0.423   0.116  1.00  0.00    -0.021 C 
ATOM     22  C   UNL     1       0.436  -0.414  -1.214  1.00  0.00     0.012 C 
ENDROOT
BRANCH   1  23
ATOM     23  C   UNL     1      -4.579  -1.528   1.097  1.00  0.00     0.075 C 
ATOM     24  C   UNL     1      -4.910  -2.629   2.150  1.00  0.00     0.043 C 
BRANCH  23  25
ATOM     25  C   UNL     1      -4.634  -2.191  -0.324  1.00  0.00     0.062 C 
BRANCH  25  26
ATOM     26  C   UNL     1      -5.886  -3.000  -0.559  1.00  0.00    -0.025 C 
ATOM     27  C   UNL     1      -5.838  -4.320  -0.814  1.00  0.00     0.003 C 
BRANCH  27  28
ATOM     28  C   UNL     1      -7.088  -5.166  -0.971  1.00  0.00     0.077 C 
ATOM     29  C   UNL     1      -7.972  -4.633  -2.115  1.00  0.00     0.046 C 
ATOM     30  C   UNL     1      -6.670  -6.620  -1.271  1.00  0.00     0.046 C 
BRANCH  28  31
ATOM     31  O   UNL     1      -7.800  -5.117   0.244  1.00  0.00    -0.386 OA
ATOM     32  H   UNL     1      -8.578  -5.729   0.171  1.00  0.00     0.211 HD
ENDBRANCH  28  31
ENDBRANCH  27  28
ENDBRANCH  25  26
ENDBRANCH  23  25
BRANCH  23  33
ATOM     33  O   UNL     1      -5.578  -0.540   1.427  1.00  0.00    -0.343 OA
BRANCH  33  34
ATOM     34  C   UNL     1      -6.142   0.332   0.464  1.00  0.00     0.282 C 
ATOM     35  O   UNL     1      -5.565   1.625   0.690  1.00  0.00    -0.341 OA
ATOM     36  C   UNL     1      -7.672   0.368   0.691  1.00  0.00     0.202 C 
ATOM     37  C   UNL     1      -6.354   2.784   0.388  1.00  0.00     0.178 C 
ATOM     38  C   UNL     1      -8.365   1.334  -0.307  1.00  0.00     0.179 C 
ATOM     39  C   UNL     1      -7.463   2.540  -0.669  1.00  0.00     0.177 C 
BRANCH  36  40
ATOM     40  O   UNL     1      -8.264  -0.908   0.688  1.00  0.00    -0.385 OA
ATOM     41  H   UNL     1      -8.522  -1.135  -0.242  1.00  0.00     0.211 HD
ENDBRANCH  36  40
BRANCH  37  42
ATOM     42  C   UNL     1      -6.872   3.440   1.683  1.00  0.00     0.191 C 
BRANCH  42  43
ATOM     43  O   UNL     1      -5.798   3.776   2.519  1.00  0.00    -0.394 OA
ATOM     44  H   UNL     1      -5.536   2.944   2.994  1.00  0.00     0.210 HD
ENDBRANCH  42  43
ENDBRANCH  37  42
BRANCH  38  45
ATOM     45  O   UNL     1      -9.619   1.730   0.191  1.00  0.00    -0.387 OA
ATOM     46  H   UNL     1      -9.464   2.338   0.958  1.00  0.00     0.211 HD
ENDBRANCH  38  45
BRANCH  39  47
ATOM     47  O   UNL     1      -6.887   2.357  -1.945  1.00  0.00    -0.387 OA
ATOM     48  H   UNL     1      -6.177   1.672  -1.896  1.00  0.00     0.211 HD
ENDBRANCH  39  47
ENDBRANCH  33  34
ENDBRANCH  23  33
ENDBRANCH   1  23
BRANCH   7  49
ATOM     49  O   UNL     1      -3.719   1.236  -0.889  1.00  0.00    -0.393 OA
ATOM     50  H   UNL     1      -3.506   0.700  -1.697  1.00  0.00     0.210 HD
ENDBRANCH   7  49
BRANCH  19  51
ATOM     51  O   UNL     1       4.075   0.963   0.676  1.00  0.00    -0.346 OA
BRANCH  51  52
ATOM     52  C   UNL     1       4.777  -0.148   0.108  1.00  0.00     0.282 C 
ATOM     53  O   UNL     1       4.481  -1.344   0.829  1.00  0.00    -0.341 OA
ATOM     54  C   UNL     1       6.299   0.124   0.029  1.00  0.00     0.209 C 
ATOM     55  C   UNL     1       5.308  -1.608   1.968  1.00  0.00     0.178 C 
ATOM     56  C   UNL     1       6.916   0.298   1.441  1.00  0.00     0.180 C 
ATOM     57  C   UNL     1       6.019  -0.343   2.518  1.00  0.00     0.177 C 
BRANCH  54  58
ATOM     58  O   UNL     1       6.920  -1.012  -0.567  1.00  0.00    -0.338 OA
BRANCH  58  59
ATOM     59  C   UNL     1       7.113  -0.890  -1.972  1.00  0.00     0.282 C 
ATOM     60  O   UNL     1       6.084  -1.596  -2.670  1.00  0.00    -0.347 OA
ATOM     61  C   UNL     1       8.537  -1.371  -2.350  1.00  0.00     0.202 C 
ATOM     62  C   UNL     1       6.312  -2.998  -2.860  1.00  0.00     0.198 C 
ATOM     63  C   UNL     1       8.721  -2.894  -2.088  1.00  0.00     0.179 C 
ATOM     64  C   UNL     1       7.361  -3.603  -1.909  1.00  0.00     0.171 C 
BRANCH  61  65
ATOM     65  O   UNL     1       8.805  -1.061  -3.699  1.00  0.00    -0.385 OA
ATOM     66  H   UNL     1       8.165  -1.553  -4.273  1.00  0.00     0.211 HD
ENDBRANCH  61  65
BRANCH  63  67
ATOM     67  O   UNL     1       9.545  -3.143  -0.976  1.00  0.00    -0.387 OA
ATOM     68  H   UNL     1       9.136  -2.689  -0.193  1.00  0.00     0.211 HD
ENDBRANCH  63  67
BRANCH  64  69
ATOM     69  O   UNL     1       7.487  -4.992  -2.070  1.00  0.00    -0.388 OA
ATOM     70  H   UNL     1       7.732  -5.162  -3.017  1.00  0.00     0.211 HD
ENDBRANCH  64  69
ENDBRANCH  58  59
ENDBRANCH  54  58
BRANCH  55  71
ATOM     71  C   UNL     1       4.424  -2.255   3.045  1.00  0.00     0.191 C 
BRANCH  71  72
ATOM     72  O   UNL     1       3.366  -1.406   3.408  1.00  0.00    -0.394 OA
ATOM     73  H   UNL     1       3.684  -0.855   4.169  1.00  0.00     0.210 HD
ENDBRANCH  71  72
ENDBRANCH  55  71
BRANCH  56  74
ATOM     74  O   UNL     1       7.103   1.649   1.771  1.00  0.00    -0.387 OA
ATOM     75  H   UNL     1       7.821   1.995   1.178  1.00  0.00     0.211 HD
ENDBRANCH  56  74
BRANCH  57  76
ATOM     76  O   UNL     1       6.753  -0.594   3.690  1.00  0.00    -0.387 OA
ATOM     77  H   UNL     1       7.410  -1.308   3.479  1.00  0.00     0.211 HD
ENDBRANCH  57  76
ENDBRANCH  51  52
ENDBRANCH  19  51
BRANCH  14  78
ATOM     78  O   UNL     1       3.769   6.281  -0.086  1.00  0.00    -0.393 OA
ATOM     79  H   UNL     1       3.982   6.369  -1.051  1.00  0.00     0.210 HD
ENDBRANCH  14  78
TORSDOF 25
