REMARK SMILES Cc1cc(=O)oc2c3c(ccc12)OCN(c1ccc2c(c1)OCCO2)C3
REMARK SMILES IDX 1 1 2 2 3 3 4 4 5 5 6 6 7 7 8 8 26 9 15 10 14 11 13 12 9 13
REMARK SMILES IDX 10 14 11 15 12 16 16 17 17 18 21 19 18 20 20 21 19 22 22 23
REMARK SMILES IDX 25 24 23 25 24 26
REMARK H PARENT
ROOT
ATOM      1  C   UNL     1      -6.827   0.089   0.092  1.00  0.00     0.045 C 
ATOM      2  C   UNL     1      -5.434   0.604  -0.164  1.00  0.00    -0.033 A 
ATOM      3  C   UNL     1      -5.269   1.841  -0.802  1.00  0.00     0.098 A 
ATOM      4  C   UNL     1      -3.981   2.320  -1.045  1.00  0.00     0.336 A 
ATOM      5  O   UNL     1      -3.826   3.394  -1.598  1.00  0.00    -0.246 OA
ATOM      6  O   UNL     1      -2.919   1.613  -0.680  1.00  0.00    -0.422 OA
ATOM      7  C   UNL     1      -3.011   0.432  -0.071  1.00  0.00     0.147 A 
ATOM      8  C   UNL     1      -1.838  -0.264   0.283  1.00  0.00     0.057 A 
ATOM      9  C   UNL     1      -0.494   0.318  -0.035  1.00  0.00     0.163 C 
ATOM     10  N   UNL     1       0.649  -0.509   0.358  1.00  0.00    -0.334 N 
ATOM     11  C   UNL     1       0.486  -1.801   1.036  1.00  0.00     0.352 C 
ATOM     12  O   UNL     1      -0.824  -2.178   1.263  1.00  0.00    -0.473 OA
ATOM     13  C   UNL     1      -1.931  -1.497   0.920  1.00  0.00     0.130 A 
ATOM     14  C   UNL     1      -3.183  -2.047   1.210  1.00  0.00     0.048 A 
ATOM     15  C   UNL     1      -4.353  -1.371   0.861  1.00  0.00     0.016 A 
ATOM     16  C   UNL     1      -4.283  -0.123   0.216  1.00  0.00     0.021 A 
ENDROOT
BRANCH  10  17
ATOM     17  C   UNL     1       1.988  -0.041   0.055  1.00  0.00     0.044 A 
ATOM     18  C   UNL     1       2.204   1.202  -0.601  1.00  0.00     0.030 A 
ATOM     19  C   UNL     1       3.132  -0.813   0.385  1.00  0.00     0.076 A 
ATOM     20  C   UNL     1       3.493   1.649  -0.905  1.00  0.00     0.052 A 
ATOM     21  C   UNL     1       4.416  -0.365   0.066  1.00  0.00     0.163 A 
ATOM     22  C   UNL     1       4.597   0.874  -0.567  1.00  0.00     0.161 A 
ATOM     23  O   UNL     1       5.511  -1.114   0.357  1.00  0.00    -0.486 OA
ATOM     24  O   UNL     1       5.860   1.292  -0.843  1.00  0.00    -0.486 OA
ATOM     25  C   UNL     1       6.734  -0.840  -0.241  1.00  0.00     0.271 C 
ATOM     26  C   UNL     1       6.955   0.678  -0.250  1.00  0.00     0.271 C 
ENDBRANCH  10  17
TORSDOF 1
