REMARK SMILES CNc1ccc(CC(C)C)c(CC[C@@H]2CC[C@]3(C2)C[C@@]2(C)[C@H](C[C@H]3O)[C@@H](O)C[C@H]3[C@@H]4CC[C@H]5[C@@H](CN6C[C@@H](C)CC[C@H]6[C@@]5(C)O)[C@H]4C[C@@H]32)c1
REMARK SMILES IDX 12 1 11 2 3 3 4 4 49 5 5 6 6 7 2 8 1 9 7 11 8 12 9 13 10 14
REMARK SMILES IDX 13 15 14 16 15 17 18 18 16 19 17 20 19 21 24 22 20 23 23 24
REMARK SMILES IDX 22 25 48 26 26 27 47 28 29 29 28 30 46 31 30 32 34 33 31 34
REMARK SMILES IDX 33 35 35 36 32 37 43 38 36 39 42 40 37 41 41 42 38 43 40 44
REMARK SMILES IDX 21 45 44 46 39 47 25 48 27 50 45 52
REMARK H PARENT 2 10 25 49 27 51 45 53
ROOT
ATOM      1  C   UNL     1       6.607  -0.282   1.045  1.00  0.00     0.036 C 
ENDROOT
BRANCH   1   2
ATOM      2  C   UNL     1       7.630  -0.029  -0.049  1.00  0.00    -0.043 A 
ATOM      3  C   UNL     1       8.464  -0.665  -2.267  1.00  0.00     0.034 A 
ATOM      4  C   UNL     1       9.428   0.350  -2.183  1.00  0.00     0.026 A 
ATOM      5  C   UNL     1       7.583  -0.849  -1.193  1.00  0.00     0.029 A 
ATOM      6  C   UNL     1       9.501   1.167  -1.054  1.00  0.00     0.006 A 
ATOM      7  C   UNL     1       8.604   1.007   0.020  1.00  0.00    -0.044 A 
BRANCH   3   8
ATOM      8  N   UNL     1       8.349  -1.510  -3.412  1.00  0.00    -0.388 N 
ATOM      9  C   UNL     1       9.174  -1.362  -4.592  1.00  0.00     0.139 C 
ATOM     10  H   UNL     1       7.632  -2.250  -3.418  1.00  0.00     0.160 HD
ENDBRANCH   3   8
BRANCH   7  11
ATOM     11  C   UNL     1       8.730   1.964   1.196  1.00  0.00     0.038 C 
BRANCH  11  12
ATOM     12  C   UNL     1       7.540   2.952   1.342  1.00  0.00    -0.013 C 
ATOM     13  C   UNL     1       7.749   3.832   2.580  1.00  0.00     0.008 C 
ATOM     14  C   UNL     1       7.380   3.830   0.093  1.00  0.00     0.008 C 
ENDBRANCH  11  12
ENDBRANCH   7  11
ENDBRANCH   1   2
BRANCH   1  15
ATOM     15  C   UNL     1       5.220   0.045   0.479  1.00  0.00     0.008 C 
BRANCH  15  16
ATOM     16  C   UNL     1       4.076   0.069   1.507  1.00  0.00    -0.010 C 
ATOM     17  C   UNL     1       3.803  -1.272   2.216  1.00  0.00     0.004 C 
ATOM     18  C   UNL     1       2.752   0.412   0.803  1.00  0.00     0.013 C 
ATOM     19  C   UNL     1       2.280  -1.449   2.132  1.00  0.00     0.010 C 
ATOM     20  C   UNL     1       1.940  -0.895   0.713  1.00  0.00    -0.003 C 
ATOM     21  C   UNL     1       0.424  -0.523   0.436  1.00  0.00     0.017 C 
ATOM     22  C   UNL     1       2.401  -1.905  -0.379  1.00  0.00     0.121 C 
ATOM     23  C   UNL     1      -0.510  -1.656  -0.150  1.00  0.00    -0.023 C 
ATOM     24  C   UNL     1       1.516  -3.207  -0.322  1.00  0.00     0.039 C 
ATOM     25  C   UNL     1       0.088  -3.011   0.302  1.00  0.00     0.027 C 
ATOM     26  C   UNL     1      -1.928  -1.512   0.473  1.00  0.00    -0.001 C 
ATOM     27  C   UNL     1      -0.861  -4.236   0.103  1.00  0.00     0.118 C 
ATOM     28  C   UNL     1      -2.778  -0.259   0.125  1.00  0.00     0.008 C 
ATOM     29  C   UNL     1      -2.838  -2.717   0.177  1.00  0.00    -0.001 C 
ATOM     30  C   UNL     1      -2.252  -3.995   0.778  1.00  0.00     0.036 C 
ATOM     31  C   UNL     1      -4.139  -0.859  -0.267  1.00  0.00    -0.003 C 
ATOM     32  C   UNL     1      -4.211  -2.142   0.557  1.00  0.00    -0.004 C 
ATOM     33  C   UNL     1      -5.417   0.021  -0.254  1.00  0.00     0.012 C 
ATOM     34  C   UNL     1      -5.432  -3.002   0.190  1.00  0.00     0.004 C 
ATOM     35  C   UNL     1      -6.627  -0.685   0.420  1.00  0.00     0.027 C 
ATOM     36  C   UNL     1      -5.259   1.421   0.319  1.00  0.00     0.089 C 
ATOM     37  C   UNL     1      -6.695  -2.150  -0.119  1.00  0.00     0.007 C 
ATOM     38  C   UNL     1      -7.918   0.152   0.116  1.00  0.00     0.080 C 
ATOM     39  N   UNL     1      -6.437   2.212  -0.072  1.00  0.00    -0.297 NA
ATOM     40  C   UNL     1      -7.706   1.675   0.497  1.00  0.00     0.088 C 
ATOM     41  C   UNL     1      -6.221   3.630   0.286  1.00  0.00     0.088 C 
ATOM     42  C   UNL     1      -8.894   2.540  -0.032  1.00  0.00     0.022 C 
ATOM     43  C   UNL     1      -7.316   4.498  -0.340  1.00  0.00    -0.000 C 
ATOM     44  C   UNL     1      -8.670   4.034   0.220  1.00  0.00     0.006 C 
ATOM     45  C   UNL     1      -0.646  -1.582  -1.715  1.00  0.00     0.012 C 
ATOM     46  C   UNL     1      -9.105  -0.437   0.935  1.00  0.00     0.044 C 
ATOM     47  C   UNL     1      -7.241   4.441  -1.880  1.00  0.00     0.009 C 
BRANCH  22  48
ATOM     48  O   UNL     1       2.318  -1.289  -1.639  1.00  0.00    -0.393 OA
ATOM     49  H   UNL     1       3.117  -0.714  -1.752  1.00  0.00     0.210 HD
ENDBRANCH  22  48
BRANCH  27  50
ATOM     50  O   UNL     1      -0.278  -5.413   0.600  1.00  0.00    -0.393 OA
ATOM     51  H   UNL     1      -0.136  -5.287   1.576  1.00  0.00     0.210 HD
ENDBRANCH  27  50
BRANCH  38  52
ATOM     52  O   UNL     1      -8.166   0.052  -1.274  1.00  0.00    -0.388 OA
ATOM     53  H   UNL     1      -9.143   0.094  -1.441  1.00  0.00     0.211 HD
ENDBRANCH  38  52
ENDBRANCH  15  16
ENDBRANCH   1  15
TORSDOF 9
