REMARK SMILES COc1c2c(nc3occc13)[C@@]1(OC)CCC(C)(C)O[C@@]1(O)CC2
REMARK SMILES IDX 3 1 4 2 24 3 23 4 21 5 20 6 17 7 18 8 19 9 16 10 15 11 12 12
REMARK SMILES IDX 5 13 6 14 7 15 11 16 10 17 9 18 8 19 2 20 1 21 13 22 14 23
REMARK SMILES IDX 22 24
REMARK H PARENT 22 25
ROOT
ATOM      1  C   UNL     1      -2.984  -0.611  -0.427  1.00  0.00     0.136 A 
ATOM      2  C   UNL     1      -1.591  -0.556  -0.673  1.00  0.00     0.020 A 
ATOM      3  C   UNL     1      -0.879  -1.671  -1.378  1.00  0.00     0.047 C 
ATOM      4  C   UNL     1       0.326  -2.010  -0.521  1.00  0.00     0.074 C 
ATOM      5  C   UNL     1       1.370  -0.859  -0.568  1.00  0.00     0.201 C 
ATOM      6  O   UNL     1       2.315  -1.187   0.449  1.00  0.00    -0.341 OA
ATOM      7  C   UNL     1       3.332  -0.233   0.754  1.00  0.00     0.066 C 
ATOM      8  C   UNL     1       4.602  -0.510  -0.072  1.00  0.00     0.042 C 
ATOM      9  C   UNL     1       3.671  -0.460   2.241  1.00  0.00     0.042 C 
ATOM     10  C   UNL     1       2.885   1.239   0.567  1.00  0.00     0.038 C 
ATOM     11  C   UNL     1       1.384   1.327   0.783  1.00  0.00     0.051 C 
ATOM     12  C   UNL     1       0.694   0.601  -0.407  1.00  0.00     0.163 C 
ATOM     13  C   UNL     1      -0.828   0.543  -0.186  1.00  0.00     0.089 A 
ATOM     14  N   UNL     1      -1.457   1.561   0.482  1.00  0.00    -0.214 NA
ATOM     15  C   UNL     1      -2.795   1.511   0.682  1.00  0.00     0.229 A 
ATOM     16  C   UNL     1      -3.558   0.467   0.252  1.00  0.00     0.083 A 
ATOM     17  C   UNL     1      -4.853   0.761   0.615  1.00  0.00     0.056 A 
ATOM     18  C   UNL     1      -4.776   1.993   1.257  1.00  0.00     0.198 A 
ATOM     19  O   UNL     1      -3.524   2.418   1.283  1.00  0.00    -0.446 OA
ENDROOT
BRANCH   1  20
ATOM     20  O   UNL     1      -3.714  -1.667  -0.855  1.00  0.00    -0.496 OA
ATOM     21  C   UNL     1      -4.344  -2.540   0.005  1.00  0.00     0.278 C 
ENDBRANCH   1  20
BRANCH  12  22
ATOM     22  O   UNL     1       0.957   1.281  -1.647  1.00  0.00    -0.366 OA
ATOM     23  C   UNL     1       0.435   2.592  -1.763  1.00  0.00     0.196 C 
ENDBRANCH  12  22
BRANCH   5  24
ATOM     24  O   UNL     1       2.012  -0.928  -1.826  1.00  0.00    -0.363 OA
ATOM     25  H   UNL     1       2.534  -1.774  -1.860  1.00  0.00     0.214 HD
ENDBRANCH   5  24
TORSDOF 3
