REMARK SMILES CC[C@H]1CN2CC[C@H]1C[C@@H]2CNC(=O)N1CCOCC1
REMARK SMILES IDX 3 1 4 2 5 3 6 4 7 5 8 6 9 7 10 8 2 9 1 10 11 11 12 12 13 13
REMARK SMILES IDX 14 14 15 15 16 16 20 17 17 18 19 19 18 20
REMARK H PARENT 12 21
ROOT
ATOM      1  C   UNL     1       3.390   0.820   0.398  1.00  0.00     0.006 C 
ATOM      2  C   UNL     1       1.885   1.251   0.451  1.00  0.00     0.088 C 
ATOM      3  N   UNL     1       1.044   0.176   1.061  1.00  0.00    -0.298 NA
ATOM      4  C   UNL     1       1.739  -0.315   2.284  1.00  0.00     0.085 C 
ATOM      5  C   UNL     1       3.004  -1.142   1.892  1.00  0.00     0.019 C 
ATOM      6  C   UNL     1       3.413  -0.739   0.450  1.00  0.00    -0.004 C 
ATOM      7  C   UNL     1       2.324  -1.285  -0.519  1.00  0.00     0.025 C 
ATOM      8  C   UNL     1       0.928  -0.972   0.111  1.00  0.00     0.076 C 
ENDROOT
BRANCH   1   9
ATOM      9  C   UNL     1       4.115   1.471  -0.802  1.00  0.00     0.002 C 
ATOM     10  C   UNL     1       5.623   1.205  -0.796  1.00  0.00     0.004 C 
ENDBRANCH   1   9
BRANCH   8  11
ATOM     11  C   UNL     1      -0.187  -0.784  -0.936  1.00  0.00     0.136 C 
BRANCH  11  12
ATOM     12  N   UNL     1      -1.496  -0.682  -0.300  1.00  0.00    -0.336 N 
ATOM     13  C   UNL     1      -2.636  -0.530  -1.043  1.00  0.00     0.317 C 
ATOM     14  O   UNL     1      -2.524  -0.438  -2.260  1.00  0.00    -0.249 OA
ATOM     15  N   UNL     1      -3.901  -0.493  -0.483  1.00  0.00    -0.320 N 
ATOM     16  C   UNL     1      -5.087  -0.313  -1.315  1.00  0.00     0.150 C 
ATOM     17  C   UNL     1      -4.203  -0.608   0.942  1.00  0.00     0.150 C 
ATOM     18  C   UNL     1      -5.857   0.905  -0.791  1.00  0.00     0.181 C 
ATOM     19  C   UNL     1      -5.028   0.617   1.360  1.00  0.00     0.181 C 
ATOM     20  O   UNL     1      -6.203   0.725   0.572  1.00  0.00    -0.378 OA
ATOM     21  H   UNL     1      -1.524  -0.752   0.721  1.00  0.00     0.165 HD
ENDBRANCH  11  12
ENDBRANCH   8  11
TORSDOF 3
