REMARK SMILES C[C]CC[C][C]CC[C][C]CCCCCCC(=O)O[C@H](COCCC(C)CCCCCCCCCCCCC)CO[C@@H]1[C@H](O)[C@H](O)[C@H](O)[C@@H]1O
REMARK SMILES IDX 20 1 19 2 17 3 18 4 16 5 15 6 14 7 13 8 12 9 11 10 10 11
REMARK SMILES IDX 9 12 8 13 7 14 6 15 5 16 4 17 3 18 2 19 1 20 21 21 22 22
REMARK SMILES IDX 23 23 24 24 25 25 26 26 27 27 28 28 29 29 30 30 31 31 32 32
REMARK SMILES IDX 33 33 34 34 35 35 36 36 37 37 38 38 39 39 40 40 41 41 42 42
REMARK SMILES IDX 43 43 49 44 45 45 47 46 44 47 50 49 46 51 48 53
REMARK H PARENT 44 48 50 50 46 52 48 54
ROOT
ATOM      1  C   UNL     1       6.303   0.897   0.447  1.00  0.00     0.228 C 
ENDROOT
BRANCH   1   2
ATOM      2  O   UNL     1       6.672   1.993  -0.353  1.00  0.00    -0.457 OA
BRANCH   2   3
ATOM      3  C   UNL     1       7.441   3.066   0.038  1.00  0.00     0.306 C 
ATOM      4  O   UNL     1       8.391   2.889   0.786  1.00  0.00    -0.252 OA
BRANCH   3   5
ATOM      5  C   UNL     1       7.079   4.498  -0.421  1.00  0.00     0.123 C 
BRANCH   5   6
ATOM      6  C   UNL     1       8.095   5.619  -0.004  1.00  0.00     0.012 C 
BRANCH   6   7
ATOM      7  C   UNL     1       7.659   7.099  -0.332  1.00  0.00     0.001 C 
BRANCH   7   8
ATOM      8  C   UNL     1       8.817   8.110  -0.042  1.00  0.00     0.000 C 
BRANCH   8   9
ATOM      9  C   UNL     1       8.586   9.667  -0.248  1.00  0.00     0.001 C 
BRANCH   9  10
ATOM     10  C   UNL     1       9.956  10.375   0.000  1.00  0.00     0.009 C 
BRANCH  10  11
ATOM     11  C   UNL     1      10.419  11.801   0.000  1.00  0.00    -0.009 C 
BRANCH  11  12
ATOM     12  C   UNL     1      10.883  13.228   0.000  1.00  0.00    -0.009 C 
BRANCH  12  13
ATOM     13  C   UNL     1      11.346  14.654   0.000  1.00  0.00     0.009 C 
BRANCH  13  14
ATOM     14  C   UNL     1      11.810  16.081   0.000  1.00  0.00     0.009 C 
BRANCH  14  15
ATOM     15  C   UNL     1      12.273  17.508   0.000  1.00  0.00    -0.009 C 
BRANCH  15  16
ATOM     16  C   UNL     1      12.737  18.934   0.000  1.00  0.00    -0.009 C 
BRANCH  16  17
ATOM     17  C   UNL     1      13.200  20.361   0.000  1.00  0.00     0.009 C 
BRANCH  17  18
ATOM     18  C   UNL     1      13.664  21.787   0.000  1.00  0.00     0.008 C 
BRANCH  18  19
ATOM     19  C   UNL     1      14.127  23.214   0.000  1.00  0.00    -0.021 C 
ATOM     20  C   UNL     1      14.591  24.640   0.000  1.00  0.00     0.012 C 
ENDBRANCH  18  19
ENDBRANCH  17  18
ENDBRANCH  16  17
ENDBRANCH  15  16
ENDBRANCH  14  15
ENDBRANCH  13  14
ENDBRANCH  12  13
ENDBRANCH  11  12
ENDBRANCH  10  11
ENDBRANCH   9  10
ENDBRANCH   8   9
ENDBRANCH   7   8
ENDBRANCH   6   7
ENDBRANCH   5   6
ENDBRANCH   3   5
ENDBRANCH   2   3
ENDBRANCH   1   2
BRANCH   1  21
ATOM     21  C   UNL     1       6.704  -0.521  -0.118  1.00  0.00     0.207 C 
BRANCH  21  22
ATOM     22  O   UNL     1       8.097  -0.850   0.000  1.00  0.00    -0.377 OA
BRANCH  22  23
ATOM     23  C   UNL     1       8.409  -2.318   0.000  1.00  0.00     0.160 C 
BRANCH  23  24
ATOM     24  C   UNL     1       8.721  -3.785   0.000  1.00  0.00     0.032 C 
BRANCH  24  25
ATOM     25  C   UNL     1       9.033  -5.252   0.000  1.00  0.00    -0.012 C 
ATOM     26  C   UNL     1       9.345  -6.719   0.000  1.00  0.00     0.008 C 
BRANCH  25  27
ATOM     27  C   UNL     1      10.812  -5.065  -0.045  1.00  0.00     0.003 C 
BRANCH  27  28
ATOM     28  C   UNL     1      11.905  -3.916   0.436  1.00  0.00     0.000 C 
BRANCH  28  29
ATOM     29  C   UNL     1      13.434  -4.316   0.000  1.00  0.00     0.000 C 
BRANCH  29  30
ATOM     30  C   UNL     1      14.902  -4.005   0.000  1.00  0.00     0.000 C 
BRANCH  30  31
ATOM     31  C   UNL     1      16.369  -3.693   0.000  1.00  0.00     0.000 C 
BRANCH  31  32
ATOM     32  C   UNL     1      17.836  -3.381   0.000  1.00  0.00     0.000 C 
BRANCH  32  33
ATOM     33  C   UNL     1      19.303  -3.069   0.000  1.00  0.00    -0.000 C 
BRANCH  33  34
ATOM     34  C   UNL     1      20.770  -2.757   0.000  1.00  0.00    -0.000 C 
BRANCH  34  35
ATOM     35  C   UNL     1      22.451  -3.054   0.115  1.00  0.00    -0.000 C 
BRANCH  35  36
ATOM     36  C   UNL     1      23.539  -1.741   0.272  1.00  0.00    -0.000 C 
BRANCH  36  37
ATOM     37  C   UNL     1      25.162  -1.415   0.794  1.00  0.00    -0.000 C 
BRANCH  37  38
ATOM     38  C   UNL     1      26.639  -1.510   0.000  1.00  0.00    -0.003 C 
ATOM     39  C   UNL     1      28.107  -1.198   0.000  1.00  0.00     0.004 C 
ENDBRANCH  37  38
ENDBRANCH  36  37
ENDBRANCH  35  36
ENDBRANCH  34  35
ENDBRANCH  33  34
ENDBRANCH  32  33
ENDBRANCH  31  32
ENDBRANCH  30  31
ENDBRANCH  29  30
ENDBRANCH  28  29
ENDBRANCH  27  28
ENDBRANCH  25  27
ENDBRANCH  24  25
ENDBRANCH  23  24
ENDBRANCH  22  23
ENDBRANCH  21  22
ENDBRANCH   1  21
BRANCH   1  40
ATOM     40  C   UNL     1       4.756   0.937   0.569  1.00  0.00     0.208 C 
BRANCH  40  41
ATOM     41  O   UNL     1       4.185   0.635  -0.693  1.00  0.00    -0.369 OA
BRANCH  41  42
ATOM     42  C   UNL     1       2.766   0.497  -0.726  1.00  0.00     0.181 C 
ATOM     43  C   UNL     1       1.876   1.530  -0.008  1.00  0.00     0.177 C 
ATOM     44  C   UNL     1       2.168  -0.870  -0.317  1.00  0.00     0.177 C 
ATOM     45  C   UNL     1       0.504   0.946  -0.384  1.00  0.00     0.177 C 
ATOM     46  C   UNL     1       0.639  -0.574  -0.151  1.00  0.00     0.177 C 
BRANCH  43  47
ATOM     47  O   UNL     1       2.068   1.489   1.380  1.00  0.00    -0.387 OA
ATOM     48  H   UNL     1       1.656   2.314   1.749  1.00  0.00     0.211 HD
ENDBRANCH  43  47
BRANCH  44  49
ATOM     49  O   UNL     1       2.712  -1.292   0.907  1.00  0.00    -0.387 OA
ATOM     50  H   UNL     1       2.440  -2.239   1.031  1.00  0.00     0.211 HD
ENDBRANCH  44  49
BRANCH  45  51
ATOM     51  O   UNL     1      -0.604   1.547   0.238  1.00  0.00    -0.387 OA
ATOM     52  H   UNL     1      -0.490   1.461   1.219  1.00  0.00     0.211 HD
ENDBRANCH  45  51
BRANCH  46  53
ATOM     53  O   UNL     1       0.214  -0.908   1.151  1.00  0.00    -0.387 OA
ATOM     54  H   UNL     1      -0.469  -1.624   1.068  1.00  0.00     0.211 HD
ENDBRANCH  46  53
ENDBRANCH  41  42
ENDBRANCH  40  41
ENDBRANCH   1  40
TORSDOF 41
