REMARK SMILES C[C@H](O)CNc1nc2c(c(=O)n(C)c(=O)n2C)n1Cc1cccc(Br)c1
REMARK SMILES IDX 5 1 4 3 2 4 1 5 3 6 6 8 7 9 18 10 8 11 9 12 16 13 10 14
REMARK SMILES IDX 14 15 11 16 12 17 15 18 17 19 13 20 19 21 20 22 21 23 26 24
REMARK SMILES IDX 22 25 24 26 23 27 25 28
REMARK H PARENT 5 2 3 7
ROOT
ATOM      1  N   UNL     1       2.094  -0.626   0.018  1.00  0.00    -0.353 N 
ATOM      2  H   UNL     1       1.999  -1.546   0.464  1.00  0.00     0.163 HD
ENDROOT
BRANCH   1   3
ATOM      3  C   UNL     1       3.312  -0.296  -0.698  1.00  0.00     0.147 C 
BRANCH   3   4
ATOM      4  C   UNL     1       4.339  -1.447  -0.666  1.00  0.00     0.130 C 
ATOM      5  C   UNL     1       4.817  -1.782   0.754  1.00  0.00     0.040 C 
BRANCH   4   6
ATOM      6  O   UNL     1       5.442  -1.127  -1.478  1.00  0.00    -0.392 OA
ATOM      7  H   UNL     1       5.865  -0.311  -1.104  1.00  0.00     0.211 HD
ENDBRANCH   4   6
ENDBRANCH   3   4
ENDBRANCH   1   3
BRANCH   1   8
ATOM      8  C   UNL     1       1.016   0.298   0.070  1.00  0.00     0.205 A 
ATOM      9  N   UNL     1       1.068   1.516  -0.523  1.00  0.00    -0.194 NA
ATOM     10  N   UNL     1      -0.174   0.064   0.695  1.00  0.00    -0.300 N 
ATOM     11  C   UNL     1      -0.130   2.058  -0.246  1.00  0.00     0.170 A 
ATOM     12  C   UNL     1      -0.885   1.194   0.482  1.00  0.00     0.154 A 
ATOM     13  N   UNL     1      -0.562   3.295  -0.606  1.00  0.00    -0.279 N 
ATOM     14  C   UNL     1      -2.165   1.561   0.897  1.00  0.00     0.282 A 
ATOM     15  C   UNL     1      -1.832   3.683  -0.202  1.00  0.00     0.332 A 
ATOM     16  O   UNL     1      -2.847   0.796   1.555  1.00  0.00    -0.267 OA
ATOM     17  N   UNL     1      -2.632   2.822   0.549  1.00  0.00    -0.261 N 
ATOM     18  O   UNL     1      -2.253   4.791  -0.502  1.00  0.00    -0.247 OA
ATOM     19  C   UNL     1       0.321   4.170  -1.390  1.00  0.00     0.157 C 
ATOM     20  C   UNL     1      -3.968   3.278   0.972  1.00  0.00     0.159 C 
BRANCH  10  21
ATOM     21  C   UNL     1      -0.579  -1.123   1.462  1.00  0.00     0.161 C 
BRANCH  21  22
ATOM     22  C   UNL     1      -1.392  -2.075   0.622  1.00  0.00    -0.027 A 
ATOM     23  C   UNL     1      -0.802  -2.716  -0.482  1.00  0.00     0.005 A 
ATOM     24  C   UNL     1      -2.729  -2.361   0.944  1.00  0.00     0.021 A 
ATOM     25  C   UNL     1      -1.534  -3.628  -1.247  1.00  0.00     0.002 A 
ATOM     26  C   UNL     1      -3.463  -3.268   0.169  1.00  0.00     0.018 A 
ATOM     27  C   UNL     1      -2.864  -3.903  -0.923  1.00  0.00     0.016 A 
ATOM     28  Br  UNL     1      -5.283  -3.646   0.607  1.00  0.00    -0.051 Br
ENDBRANCH  21  22
ENDBRANCH  10  21
ENDBRANCH   1   8
TORSDOF 6
