REMARK SMILES CC[C@H]1Cc2cc(O)c(O[C@H]3C[C@@H](Cc4ccc[nH]4)c4ccnc(N)c4CSSC[C@H](CO)[C@@H]3O)cc2[C@@H]2C[C@@H](O)[C@H]3[C@H](C#C[C@]4(CCCC[C@@H]3OCCO)C[C@@H](c3ccccc3)[C@H]3Cc5ccccc5CCC[C@H]3[C@@H]4CO)C=C12
REMARK SMILES IDX 3 1 4 2 5 3 6 4 7 5 9 6 36 7 37 8 38 9 79 10 80 11 2 12 1 13
REMARK SMILES IDX 43 14 44 15 45 17 46 18 56 19 76 20 57 21 75 22 64 23 47 24
REMARK SMILES IDX 48 25 49 26 77 28 78 29 58 31 59 32 63 33 60 34 62 35 61 36
REMARK SMILES IDX 74 37 73 38 65 40 66 41 67 42 71 43 68 44 70 45 69 46 72 47
REMARK SMILES IDX 39 49 40 50 41 51 42 53 51 55 50 56 52 58 53 59 54 60 55 61
REMARK SMILES IDX 8 63 10 65 11 66 12 67 13 68 14 69 15 70 16 71 19 72 17 73
REMARK SMILES IDX 18 74 20 76 21 77 26 78 22 79 24 80 23 81 27 82 28 83 29 84
REMARK SMILES IDX 30 85 25 87 34 90 31 91 32 93 33 94 35 96
REMARK H PARENT 78 30 41 52 55 62 8 64 19 75 25 88 25 89 33 95 35 97
REMARK Flexibility Score:  205.600
ROOT
ATOM      1  C   UNL     1       0.023  -0.569  -2.429  1.00  0.00     0.019 C 
ATOM      2  C   UNL     1       1.275   0.152  -2.898  1.00  0.00     0.044 C 
ATOM      3  C   UNL     1       2.447   0.037  -2.035  1.00  0.00    -0.040 A 
ATOM      4  C   UNL     1       3.697   0.078  -2.636  1.00  0.00     0.054 A 
ATOM      5  C   UNL     1       4.860   0.083  -1.875  1.00  0.00     0.157 A 
ATOM      6  C   UNL     1       4.756   0.066  -0.466  1.00  0.00     0.161 A 
ATOM      7  C   UNL     1       3.491   0.072   0.116  1.00  0.00     0.055 A 
ATOM      8  C   UNL     1       2.313   0.040  -0.656  1.00  0.00    -0.034 A 
ATOM      9  C   UNL     1       0.943  -0.001   0.010  1.00  0.00     0.048 C 
ATOM     10  C   UNL     1      -1.407  -0.723  -0.497  1.00  0.00    -0.010 C 
ATOM     11  C   UNL     1      -0.218  -0.319  -0.966  1.00  0.00    -0.062 C 
ENDROOT
BRANCH   1  12
ATOM     12  C   UNL     1      -1.043  -0.023  -3.398  1.00  0.00     0.005 C 
ATOM     13  C   UNL     1      -2.475  -0.501  -3.379  1.00  0.00     0.004 C 
ENDBRANCH   1  12
BRANCH  10  14
ATOM     14  C   UNL     1      -1.749  -0.859   0.941  1.00  0.00     0.095 CG1
ATOM     15  C   UNL     1      -3.146  -0.785   1.013  1.00  0.00    -0.095 C 
ATOM     16  G   UNL     1      -1.221  -2.217   1.443  1.00  0.00     0.000 G1
BRANCH  15  17
ATOM     17  C   UNL     1      -4.311  -0.854   0.985  1.00  0.00    -0.095 C 
ATOM     18  C   UNL     1      -5.709  -0.961   0.988  1.00  0.00     0.037 C 
ATOM     19  C   UNL     1      -6.183  -0.310  -0.316  1.00  0.00     0.029 C 
ATOM     20  C   UNL     1      -6.288  -0.268   2.290  1.00  0.00     0.036 C 
ATOM     21  C   UNL     1      -6.299   1.201  -0.201  1.00  0.00     0.024 C 
ATOM     22  C   UNL     1      -7.497   0.626   2.057  1.00  0.00    -0.000 C 
ATOM     23  C   UNL     1      -7.135   1.666   1.026  1.00  0.00     0.004 C 
BRANCH  18  24
ATOM     24  C   UNL     1      -5.925  -2.460   0.875  1.00  0.00     0.020 C 
BRANCH  24  25
ATOM     25  C   UNL     1      -5.504  -3.288   2.083  1.00  0.00     0.002 C 
BRANCH  25  26
ATOM     26  C   UNL     1      -4.112  -3.283   2.700  1.00  0.00     0.003 CG2
ATOM     27  G   UNL     1      -2.962  -4.030   2.086  1.00  0.00     0.000 G2
ENDBRANCH  25  26
ENDBRANCH  24  25
ENDBRANCH  18  24
BRANCH  20  28
ATOM     28  C   UNL     1      -5.290   0.407   3.275  1.00  0.00     0.161 C 
BRANCH  28  29
ATOM     29  O   UNL     1      -4.570   1.511   2.781  1.00  0.00    -0.396 OA
ATOM     30  H   UNL     1      -3.876   1.206   2.156  1.00  0.00     0.210 HD
ENDBRANCH  28  29
ENDBRANCH  20  28
BRANCH  21  31
ATOM     31  C   UNL     1      -6.695   1.832  -1.489  1.00  0.00    -0.045 A 
ATOM     32  C   UNL     1      -6.105   3.054  -1.820  1.00  0.00     0.004 A 
ATOM     33  C   UNL     1      -7.622   1.242  -2.365  1.00  0.00     0.004 A 
ATOM     34  C   UNL     1      -6.429   3.684  -3.009  1.00  0.00     0.000 A 
ATOM     35  C   UNL     1      -7.940   1.876  -3.559  1.00  0.00     0.000 A 
ATOM     36  C   UNL     1      -7.344   3.096  -3.881  1.00  0.00     0.000 A 
ENDBRANCH  21  31
BRANCH  22  37
ATOM     37  C   UNL     1      -8.773  -0.220   2.008  1.00  0.00     0.005 C 
BRANCH  37  38
ATOM     38  C   UNL     1      -9.649  -0.217   0.805  1.00  0.00     0.005 CG3
ATOM     39  G   UNL     1     -10.758   0.782   1.014  1.00  0.00     0.000 G3
ENDBRANCH  37  38
ENDBRANCH  22  37
BRANCH  23  40
ATOM     40  C   UNL     1      -8.097   2.814   0.938  1.00  0.00     0.040 C 
BRANCH  40  41
ATOM     41  C   UNL     1      -9.343   2.800   0.089  1.00  0.00    -0.045 A 
ATOM     42  C   UNL     1      -9.339   3.834  -0.842  1.00  0.00     0.004 A 
ATOM     43  C   UNL     1     -10.510   1.961   0.147  1.00  0.00    -0.045 A 
ATOM     44  C   UNL     1     -10.399   4.059  -1.673  1.00  0.00     0.000 A 
ATOM     45  C   UNL     1     -11.569   2.214  -0.721  1.00  0.00     0.004 A 
ATOM     46  C   UNL     1     -11.515   3.254  -1.613  1.00  0.00     0.000 A 
BRANCH  43  47
ATOM     47  C   UNL     1     -10.758   0.782   1.014  1.00  0.00     0.036 CG3
ATOM     48  G   UNL     1      -9.649  -0.217   0.805  1.00  0.00     0.000 G3
ENDBRANCH  43  47
ENDBRANCH  40  41
ENDBRANCH  23  40
ENDBRANCH  15  17
ENDBRANCH  10  14
BRANCH   9  49
ATOM     49  C   UNL     1       1.020  -1.063   1.172  1.00  0.00     0.045 C 
BRANCH  49  50
ATOM     50  C   UNL     1       0.249  -2.358   0.926  1.00  0.00     0.122 C 
BRANCH  50  51
ATOM     51  O   UNL     1       0.928  -3.471   1.441  1.00  0.00    -0.393 OA
ATOM     52  H   UNL     1       0.915  -3.401   2.419  1.00  0.00     0.210 HD
ENDBRANCH  50  51
BRANCH  50  53
ATOM     53  C   UNL     1      -1.221  -2.217   1.443  1.00  0.00     0.066 CG1
ATOM     54  G   UNL     1      -1.749  -0.859   0.941  1.00  0.00     0.000 G1
BRANCH  53  55
ATOM     55  C   UNL     1      -2.095  -3.435   0.980  1.00  0.00     0.125 C 
BRANCH  55  56
ATOM     56  C   UNL     1      -2.962  -4.030   2.086  1.00  0.00     0.032 CG2
ATOM     57  G   UNL     1      -4.112  -3.283   2.700  1.00  0.00     0.000 G2
ENDBRANCH  55  56
BRANCH  55  58
ATOM     58  O   UNL     1      -1.194  -4.460   0.662  1.00  0.00    -0.375 OA
BRANCH  58  59
ATOM     59  C   UNL     1      -1.474  -5.108  -0.538  1.00  0.00     0.188 C 
BRANCH  59  60
ATOM     60  C   UNL     1      -1.396  -4.274  -1.820  1.00  0.00     0.184 C 
BRANCH  60  61
ATOM     61  O   UNL     1      -1.629  -5.130  -2.904  1.00  0.00    -0.394 OA
ATOM     62  H   UNL     1      -0.954  -5.859  -2.845  1.00  0.00     0.210 HD
ENDBRANCH  60  61
ENDBRANCH  59  60
ENDBRANCH  58  59
ENDBRANCH  55  58
ENDBRANCH  53  55
ENDBRANCH  50  53
ENDBRANCH  49  50
ENDBRANCH   9  49
BRANCH   5  63
ATOM     63  O   UNL     1       6.042   0.117  -2.514  1.00  0.00    -0.504 OA
ATOM     64  H   UNL     1       6.098   0.137  -3.481  1.00  0.00     0.293 HD
ENDBRANCH   5  63
BRANCH   6  65
ATOM     65  O   UNL     1       5.799   0.028   0.397  1.00  0.00    -0.484 OA
BRANCH  65  66
ATOM     66  C   UNL     1       7.156   0.109   0.166  1.00  0.00     0.203 C 
BRANCH  66  67
ATOM     67  C   UNL     1       7.556   1.553   0.001  1.00  0.00     0.056 C 
BRANCH  67  68
ATOM     68  C   UNL     1       9.078   1.820   0.140  1.00  0.00     0.029 C 
BRANCH  68  69
ATOM     69  C   UNL     1       9.460   3.122  -0.548  1.00  0.00     0.062 C 
BRANCH  69  70
ATOM     70  C   UNL     1       9.239   3.169  -2.017  1.00  0.00     0.015 A 
ATOM     71  C   UNL     1       9.421   4.318  -2.737  1.00  0.00     0.023 A 
ATOM     72  N   UNL     1       8.822   2.167  -2.816  1.00  0.00    -0.365 N 
ATOM     73  C   UNL     1       9.084   4.017  -4.033  1.00  0.00     0.019 A 
ATOM     74  C   UNL     1       8.716   2.687  -4.050  1.00  0.00     0.082 A 
ATOM     75  H   UNL     1       8.604   1.179  -2.554  1.00  0.00     0.166 HD
ENDBRANCH  69  70
ENDBRANCH  68  69
BRANCH  68  76
ATOM     76  C   UNL     1       9.455   2.030   1.611  1.00  0.00    -0.035 A 
ATOM     77  C   UNL     1       8.725   3.013   2.317  1.00  0.00     0.024 A 
ATOM     78  C   UNL     1      10.522   1.361   2.286  1.00  0.00     0.009 A 
ATOM     79  C   UNL     1       9.015   3.293   3.629  1.00  0.00     0.114 A 
ATOM     80  C   UNL     1      10.793   1.730   3.631  1.00  0.00     0.127 A 
ATOM     81  N   UNL     1      10.024   2.653   4.258  1.00  0.00    -0.239 NA
BRANCH  78  82
ATOM     82  C   UNL     1      11.409   0.309   1.633  1.00  0.00     0.121 C 
BRANCH  82  83
ATOM     83  S   UNL     1      11.398  -1.267   2.650  1.00  0.00    -0.089 SA
BRANCH  83  84
ATOM     84  S   UNL     1      10.432  -2.807   1.541  1.00  0.00    -0.093 SA
BRANCH  84  85
ATOM     85  C   UNL     1       8.692  -2.819   2.220  1.00  0.00     0.090 CG0
ATOM     86  G   UNL     1       7.680  -2.128   1.291  1.00  0.00     0.000 G0
ENDBRANCH  84  85
ENDBRANCH  83  84
ENDBRANCH  82  83
ENDBRANCH  78  82
BRANCH  80  87
ATOM     87  N   UNL     1      11.853   1.148   4.353  1.00  0.00    -0.383 N 
ATOM     88  H   UNL     1      12.003   1.392   5.326  1.00  0.00     0.158 HD
ATOM     89  H   UNL     1      12.530   0.510   3.931  1.00  0.00     0.158 HD
ENDBRANCH  80  87
ENDBRANCH  68  76
ENDBRANCH  67  68
ENDBRANCH  66  67
BRANCH  66  90
ATOM     90  C   UNL     1       7.923  -0.620   1.278  1.00  0.00     0.161 C 
BRANCH  90  91
ATOM     91  C   UNL     1       7.680  -2.128   1.291  1.00  0.00     0.058 CG0
ATOM     92  G   UNL     1       8.692  -2.819   2.220  1.00  0.00     0.000 G0
BRANCH  91  93
ATOM     93  C   UNL     1       7.742  -2.789  -0.115  1.00  0.00     0.163 C 
BRANCH  93  94
ATOM     94  O   UNL     1       8.993  -2.695  -0.754  1.00  0.00    -0.396 OA
ATOM     95  H   UNL     1       9.252  -1.739  -0.816  1.00  0.00     0.210 HD
ENDBRANCH  93  94
ENDBRANCH  91  93
ENDBRANCH  90  91
BRANCH  90  96
ATOM     96  O   UNL     1       7.680  -0.048   2.540  1.00  0.00    -0.389 OA
ATOM     97  H   UNL     1       6.710  -0.135   2.722  1.00  0.00     0.211 HD
ENDBRANCH  90  96
ENDBRANCH  66  90
ENDBRANCH  65  66
ENDBRANCH   6  65
TORSDOF 18
