REMARK SMILES O=C1CCc2cc(c(O)c(OC3CCCC3)c2)Cc2ccc3c(c2)Cc2cc[nH]c2N[C@H](C#CC[C@@H](O)C3)C2=Cc3[nH]ccc3[C@@H](C[C@H]3C=Cc4c(O)cccc4CC3)[C@@H]2C(=O)[C@@H]1CCO
REMARK SMILES IDX 31 1 30 3 26 4 27 5 29 6 28 7 25 9 23 10 19 11 20 12 24 13
REMARK SMILES IDX 21 14 22 15 18 16 7 17 5 18 6 19 17 20 10 21 8 22 4 23 3 24
REMARK SMILES IDX 2 25 1 26 11 28 12 29 13 30 16 31 14 32 15 33 9 34 38 36
REMARK SMILES IDX 36 37 37 38 35 40 34 41 32 43 33 44 39 46 40 47 60 48 41 49
REMARK SMILES IDX 46 50 45 51 42 52 44 53 43 54 61 56 62 57 63 58 64 60 65 61
REMARK SMILES IDX 66 62 47 64 48 65 49 66 50 67 51 68 52 69 57 70 54 71 56 72
REMARK SMILES IDX 55 73 53 74 58 76 59 78
REMARK H PARENT 31 2 29 8 9 35 37 39 42 55 66 63 53 75
REMARK Flexibility Score:  369.700
ROOT
ATOM      1  N   UNL     1      -1.704   3.316  -1.672  1.00  0.00    -0.354 N 
ATOM      2  H   UNL     1      -2.277   3.353  -2.530  1.00  0.00     0.163 HD
ENDROOT
BRANCH   1   3
ATOM      3  C   UNL     1      -0.301   3.452  -1.905  1.00  0.00     0.108 A 
ATOM      4  C   UNL     1       0.802   3.251  -1.060  1.00  0.00    -0.002 A 
ATOM      5  C   UNL     1       1.923   3.459  -1.863  1.00  0.00     0.025 A 
ATOM      6  N   UNL     1       0.143   3.767  -3.142  1.00  0.00    -0.348 N 
ATOM      7  C   UNL     1       1.482   3.784  -3.118  1.00  0.00     0.084 A 
ATOM      8  H   UNL     1      -0.448   3.961  -3.981  1.00  0.00     0.167 HD
BRANCH   4   9
ATOM      9  C   UNL     1       0.926   2.787   0.376  1.00  0.00     0.075 C 
BRANCH   9  10
ATOM     10  C   UNL     1       2.191   3.340   1.010  1.00  0.00    -0.040 A 
ATOM     11  C   UNL     1       4.517   2.764   1.485  1.00  0.00    -0.043 A 
ATOM     12  C   UNL     1       4.785   4.116   1.737  1.00  0.00     0.004 A 
ATOM     13  C   UNL     1       3.194   2.397   1.222  1.00  0.00     0.008 A 
ATOM     14  C   UNL     1       3.767   5.077   1.640  1.00  0.00     0.004 A 
ATOM     15  C   UNL     1       2.463   4.716   1.238  1.00  0.00    -0.042 A 
BRANCH  11  16
ATOM     16  C   UNL     1       5.678   1.768   1.360  1.00  0.00     0.075 C 
BRANCH  16  17
ATOM     17  C   UNL     1       5.321   0.373   0.799  1.00  0.00     0.002 A 
ATOM     18  C   UNL     1       3.962  -0.917  -0.797  1.00  0.00    -0.043 A 
ATOM     19  C   UNL     1       4.470   0.295  -0.329  1.00  0.00     0.012 A 
ATOM     20  C   UNL     1       4.448  -2.104  -0.239  1.00  0.00     0.054 A 
ATOM     21  C   UNL     1       5.391  -2.088   0.800  1.00  0.00     0.161 A 
ATOM     22  C   UNL     1       5.803  -0.843   1.359  1.00  0.00     0.161 A 
BRANCH  18  23
ATOM     23  C   UNL     1       2.891  -0.916  -1.884  1.00  0.00     0.043 C 
BRANCH  23  24
ATOM     24  C   UNL     1       1.569  -1.635  -1.484  1.00  0.00     0.081 C 
BRANCH  24  25
ATOM     25  C   UNL     1       0.798  -1.077  -0.287  1.00  0.00     0.143 CG0
ATOM     26  O   UNL     1       1.415  -0.809   0.733  1.00  0.00    -0.299 OA
ATOM     27  G   UNL     1      -0.739  -1.185  -0.206  1.00  0.00     0.000 G0
ENDBRANCH  24  25
ENDBRANCH  23  24
ENDBRANCH  18  23
BRANCH  21  28
ATOM     28  O   UNL     1       5.862  -3.301   1.214  1.00  0.00    -0.487 OA
BRANCH  28  29
ATOM     29  C   UNL     1       7.023  -3.570   1.922  1.00  0.00     0.173 C 
ATOM     30  C   UNL     1       7.258  -5.070   2.076  1.00  0.00     0.045 C 
ATOM     31  C   UNL     1       8.284  -3.176   1.149  1.00  0.00     0.045 C 
ATOM     32  C   UNL     1       8.686  -5.082   2.606  1.00  0.00     0.004 C 
ATOM     33  C   UNL     1       9.409  -3.990   1.802  1.00  0.00     0.004 C 
ENDBRANCH  28  29
ENDBRANCH  21  28
BRANCH  22  34
ATOM     34  O   UNL     1       6.659  -0.848   2.404  1.00  0.00    -0.504 OA
ATOM     35  H   UNL     1       7.041  -0.076   2.834  1.00  0.00     0.293 HD
ENDBRANCH  22  34
ENDBRANCH  16  17
ENDBRANCH  11  16
BRANCH  15  36
ATOM     36  C   UNL     1       1.477   5.832   0.913  1.00  0.00     0.068 C 
BRANCH  36  37
ATOM     37  C   UNL     1       0.589   6.351   2.065  1.00  0.00     0.130 C 
BRANCH  37  38
ATOM     38  O   UNL     1       1.373   6.875   3.107  1.00  0.00    -0.392 OA
ATOM     39  H   UNL     1       1.827   6.114   3.556  1.00  0.00     0.211 HD
ENDBRANCH  37  38
BRANCH  37  40
ATOM     40  C   UNL     1      -0.424   5.331   2.610  1.00  0.00     0.121 C 
ATOM     41  C   UNL     1      -1.264   4.740   1.556  1.00  0.00    -0.098 CG1
ATOM     42  G   UNL     1      -1.857   4.215   0.642  1.00  0.00     0.000 G1
ENDBRANCH  37  40
ENDBRANCH  36  37
ENDBRANCH  15  36
ENDBRANCH   9  10
ENDBRANCH   4   9
ENDBRANCH   1   3
BRANCH   1  43
ATOM     43  C   UNL     1      -2.491   3.453  -0.455  1.00  0.00     0.183 C 
ATOM     44  C   UNL     1      -1.857   4.215   0.642  1.00  0.00    -0.074 CG1
ATOM     45  G   UNL     1      -1.264   4.740   1.556  1.00  0.00     0.000 G1
BRANCH  43  46
ATOM     46  C   UNL     1      -3.028   2.112   0.037  1.00  0.00    -0.023 C 
ATOM     47  C   UNL     1      -3.908   2.169   1.071  1.00  0.00     0.029 C 
ATOM     48  C   UNL     1      -2.609   0.719  -0.556  1.00  0.00     0.093 C 
ATOM     49  C   UNL     1      -4.568   0.957   1.529  1.00  0.00     0.042 A 
ATOM     50  C   UNL     1      -3.808  -0.306  -0.510  1.00  0.00     0.037 C 
ATOM     51  C   UNL     1      -4.513  -0.199   0.818  1.00  0.00    -0.019 A 
ATOM     52  N   UNL     1      -5.363   0.823   2.604  1.00  0.00    -0.361 N 
ATOM     53  C   UNL     1      -5.321  -1.111   1.469  1.00  0.00     0.024 A 
ATOM     54  C   UNL     1      -5.821  -0.446   2.579  1.00  0.00     0.083 A 
ATOM     55  H   UNL     1      -5.598   1.560   3.305  1.00  0.00     0.166 HD
BRANCH  48  56
ATOM     56  C   UNL     1      -1.434   0.112   0.242  1.00  0.00     0.151 C 
ATOM     57  O   UNL     1      -1.094   0.624   1.299  1.00  0.00    -0.298 OA
BRANCH  56  58
ATOM     58  C   UNL     1      -0.739  -1.185  -0.206  1.00  0.00     0.126 CG0
ATOM     59  G   UNL     1       0.798  -1.077  -0.287  1.00  0.00     0.000 G0
BRANCH  58  60
ATOM     60  C   UNL     1      -1.120  -2.319   0.784  1.00  0.00     0.047 C 
BRANCH  60  61
ATOM     61  C   UNL     1      -0.638  -3.708   0.335  1.00  0.00     0.157 C 
BRANCH  61  62
ATOM     62  O   UNL     1      -1.138  -4.030  -0.936  1.00  0.00    -0.396 OA
ATOM     63  H   UNL     1      -2.099  -4.248  -0.819  1.00  0.00     0.210 HD
ENDBRANCH  61  62
ENDBRANCH  60  61
ENDBRANCH  58  60
ENDBRANCH  56  58
ENDBRANCH  48  56
BRANCH  50  64
ATOM     64  C   UNL     1      -4.866  -0.130  -1.629  1.00  0.00     0.017 C 
BRANCH  64  65
ATOM     65  C   UNL     1      -4.455  -0.772  -2.984  1.00  0.00     0.013 C 
BRANCH  65  66
ATOM     66  C   UNL     1      -4.096  -2.224  -2.833  1.00  0.00    -0.023 C 
ATOM     67  C   UNL     1      -4.920  -3.227  -2.497  1.00  0.00     0.008 C 
BRANCH  67  68
ATOM     68  C   UNL     1      -6.398  -3.190  -2.247  1.00  0.00     0.019 A 
ATOM     69  C   UNL     1      -6.963  -4.247  -1.457  1.00  0.00     0.123 A 
ATOM     70  C   UNL     1      -7.289  -2.180  -2.753  1.00  0.00    -0.037 A 
ATOM     71  C   UNL     1      -8.332  -4.281  -1.190  1.00  0.00     0.047 A 
ATOM     72  C   UNL     1      -8.662  -2.268  -2.447  1.00  0.00     0.004 A 
ATOM     73  C   UNL     1      -9.175  -3.302  -1.680  1.00  0.00     0.004 A 
BRANCH  69  74
ATOM     74  O   UNL     1      -6.230  -5.239  -0.897  1.00  0.00    -0.507 OA
ATOM     75  H   UNL     1      -5.271  -5.318  -0.904  1.00  0.00     0.293 HD
ENDBRANCH  69  74
BRANCH  70  76
ATOM     76  C   UNL     1      -6.955  -0.959  -3.604  1.00  0.00     0.037 CG2
ATOM     77  G   UNL     1      -5.525  -0.671  -4.075  1.00  0.00     0.000 G2
ENDBRANCH  70  76
ENDBRANCH  67  68
ENDBRANCH  65  66
BRANCH  65  78
ATOM     78  C   UNL     1      -5.525  -0.671  -4.075  1.00  0.00     0.012 CG2
ATOM     79  G   UNL     1      -6.955  -0.959  -3.604  1.00  0.00     0.000 G2
ENDBRANCH  65  78
ENDBRANCH  64  65
ENDBRANCH  50  64
ENDBRANCH  43  46
ENDBRANCH   1  43
TORSDOF 10
