REMARK SMILES CC[C@H](C)[C@@H]1NC(=O)[C@H](Cc2ccccc2)N(C)C(=O)[C@H]([C@@H](C)CC)N2C(=O)[C@H](CC[C@H]2O)NC(=O)[C@H](C[C@H]2C=C[C@H](O)CC2)NC(=O)[C@@H](NC(=O)[C@@H](CCc2ccc(O)cc2)NC(=O)[C@@H](COS(=O)(=O)O)OC)[C@@H](C)OC1=O
REMARK SMILES IDX 37 1 35 2 34 3 36 4 29 6 26 7 27 8 32 9 28 10 31 11 30 12
REMARK SMILES IDX 21 13 19 14 20 15 17 16 18 17 9 18 7 19 6 20 8 21 5 23 3 25
REMARK SMILES IDX 4 26 2 27 1 28 10 29 11 30 12 31 16 32 13 33 15 34 14 35
REMARK SMILES IDX 22 36 23 37 24 38 25 39 33 40 38 42 39 43 40 44 45 45 41 46
REMARK SMILES IDX 44 47 42 48 43 49 46 51 47 52 48 53 49 55 50 56 51 57 52 58
REMARK SMILES IDX 53 60 54 61 55 62 56 63 57 64 62 65 58 66 61 67 59 68 60 69
REMARK SMILES IDX 63 71 64 72 65 73 66 75 67 76 68 77 69 78 70 79 71 80 72 81
REMARK SMILES IDX 73 83 74 84 75 85 76 86 77 87 78 88 79 89
REMARK H PARENT 34 5 6 22 33 41 43 50 46 54 50 59 60 70 63 74 72 82
REMARK Flexibility Score:  361.900
ROOT
ATOM      1  C   UNL     1       0.023   2.487  -0.446  1.00  0.00     0.172 C 
ENDROOT
BRANCH   1   2
ATOM      2  C   UNL     1      -1.080   2.515   0.608  1.00  0.00     0.243 C 
ATOM      3  N   UNL     1      -1.907   3.584   0.752  1.00  0.00    -0.343 N 
ATOM      4  O   UNL     1      -1.180   1.568   1.378  1.00  0.00    -0.273 OA
ATOM      5  H   UNL     1      -1.799   4.392   0.131  1.00  0.00     0.164 HD
BRANCH   3   6
ATOM      6  C   UNL     1      -2.868   3.707   1.839  1.00  0.00     0.171 C 
ATOM      7  N   UNL     1      -4.836   2.229   1.268  1.00  0.00    -0.303 N 
ATOM      8  C   UNL     1      -3.746   2.491   2.069  1.00  0.00     0.247 C 
ATOM      9  C   UNL     1      -5.069   3.096   0.093  1.00  0.00     0.214 C 
ATOM     10  O   UNL     1      -3.565   1.854   3.099  1.00  0.00    -0.272 OA
ATOM     11  C   UNL     1      -4.666   4.591   0.308  1.00  0.00     0.057 C 
ATOM     12  C   UNL     1      -3.847   4.855   1.588  1.00  0.00     0.040 C 
BRANCH   7  13
ATOM     13  C   UNL     1      -5.832   1.251   1.769  1.00  0.00     0.180 C 
BRANCH  13  14
ATOM     14  C   UNL     1      -5.274  -0.164   2.082  1.00  0.00     0.246 C 
ATOM     15  O   UNL     1      -5.625  -0.623   3.162  1.00  0.00    -0.272 OA
BRANCH  14  16
ATOM     16  N   UNL     1      -4.463  -0.933   1.257  1.00  0.00    -0.332 N 
ATOM     17  C   UNL     1      -3.944  -0.393   0.010  1.00  0.00     0.147 C 
BRANCH  16  18
ATOM     18  C   UNL     1      -4.174  -2.342   1.625  1.00  0.00     0.178 C 
BRANCH  18  19
ATOM     19  C   UNL     1      -2.721  -2.699   1.989  1.00  0.00     0.243 C 
ATOM     20  N   UNL     1      -1.649  -2.599   1.135  1.00  0.00    -0.341 N 
ATOM     21  O   UNL     1      -2.561  -3.225   3.084  1.00  0.00    -0.273 OA
ATOM     22  H   UNL     1      -1.743  -2.105   0.245  1.00  0.00     0.164 HD
BRANCH  20  23
ATOM     23  C   UNL     1      -0.425  -3.386   1.361  1.00  0.00     0.195 CG0
ATOM     24  G   UNL     1       0.852  -2.613   1.645  1.00  0.00     0.000 G0
BRANCH  23  25
ATOM     25  C   UNL     1      -0.180  -4.364   0.163  1.00  0.00     0.019 C 
ATOM     26  C   UNL     1      -1.373  -5.321  -0.008  1.00  0.00     0.010 C 
BRANCH  25  27
ATOM     27  C   UNL     1       0.143  -3.598  -1.153  1.00  0.00     0.002 C 
ATOM     28  C   UNL     1       0.582  -4.508  -2.301  1.00  0.00     0.004 C 
ENDBRANCH  25  27
ENDBRANCH  23  25
ENDBRANCH  20  23
ENDBRANCH  18  19
BRANCH  18  29
ATOM     29  C   UNL     1      -4.712  -3.345   0.569  1.00  0.00     0.070 C 
BRANCH  29  30
ATOM     30  C   UNL     1      -6.215  -3.282   0.399  1.00  0.00    -0.045 A 
ATOM     31  C   UNL     1      -7.070  -3.535   1.489  1.00  0.00     0.004 A 
ATOM     32  C   UNL     1      -6.780  -2.998  -0.857  1.00  0.00     0.004 A 
ATOM     33  C   UNL     1      -8.457  -3.488   1.329  1.00  0.00     0.000 A 
ATOM     34  C   UNL     1      -8.171  -2.952  -1.012  1.00  0.00     0.000 A 
ATOM     35  C   UNL     1      -9.008  -3.195   0.080  1.00  0.00     0.000 A 
ENDBRANCH  29  30
ENDBRANCH  18  29
ENDBRANCH  16  18
ENDBRANCH  14  16
ENDBRANCH  13  14
BRANCH  13  36
ATOM     36  C   UNL     1      -7.261   1.222   1.095  1.00  0.00     0.018 C 
ATOM     37  C   UNL     1      -7.279   0.604  -0.312  1.00  0.00     0.010 C 
BRANCH  36  38
ATOM     38  C   UNL     1      -8.275   0.486   2.022  1.00  0.00     0.002 C 
ATOM     39  C   UNL     1      -9.735   0.615   1.580  1.00  0.00     0.004 C 
ENDBRANCH  36  38
ENDBRANCH  13  36
ENDBRANCH   7  13
BRANCH   9  40
ATOM     40  O   UNL     1      -4.416   2.564  -1.034  1.00  0.00    -0.373 OA
ATOM     41  H   UNL     1      -3.452   2.501  -0.834  1.00  0.00     0.213 HD
ENDBRANCH   9  40
ENDBRANCH   3   6
ENDBRANCH   1   2
BRANCH   1  42
ATOM     42  C   UNL     1      -0.393   2.622  -1.941  1.00  0.00     0.042 C 
BRANCH  42  43
ATOM     43  C   UNL     1      -1.023   3.975  -2.389  1.00  0.00     0.014 C 
ATOM     44  C   UNL     1      -0.168   5.189  -2.021  1.00  0.00    -0.025 C 
ATOM     45  C   UNL     1      -1.294   3.955  -3.913  1.00  0.00     0.011 C 
ATOM     46  C   UNL     1      -0.052   6.271  -2.809  1.00  0.00     0.000 C 
ATOM     47  C   UNL     1      -1.846   5.313  -4.339  1.00  0.00     0.037 C 
ATOM     48  C   UNL     1      -0.786   6.412  -4.123  1.00  0.00     0.137 C 
BRANCH  48  49
ATOM     49  O   UNL     1      -1.390   7.677  -4.220  1.00  0.00    -0.389 OA
ATOM     50  H   UNL     1      -1.974   7.793  -3.424  1.00  0.00     0.211 HD
ENDBRANCH  48  49
ENDBRANCH  42  43
ENDBRANCH   1  42
BRANCH   1  51
ATOM     51  N   UNL     1       0.773   1.247  -0.276  1.00  0.00    -0.342 N 
ATOM     52  C   UNL     1       2.091   1.243   0.062  1.00  0.00     0.247 C 
ATOM     53  O   UNL     1       2.702   2.304   0.111  1.00  0.00    -0.273 OA
ATOM     54  H   UNL     1       0.273   0.348  -0.366  1.00  0.00     0.164 HD
BRANCH  52  55
ATOM     55  C   UNL     1       2.799  -0.051   0.446  1.00  0.00     0.212 C 
BRANCH  55  56
ATOM     56  N   UNL     1       4.253   0.168   0.504  1.00  0.00    -0.339 N 
ATOM     57  C   UNL     1       5.181  -0.801   0.747  1.00  0.00     0.243 C 
ATOM     58  O   UNL     1       4.821  -1.940   1.010  1.00  0.00    -0.273 OA
ATOM     59  H   UNL     1       4.617   1.079   0.235  1.00  0.00     0.164 HD
BRANCH  57  60
ATOM     60  C   UNL     1       6.677  -0.521   0.587  1.00  0.00     0.171 C 
BRANCH  60  61
ATOM     61  C   UNL     1       7.279   0.585   1.504  1.00  0.00     0.040 C 
BRANCH  61  62
ATOM     62  C   UNL     1       6.939   2.054   1.160  1.00  0.00     0.038 C 
BRANCH  62  63
ATOM     63  C   UNL     1       7.320   2.402  -0.266  1.00  0.00    -0.048 A 
ATOM     64  C   UNL     1       8.662   2.317  -0.681  1.00  0.00     0.007 A 
ATOM     65  C   UNL     1       6.346   2.805  -1.197  1.00  0.00     0.007 A 
ATOM     66  C   UNL     1       9.017   2.612  -2.000  1.00  0.00     0.046 A 
ATOM     67  C   UNL     1       6.703   3.094  -2.518  1.00  0.00     0.046 A 
ATOM     68  C   UNL     1       8.037   2.997  -2.925  1.00  0.00     0.115 A 
BRANCH  68  69
ATOM     69  O   UNL     1       8.365   3.274  -4.203  1.00  0.00    -0.508 OA
ATOM     70  H   UNL     1       9.276   3.214  -4.525  1.00  0.00     0.293 HD
ENDBRANCH  68  69
ENDBRANCH  62  63
ENDBRANCH  61  62
ENDBRANCH  60  61
BRANCH  60  71
ATOM     71  N   UNL     1       7.415  -1.752   0.842  1.00  0.00    -0.342 N 
ATOM     72  C   UNL     1       8.028  -2.480  -0.139  1.00  0.00     0.252 C 
ATOM     73  O   UNL     1       7.958  -2.122  -1.307  1.00  0.00    -0.272 OA
ATOM     74  H   UNL     1       7.453  -2.089   1.816  1.00  0.00     0.164 HD
BRANCH  72  75
ATOM     75  C   UNL     1       8.794  -3.746   0.201  1.00  0.00     0.233 C 
BRANCH  75  76
ATOM     76  C   UNL     1       7.936  -4.753   0.977  1.00  0.00     0.227 C 
BRANCH  76  77
ATOM     77  O   UNL     1       6.819  -5.133   0.210  1.00  0.00    -0.245 OA
BRANCH  77  78
ATOM     78  S   UNL     1       5.705  -5.946   1.257  1.00  0.00     0.397 S 
ATOM     79  O   UNL     1       6.436  -6.908   2.209  1.00  0.00    -0.169 OA
ATOM     80  O   UNL     1       4.854  -6.890   0.395  1.00  0.00    -0.169 OA
BRANCH  78  81
ATOM     81  O   UNL     1       4.634  -4.938   2.143  1.00  0.00    -0.264 OA
ATOM     82  H   UNL     1       5.212  -4.455   2.786  1.00  0.00     0.236 HD
ENDBRANCH  78  81
ENDBRANCH  77  78
ENDBRANCH  76  77
ENDBRANCH  75  76
BRANCH  75  83
ATOM     83  O   UNL     1       9.240  -4.373  -0.994  1.00  0.00    -0.369 OA
ATOM     84  C   UNL     1      10.623  -4.179  -1.183  1.00  0.00     0.196 C 
ENDBRANCH  75  83
ENDBRANCH  72  75
ENDBRANCH  60  71
ENDBRANCH  57  60
ENDBRANCH  55  56
BRANCH  55  85
ATOM     85  C   UNL     1       2.207  -0.609   1.786  1.00  0.00     0.205 C 
ATOM     86  C   UNL     1       2.054   0.441   2.893  1.00  0.00     0.056 C 
BRANCH  85  87
ATOM     87  O   UNL     1       0.984  -1.254   1.551  1.00  0.00    -0.458 OA
BRANCH  87  88
ATOM     88  C   UNL     1       0.852  -2.613   1.645  1.00  0.00     0.329 CG0
ATOM     89  O   UNL     1       1.826  -3.295   1.943  1.00  0.00    -0.250 OA
ATOM     90  G   UNL     1      -0.425  -3.386   1.361  1.00  0.00     0.000 G0
ENDBRANCH  87  88
ENDBRANCH  85  87
ENDBRANCH  55  85
ENDBRANCH  52  55
ENDBRANCH   1  51
TORSDOF 23
