REMARK SMILES COC(=O)[C@@]1(C)C(=O)C=C[C@@]2(C)C1=C(OC(C)=O)C(=O)[C@@]1(C)C3=CC[C@@H](C4=C[C@@H](OC(C)=O)OC4=O)[C@]3(C)[C@@H](OC(=O)C(C)C)[C@H](OC(C)=O)[C@@H]12
REMARK SMILES IDX 5 1 6 2 7 3 8 4 9 5 10 6 11 7 12 8 13 9 14 10 19 11 20 12
REMARK SMILES IDX 21 13 22 14 23 15 24 16 25 17 26 18 37 19 38 20 39 21 46 22
REMARK SMILES IDX 51 23 3 24 4 25 2 26 1 27 15 28 16 29 18 30 17 31 47 32
REMARK SMILES IDX 48 33 50 34 49 35 40 36 41 37 42 38 43 39 44 40 45 41 27 42
REMARK SMILES IDX 28 43 35 44 29 45 34 46 36 47 30 48 31 49 33 50 32 51
REMARK H PARENT
ROOT
ATOM      1  C   UNL     1      -5.112   0.636   0.423  1.00  0.00     0.153 C 
ATOM      2  C   UNL     1      -5.915   1.927   0.735  1.00  0.00     0.038 C 
ATOM      3  C   UNL     1      -5.218  -0.255   1.669  1.00  0.00     0.176 C 
ATOM      4  O   UNL     1      -6.311  -0.468   2.175  1.00  0.00    -0.293 OA
ATOM      5  C   UNL     1      -4.027  -0.832   2.329  1.00  0.00     0.045 C 
ATOM      6  C   UNL     1      -2.836  -0.870   1.718  1.00  0.00    -0.012 C 
ATOM      7  C   UNL     1      -2.660  -0.425   0.274  1.00  0.00     0.020 C 
ATOM      8  C   UNL     1      -3.195  -1.597  -0.598  1.00  0.00     0.021 C 
ATOM      9  C   UNL     1      -3.577   0.844   0.088  1.00  0.00     0.011 C 
ATOM     10  C   UNL     1      -3.034   2.067  -0.242  1.00  0.00     0.176 C 
ATOM     11  C   UNL     1      -1.593   2.194  -0.600  1.00  0.00     0.208 C 
ATOM     12  O   UNL     1      -1.067   3.296  -0.637  1.00  0.00    -0.290 OA
ATOM     13  C   UNL     1      -0.812   0.963  -1.021  1.00  0.00     0.063 C 
ATOM     14  C   UNL     1      -1.296   0.544  -2.429  1.00  0.00     0.025 C 
ATOM     15  C   UNL     1       0.705   1.270  -1.088  1.00  0.00    -0.050 C 
ATOM     16  C   UNL     1       1.243   2.202  -1.876  1.00  0.00    -0.025 C 
ATOM     17  C   UNL     1       2.711   2.257  -1.740  1.00  0.00     0.037 C 
ATOM     18  C   UNL     1       3.061   0.881  -1.152  1.00  0.00     0.044 C 
ATOM     19  C   UNL     1       1.774   0.463  -0.361  1.00  0.00     0.038 C 
ATOM     20  C   UNL     1       1.912   0.846   1.139  1.00  0.00     0.021 C 
ATOM     21  C   UNL     1       1.308  -1.003  -0.644  1.00  0.00     0.228 C 
ATOM     22  C   UNL     1      -0.041  -1.346   0.060  1.00  0.00     0.223 C 
ATOM     23  C   UNL     1      -1.097  -0.134   0.045  1.00  0.00     0.066 C 
ENDROOT
BRANCH   1  24
ATOM     24  C   UNL     1      -5.844  -0.017  -0.748  1.00  0.00     0.323 C 
ATOM     25  O   UNL     1      -5.303  -0.111  -1.843  1.00  0.00    -0.251 OA
BRANCH  24  26
ATOM     26  O   UNL     1      -7.101  -0.502  -0.570  1.00  0.00    -0.468 OA
ATOM     27  C   UNL     1      -7.760  -1.268  -1.508  1.00  0.00     0.282 C 
ENDBRANCH  24  26
ENDBRANCH   1  24
BRANCH  10  28
ATOM     28  O   UNL     1      -3.815   3.179  -0.279  1.00  0.00    -0.423 OA
BRANCH  28  29
ATOM     29  C   UNL     1      -3.533   4.413   0.222  1.00  0.00     0.308 C 
ATOM     30  O   UNL     1      -2.609   4.582   1.005  1.00  0.00    -0.252 OA
ATOM     31  C   UNL     1      -4.420   5.565  -0.119  1.00  0.00     0.139 C 
ENDBRANCH  28  29
ENDBRANCH  10  28
BRANCH  22  32
ATOM     32  O   UNL     1      -0.508  -2.488  -0.567  1.00  0.00    -0.458 OA
BRANCH  32  33
ATOM     33  C   UNL     1      -0.582  -3.727  -0.002  1.00  0.00     0.303 C 
ATOM     34  O   UNL     1      -0.148  -3.940   1.121  1.00  0.00    -0.253 OA
ATOM     35  C   UNL     1      -1.237  -4.840  -0.758  1.00  0.00     0.139 C 
ENDBRANCH  32  33
ENDBRANCH  22  32
BRANCH  21  36
ATOM     36  O   UNL     1       2.258  -2.014  -0.442  1.00  0.00    -0.457 OA
BRANCH  36  37
ATOM     37  C   UNL     1       2.732  -2.811  -1.467  1.00  0.00     0.308 C 
ATOM     38  O   UNL     1       2.482  -2.525  -2.631  1.00  0.00    -0.252 OA
BRANCH  37  39
ATOM     39  C   UNL     1       3.510  -4.095  -1.233  1.00  0.00     0.093 C 
ATOM     40  C   UNL     1       2.701  -5.082  -0.395  1.00  0.00     0.019 C 
ATOM     41  C   UNL     1       4.886  -3.868  -0.612  1.00  0.00     0.019 C 
ENDBRANCH  37  39
ENDBRANCH  36  37
ENDBRANCH  21  36
BRANCH  18  42
ATOM     42  C   UNL     1       4.412   0.883  -0.425  1.00  0.00     0.045 C 
ATOM     43  C   UNL     1       5.288   1.889  -0.363  1.00  0.00     0.073 C 
ATOM     44  C   UNL     1       5.027  -0.179   0.349  1.00  0.00     0.337 C 
ATOM     45  C   UNL     1       6.488   1.488   0.449  1.00  0.00     0.395 C 
ATOM     46  O   UNL     1       6.218   0.194   0.835  1.00  0.00    -0.418 OA
ATOM     47  O   UNL     1       4.504  -1.235   0.628  1.00  0.00    -0.246 OA
BRANCH  45  48
ATOM     48  O   UNL     1       6.588   2.294   1.569  1.00  0.00    -0.421 OA
BRANCH  48  49
ATOM     49  C   UNL     1       7.677   3.025   1.922  1.00  0.00     0.305 C 
ATOM     50  O   UNL     1       8.691   3.021   1.239  1.00  0.00    -0.252 OA
ATOM     51  C   UNL     1       7.637   3.845   3.171  1.00  0.00     0.139 C 
ENDBRANCH  48  49
ENDBRANCH  45  48
ENDBRANCH  18  42
TORSDOF 12
