REMARK SMILES C=C(C)[C@@H]1CC[C@](C)(O)[C@H](Br)CC[C@@]2(C)C(=C(C)CC[C@@H]2Br)Cc2cc(ccc2O)C(=O)O1
REMARK SMILES IDX 14 1 15 2 16 3 17 4 18 5 19 6 20 7 21 8 22 9 23 10 24 11
REMARK SMILES IDX 26 12 25 13 27 14 28 15 29 16 31 17 32 18 33 19 4 20 2 21
REMARK SMILES IDX 1 22 3 23 5 24 30 26 13 28 12 29 10 30 11 31 7 32 8 33 6 34
REMARK SMILES IDX 9 36
REMARK H PARENT 30 27 9 37
REMARK Flexibility Score:   64.900
ROOT
ATOM      1  C   UNL     1      -2.601   0.816  -0.185  1.00  0.00     0.002 C 
ATOM      2  C   UNL     1      -3.703   1.335  -1.152  1.00  0.00     0.017 C 
ATOM      3  C   UNL     1      -2.804  -0.745  -0.216  1.00  0.00    -0.060 C 
ATOM      4  C   UNL     1      -3.723  -1.287   0.661  1.00  0.00    -0.073 C 
ATOM      5  C   UNL     1      -4.135  -2.739   0.706  1.00  0.00     0.039 C 
ATOM      6  C   UNL     1      -4.427  -0.407   1.673  1.00  0.00     0.032 C 
ATOM      7  C   UNL     1      -3.361   0.416   2.338  1.00  0.00     0.020 C 
ATOM      8  C   UNL     1      -2.758   1.388   1.307  1.00  0.00     0.067 C 
ATOM      9  Br  UNL     1      -3.695   3.108   1.412  1.00  0.00    -0.088 Br
ENDROOT
BRANCH   3  10
ATOM     10  C   UNL     1      -2.234  -1.617  -1.359  1.00  0.00     0.071 C 
BRANCH  10  11
ATOM     11  C   UNL     1      -1.111  -2.591  -0.996  1.00  0.00    -0.001 A 
ATOM     12  C   UNL     1       1.228  -2.912  -0.317  1.00  0.00     0.060 A 
ATOM     13  C   UNL     1       0.127  -2.078  -0.578  1.00  0.00     0.023 A 
ATOM     14  C   UNL     1       1.077  -4.296  -0.453  1.00  0.00     0.019 A 
ATOM     15  C   UNL     1      -0.145  -4.832  -0.863  1.00  0.00     0.047 A 
ATOM     16  C   UNL     1      -1.234  -3.992  -1.156  1.00  0.00     0.119 A 
BRANCH  12  17
ATOM     17  C   UNL     1       2.542  -2.311   0.034  1.00  0.00     0.338 C 
ATOM     18  O   UNL     1       3.540  -3.011   0.129  1.00  0.00    -0.246 OA
BRANCH  17  19
ATOM     19  O   UNL     1       2.624  -0.964   0.177  1.00  0.00    -0.454 OA
BRANCH  19  20
ATOM     20  C   UNL     1       3.759  -0.177   0.114  1.00  0.00     0.202 C 
BRANCH  20  21
ATOM     21  C   UNL     1       4.764  -0.575   1.189  1.00  0.00    -0.040 C 
ATOM     22  C   UNL     1       6.006  -0.952   0.845  1.00  0.00     0.011 C 
ATOM     23  C   UNL     1       4.358  -0.566   2.644  1.00  0.00     0.043 C 
ENDBRANCH  20  21
BRANCH  20  24
ATOM     24  C   UNL     1       3.347   1.302   0.261  1.00  0.00     0.053 CG0
ATOM     25  G   UNL     1       2.233   1.690  -0.742  1.00  0.00     0.000 G0
ENDBRANCH  20  24
ENDBRANCH  19  20
ENDBRANCH  17  19
ENDBRANCH  12  17
BRANCH  16  26
ATOM     26  O   UNL     1      -2.382  -4.538  -1.609  1.00  0.00    -0.508 OA
ATOM     27  H   UNL     1      -2.494  -5.494  -1.717  1.00  0.00     0.293 HD
ENDBRANCH  16  26
ENDBRANCH  10  11
ENDBRANCH   3  10
BRANCH   1  28
ATOM     28  C   UNL     1      -1.182   1.278  -0.702  1.00  0.00     0.013 C 
BRANCH  28  29
ATOM     29  C   UNL     1      -0.959   2.811  -0.807  1.00  0.00     0.019 C 
BRANCH  29  30
ATOM     30  C   UNL     1       0.371   3.368  -1.425  1.00  0.00     0.088 C 
ATOM     31  Br  UNL     1      -0.018   5.283  -1.634  1.00  0.00    -0.086 Br
BRANCH  30  32
ATOM     32  C   UNL     1       1.712   3.157  -0.616  1.00  0.00     0.075 C 
ATOM     33  C   UNL     1       2.830   4.082  -1.189  1.00  0.00     0.043 C 
BRANCH  32  34
ATOM     34  C   UNL     1       2.233   1.690  -0.742  1.00  0.00     0.040 CG0
ATOM     35  G   UNL     1       3.347   1.302   0.261  1.00  0.00     0.000 G0
ENDBRANCH  32  34
BRANCH  32  36
ATOM     36  O   UNL     1       1.446   3.479   0.732  1.00  0.00    -0.389 OA
ATOM     37  H   UNL     1       2.299   3.708   1.185  1.00  0.00     0.211 HD
ENDBRANCH  32  36
ENDBRANCH  30  32
ENDBRANCH  29  30
ENDBRANCH  28  29
ENDBRANCH   1  28
TORSDOF 3
