REMARK SMILES CC1=C[C@]2(O)[C@@](O)(C(=O)[C@@H](C)CC[C@@]3(O)OC(=O)C=C3C)[C@H]3[C@H](CC[C@@H]3C)[C@@H](C)[C@@]2(O)OC1
REMARK SMILES IDX 10 1 11 2 8 3 9 4 6 5 2 6 3 7 33 8 4 9 32 10 30 11 28 12
REMARK SMILES IDX 22 13 23 14 26 15 24 16 25 17 1 18 29 19 27 20 5 21 31 23
REMARK SMILES IDX 7 25 12 27 13 28 14 29 16 30 20 31 17 32 19 33 18 34 21 35
REMARK SMILES IDX 15 36
REMARK H PARENT 5 22 31 24 7 26 15 37
ROOT
ATOM      1  C   UNL     1       1.558   0.376  -0.819  1.00  0.00     0.056 C 
ATOM      2  C   UNL     1       1.334   1.350  -1.992  1.00  0.00     0.016 C 
ENDROOT
BRANCH   1   3
ATOM      3  C   UNL     1       0.347   0.340   0.133  1.00  0.00     0.170 C 
ATOM      4  O   UNL     1       0.506   0.701   1.292  1.00  0.00    -0.296 OA
BRANCH   3   5
ATOM      5  C   UNL     1      -1.046  -0.198  -0.267  1.00  0.00     0.164 C 
ATOM      6  C   UNL     1      -2.965   2.854  -1.360  1.00  0.00    -0.049 C 
ATOM      7  C   UNL     1      -1.928   2.149  -0.868  1.00  0.00     0.018 C 
ATOM      8  C   UNL     1      -4.405   2.420  -1.112  1.00  0.00     0.194 C 
ATOM      9  C   UNL     1      -2.159   0.902  -0.044  1.00  0.00     0.173 C 
ATOM     10  O   UNL     1      -4.569   1.315  -0.227  1.00  0.00    -0.342 OA
ATOM     11  C   UNL     1      -3.584   0.311  -0.414  1.00  0.00     0.205 C 
ATOM     12  C   UNL     1      -3.936  -0.921   0.489  1.00  0.00     0.053 C 
ATOM     13  C   UNL     1      -1.399  -1.435   0.672  1.00  0.00     0.038 C 
ATOM     14  C   UNL     1      -2.820  -2.004   0.467  1.00  0.00     0.004 C 
ATOM     15  C   UNL     1      -0.518  -2.685   0.432  1.00  0.00    -0.007 C 
ATOM     16  C   UNL     1      -2.664  -2.858  -0.791  1.00  0.00     0.005 C 
ATOM     17  C   UNL     1      -1.318  -3.566  -0.573  1.00  0.00     0.004 C 
ATOM     18  C   UNL     1      -2.724   4.102  -2.164  1.00  0.00     0.042 C 
ATOM     19  C   UNL     1      -4.265  -0.547   1.953  1.00  0.00     0.014 C 
ATOM     20  C   UNL     1      -0.306  -3.455   1.754  1.00  0.00     0.008 C 
BRANCH   9  21
ATOM     21  O   UNL     1      -2.111   1.308   1.306  1.00  0.00    -0.377 OA
ATOM     22  H   UNL     1      -2.816   1.991   1.461  1.00  0.00     0.212 HD
ENDBRANCH   9  21
BRANCH  11  23
ATOM     23  O   UNL     1      -3.659  -0.159  -1.749  1.00  0.00    -0.363 OA
ATOM     24  H   UNL     1      -3.210   0.470  -2.368  1.00  0.00     0.214 HD
ENDBRANCH  11  23
BRANCH   5  25
ATOM     25  O   UNL     1      -1.039  -0.546  -1.633  1.00  0.00    -0.378 OA
ATOM     26  H   UNL     1      -0.377  -1.266  -1.784  1.00  0.00     0.212 HD
ENDBRANCH   5  25
ENDBRANCH   3   5
ENDBRANCH   1   3
BRANCH   1  27
ATOM     27  C   UNL     1       2.849   0.733  -0.036  1.00  0.00     0.018 C 
BRANCH  27  28
ATOM     28  C   UNL     1       4.139   0.708  -0.883  1.00  0.00     0.086 C 
BRANCH  28  29
ATOM     29  C   UNL     1       5.410   0.947  -0.034  1.00  0.00     0.234 C 
ATOM     30  O   UNL     1       5.311   2.127   0.691  1.00  0.00    -0.426 OA
ATOM     31  C   UNL     1       5.597  -0.115   1.033  1.00  0.00     0.005 C 
ATOM     32  C   UNL     1       5.396   1.855   2.005  1.00  0.00     0.333 C 
ATOM     33  C   UNL     1       5.580   0.444   2.234  1.00  0.00     0.099 C 
ATOM     34  O   UNL     1       5.324   2.705   2.877  1.00  0.00    -0.247 OA
ATOM     35  C   UNL     1       5.775  -1.582   0.775  1.00  0.00     0.047 C 
BRANCH  29  36
ATOM     36  O   UNL     1       6.548   0.975  -0.857  1.00  0.00    -0.353 OA
ATOM     37  H   UNL     1       6.527   1.833  -1.357  1.00  0.00     0.215 HD
ENDBRANCH  29  36
ENDBRANCH  28  29
ENDBRANCH  27  28
ENDBRANCH   1  27
TORSDOF 9
