REMARK SMILES COc1c2c(cc3c1[C@H](CC(=O)C[C@H](O)c1ccccn1)N(C)CC3)OCO2
REMARK SMILES IDX 11 1 12 2 10 3 9 4 3 5 4 6 8 7 28 8 5 9 7 10 27 11 26 12
REMARK SMILES IDX 6 13 25 14 22 15 24 16 23 17 2 18 1 19 13 20 14 21 15 22
REMARK SMILES IDX 16 24 17 25 21 26 18 27 20 28 19 29
REMARK H PARENT 15 23
ROOT
ATOM      1  C   UNL     1       1.050  -0.966  -0.189  1.00  0.00     0.137 C 
ATOM      2  O   UNL     1       1.013  -0.323  -1.225  1.00  0.00    -0.300 OA
ENDROOT
BRANCH   1   3
ATOM      3  C   UNL     1      -0.141  -1.768   0.300  1.00  0.00     0.099 C 
BRANCH   3   4
ATOM      4  C   UNL     1      -1.426  -1.782  -0.580  1.00  0.00     0.098 C 
ATOM      5  C   UNL     1      -2.204   0.592  -0.081  1.00  0.00     0.169 A 
ATOM      6  C   UNL     1      -2.583   1.857  -0.536  1.00  0.00     0.207 A 
ATOM      7  C   UNL     1      -1.842  -0.387  -1.041  1.00  0.00     0.019 A 
ATOM      8  O   UNL     1      -2.933   2.932   0.173  1.00  0.00    -0.450 OA
ATOM      9  C   UNL     1      -2.632   2.158  -1.849  1.00  0.00     0.169 A 
ATOM     10  C   UNL     1      -1.899  -0.056  -2.429  1.00  0.00    -0.034 A 
ATOM     11  C   UNL     1      -3.200   3.963  -0.727  1.00  0.00     0.468 C 
ATOM     12  O   UNL     1      -3.011   3.429  -1.999  1.00  0.00    -0.453 OA
ATOM     13  C   UNL     1      -2.315   1.230  -2.836  1.00  0.00     0.055 A 
ATOM     14  C   UNL     1      -1.546  -1.061  -3.490  1.00  0.00     0.051 C 
ATOM     15  N   UNL     1      -1.327  -2.777  -1.686  1.00  0.00    -0.298 NA
ATOM     16  C   UNL     1      -0.746  -2.242  -2.926  1.00  0.00     0.089 C 
ATOM     17  C   UNL     1      -2.618  -3.447  -1.942  1.00  0.00     0.106 C 
BRANCH   5  18
ATOM     18  O   UNL     1      -2.189   0.297   1.240  1.00  0.00    -0.492 OA
ATOM     19  C   UNL     1      -3.328   0.283   2.011  1.00  0.00     0.278 C 
ENDBRANCH   5  18
ENDBRANCH   3   4
ENDBRANCH   1   3
BRANCH   1  20
ATOM     20  C   UNL     1       2.295  -0.898   0.662  1.00  0.00     0.114 C 
BRANCH  20  21
ATOM     21  C   UNL     1       2.568   0.547   1.141  1.00  0.00     0.170 C 
BRANCH  21  22
ATOM     22  O   UNL     1       2.741   1.412   0.044  1.00  0.00    -0.386 OA
ATOM     23  H   UNL     1       3.545   1.104  -0.453  1.00  0.00     0.211 HD
ENDBRANCH  21  22
BRANCH  21  24
ATOM     24  C   UNL     1       3.755   0.656   2.071  1.00  0.00     0.069 A 
ATOM     25  C   UNL     1       4.088   1.898   2.632  1.00  0.00     0.026 A 
ATOM     26  N   UNL     1       4.511  -0.438   2.376  1.00  0.00    -0.259 NA
ATOM     27  C   UNL     1       5.184   1.994   3.491  1.00  0.00     0.004 A 
ATOM     28  C   UNL     1       5.583  -0.364   3.209  1.00  0.00     0.111 A 
ATOM     29  C   UNL     1       5.939   0.858   3.783  1.00  0.00     0.020 A 
ENDBRANCH  21  24
ENDBRANCH  20  21
ENDBRANCH   1  20
TORSDOF 7
