REMARK SMILES COc1ccc(C=C(NC(=O)c2ccccc2)C(=O)Nc2ccc(C(=O)O)cc2)cc1
REMARK SMILES IDX 18 1 19 2 20 3 8 5 7 6 6 7 3 8 4 9 31 10 5 11 30 12 2 13
REMARK SMILES IDX 1 14 9 15 10 16 11 17 12 19 13 20 17 21 14 22 16 23 15 24
REMARK SMILES IDX 21 25 22 26 29 27 23 28 28 29 24 30 25 31 26 32 27 33
REMARK H PARENT 20 4 9 18 27 34
ROOT
ATOM      1  C   UNL     1      -0.230  -0.288  -0.257  1.00  0.00     0.272 C 
ATOM      2  O   UNL     1       0.240  -1.288  -0.774  1.00  0.00    -0.267 OA
ATOM      3  N   UNL     1      -1.542  -0.262   0.136  1.00  0.00    -0.321 N 
ATOM      4  H   UNL     1      -1.866   0.577   0.641  1.00  0.00     0.170 HD
ENDROOT
BRANCH   1   5
ATOM      5  C   UNL     1       0.662   0.907  -0.070  1.00  0.00     0.108 C 
ATOM      6  C   UNL     1       2.016   0.753   0.106  1.00  0.00     0.040 C 
BRANCH   6   7
ATOM      7  C   UNL     1       2.774  -0.513   0.374  1.00  0.00    -0.023 A 
ATOM      8  C   UNL     1       4.301  -2.844   0.881  1.00  0.00     0.118 A 
ATOM      9  C   UNL     1       2.969  -2.766   1.294  1.00  0.00     0.047 A 
ATOM     10  C   UNL     1       4.879  -1.737   0.230  1.00  0.00     0.047 A 
ATOM     11  C   UNL     1       2.215  -1.617   1.052  1.00  0.00     0.012 A 
ATOM     12  C   UNL     1       4.125  -0.583  -0.009  1.00  0.00     0.012 A 
BRANCH   8  13
ATOM     13  O   UNL     1       4.983  -3.990   1.134  1.00  0.00    -0.497 OA
ATOM     14  C   UNL     1       6.290  -4.246   0.776  1.00  0.00     0.278 C 
ENDBRANCH   8  13
ENDBRANCH   6   7
BRANCH   5  15
ATOM     15  N   UNL     1       0.035   2.206  -0.213  1.00  0.00    -0.317 N 
ATOM     16  C   UNL     1       0.568   3.441   0.072  1.00  0.00     0.255 C 
ATOM     17  O   UNL     1       1.686   3.536   0.554  1.00  0.00    -0.269 OA
ATOM     18  H   UNL     1      -0.923   2.178  -0.572  1.00  0.00     0.170 HD
BRANCH  16  19
ATOM     19  C   UNL     1      -0.192   4.720  -0.166  1.00  0.00     0.040 A 
ATOM     20  C   UNL     1      -1.516   4.757  -0.667  1.00  0.00     0.014 A 
ATOM     21  C   UNL     1       0.440   5.953   0.115  1.00  0.00     0.014 A 
ATOM     22  C   UNL     1      -2.169   5.977  -0.872  1.00  0.00     0.001 A 
ATOM     23  C   UNL     1      -0.220   7.167  -0.095  1.00  0.00     0.001 A 
ATOM     24  C   UNL     1      -1.523   7.179  -0.588  1.00  0.00     0.000 A 
ENDBRANCH  16  19
ENDBRANCH   5  15
ENDBRANCH   1   5
BRANCH   3  25
ATOM     25  C   UNL     1      -2.491  -1.336   0.004  1.00  0.00     0.041 A 
ATOM     26  C   UNL     1      -3.668  -1.280   0.769  1.00  0.00     0.027 A 
ATOM     27  C   UNL     1      -2.313  -2.449  -0.851  1.00  0.00     0.027 A 
ATOM     28  C   UNL     1      -4.623  -2.300   0.711  1.00  0.00     0.018 A 
ATOM     29  C   UNL     1      -3.271  -3.462  -0.915  1.00  0.00     0.018 A 
ATOM     30  C   UNL     1      -4.436  -3.412  -0.132  1.00  0.00     0.060 A 
BRANCH  30  31
ATOM     31  C   UNL     1      -5.430  -4.527  -0.218  1.00  0.00     0.335 C 
ATOM     32  O   UNL     1      -5.229  -5.452  -0.989  1.00  0.00    -0.246 OA
BRANCH  31  33
ATOM     33  O   UNL     1      -6.552  -4.564   0.537  1.00  0.00    -0.478 OA
ATOM     34  H   UNL     1      -6.793  -3.896   1.188  1.00  0.00     0.297 HD
ENDBRANCH  31  33
ENDBRANCH  30  31
ENDBRANCH   3  25
TORSDOF 8
