REMARK SMILES CCOc1ccc2c(C)c(CC(=O)O)c(=O)oc2c1C
REMARK SMILES IDX 4 1 5 2 6 3 7 4 8 5 9 6 10 7 15 8 16 9 17 10 18 11 19 12
REMARK SMILES IDX 20 13 3 14 2 15 1 16 11 17 12 18 13 19 14 20
REMARK H PARENT 14 21
ROOT
ATOM      1  C   UNL     1      -2.151   0.289   0.233  1.00  0.00     0.125 A 
ATOM      2  C   UNL     1      -1.393   0.998   1.178  1.00  0.00     0.047 A 
ATOM      3  C   UNL     1      -0.011   0.845   1.248  1.00  0.00     0.016 A 
ATOM      4  C   UNL     1       0.671  -0.024   0.369  1.00  0.00     0.021 A 
ATOM      5  C   UNL     1       2.085  -0.212   0.384  1.00  0.00    -0.029 A 
ATOM      6  C   UNL     1       2.998   0.484   1.385  1.00  0.00     0.046 C 
ATOM      7  C   UNL     1       2.663  -1.102  -0.565  1.00  0.00     0.052 A 
ATOM      8  C   UNL     1       1.809  -1.779  -1.456  1.00  0.00     0.340 A 
ATOM      9  O   UNL     1       2.257  -2.557  -2.280  1.00  0.00    -0.246 OA
ATOM     10  O   UNL     1       0.503  -1.575  -1.427  1.00  0.00    -0.422 OA
ATOM     11  C   UNL     1      -0.095  -0.745  -0.583  1.00  0.00     0.145 A 
ATOM     12  C   UNL     1      -1.499  -0.591  -0.649  1.00  0.00     0.034 A 
ATOM     13  C   UNL     1      -2.319  -1.355  -1.661  1.00  0.00     0.052 C 
ENDROOT
BRANCH   1  14
ATOM     14  O   UNL     1      -3.502   0.435   0.144  1.00  0.00    -0.493 OA
BRANCH  14  15
ATOM     15  C   UNL     1      -4.274   1.277   0.921  1.00  0.00     0.226 C 
ATOM     16  C   UNL     1      -5.731   1.175   0.499  1.00  0.00     0.049 C 
ENDBRANCH  14  15
ENDBRANCH   1  14
BRANCH   7  17
ATOM     17  C   UNL     1       4.168  -1.342  -0.632  1.00  0.00     0.166 C 
BRANCH  17  18
ATOM     18  C   UNL     1       4.962  -0.159  -1.149  1.00  0.00     0.308 C 
ATOM     19  O   UNL     1       6.179  -0.245  -1.184  1.00  0.00    -0.252 OA
BRANCH  18  20
ATOM     20  O   UNL     1       4.380   0.974  -1.608  1.00  0.00    -0.481 OA
ATOM     21  H   UNL     1       3.423   1.103  -1.655  1.00  0.00     0.296 HD
ENDBRANCH  18  20
ENDBRANCH  17  18
ENDBRANCH   7  17
TORSDOF 5
