REMARK SMILES CC1=CC(=O)[C@H]2CC(=O)[C@H]3[C@@](C)(C[C@@]45OC(=O)C[C@]3(C)[C@]4(C)CC[C@]34C[C@@H](C)C[C@H](CN35)O4)[C@@H]2C1
REMARK SMILES IDX 1 1 2 2 3 3 4 4 5 5 6 6 7 7 8 8 9 9 10 10 19 11 20 12 18 13
REMARK SMILES IDX 16 14 17 15 15 16 14 17 13 18 11 19 12 20 34 21 35 22 32 23
REMARK SMILES IDX 31 24 30 25 29 26 27 27 28 28 26 29 25 30 24 31 23 32 21 33
REMARK SMILES IDX 22 34 33 35
REMARK H PARENT
ROOT
ATOM      1  C   UNL     1      -4.603   4.133   0.451  1.00  0.00     0.039 C 
ATOM      2  C   UNL     1      -4.504   2.643   0.260  1.00  0.00    -0.069 C 
ATOM      3  C   UNL     1      -5.537   1.955  -0.266  1.00  0.00     0.046 C 
ATOM      4  C   UNL     1      -5.488   0.486  -0.397  1.00  0.00     0.159 C 
ATOM      5  O   UNL     1      -6.346  -0.085  -1.052  1.00  0.00    -0.295 OA
ATOM      6  C   UNL     1      -4.360  -0.281   0.268  1.00  0.00     0.072 C 
ATOM      7  C   UNL     1      -4.259  -1.722  -0.290  1.00  0.00     0.088 C 
ATOM      8  C   UNL     1      -2.980  -2.376   0.155  1.00  0.00     0.137 C 
ATOM      9  O   UNL     1      -2.987  -3.450   0.737  1.00  0.00    -0.299 OA
ATOM     10  C   UNL     1      -1.710  -1.620  -0.178  1.00  0.00     0.070 C 
ATOM     11  C   UNL     1      -0.323  -2.415  -0.235  1.00  0.00    -0.001 C 
ATOM     12  C   UNL     1      -0.527  -3.644  -1.173  1.00  0.00     0.013 C 
ATOM     13  C   UNL     1       0.157  -2.970   1.143  1.00  0.00     0.131 C 
ATOM     14  C   UNL     1       0.907  -1.955   1.966  1.00  0.00     0.308 C 
ATOM     15  O   UNL     1       1.321  -2.266   3.070  1.00  0.00    -0.252 OA
ATOM     16  O   UNL     1       1.115  -0.690   1.510  1.00  0.00    -0.443 OA
ATOM     17  C   UNL     1       0.885  -0.229   0.217  1.00  0.00     0.175 C 
ATOM     18  C   UNL     1      -0.465   0.576   0.236  1.00  0.00     0.074 C 
ATOM     19  C   UNL     1      -1.751  -0.250   0.595  1.00  0.00    -0.013 C 
ATOM     20  C   UNL     1      -1.886  -0.441   2.145  1.00  0.00     0.012 C 
ATOM     21  C   UNL     1      -3.043   0.528   0.074  1.00  0.00     0.011 C 
ATOM     22  C   UNL     1      -3.220   1.953   0.687  1.00  0.00     0.035 C 
ATOM     23  N   UNL     1       2.034   0.655  -0.140  1.00  0.00    -0.234 NA
ATOM     24  C   UNL     1       1.931   2.005  -0.639  1.00  0.00     0.123 C 
ATOM     25  C   UNL     1       3.395   2.354  -0.816  1.00  0.00     0.135 C 
ATOM     26  C   UNL     1       4.116   2.607   0.558  1.00  0.00     0.037 C 
ATOM     27  C   UNL     1       5.013   1.400   0.954  1.00  0.00    -0.007 C 
ATOM     28  C   UNL     1       6.331   1.429   0.134  1.00  0.00     0.008 C 
ATOM     29  C   UNL     1       4.260   0.055   0.723  1.00  0.00     0.055 C 
ATOM     30  C   UNL     1       3.367   0.161  -0.553  1.00  0.00     0.125 C 
ATOM     31  C   UNL     1       3.298  -1.149  -1.365  1.00  0.00     0.053 C 
ATOM     32  C   UNL     1       2.228  -2.113  -0.852  1.00  0.00     0.017 C 
ATOM     33  C   UNL     1       0.804  -1.432  -0.800  1.00  0.00     0.028 C 
ATOM     34  C   UNL     1       0.471  -0.930  -2.259  1.00  0.00     0.018 C 
ATOM     35  O   UNL     1       3.915   1.174  -1.394  1.00  0.00    -0.356 OA
ENDROOT
TORSDOF 0
