REMARK SMILES CC1(C)[C@@H](C=C(Cl)Cl)[C@@H]1C(=O)N[C@@H](N=C(S)N1C[C@H]2C[C@@H](C1)c1cccc(=O)n1C2)C(Cl)(Cl)Cl
REMARK SMILES IDX 10 1 11 2 12 3 9 5 2 6 4 7 1 8 3 9 5 10 6 11 7 12 8 13 13 14
REMARK SMILES IDX 14 15 15 16 16 17 17 19 18 20 22 21 19 22 21 23 20 24 30 25
REMARK SMILES IDX 23 26 29 27 24 28 27 29 25 30 26 31 28 32 31 33 32 34 33 35
REMARK SMILES IDX 34 36
REMARK H PARENT 12 4 16 18
ROOT
ATOM      1  C   UNL     1       2.765  -0.803  -1.259  1.00  0.00     0.226 C 
ATOM      2  O   UNL     1       2.417  -1.927  -1.590  1.00  0.00    -0.275 OA
ATOM      3  N   UNL     1       1.929   0.259  -1.439  1.00  0.00    -0.330 N 
ATOM      4  H   UNL     1       2.240   1.186  -1.111  1.00  0.00     0.165 HD
ENDROOT
BRANCH   1   5
ATOM      5  C   UNL     1       4.116  -0.573  -0.610  1.00  0.00     0.092 C 
ATOM      6  C   UNL     1       5.321  -1.026  -1.443  1.00  0.00    -0.016 C 
ATOM      7  C   UNL     1       4.958  -1.798  -0.160  1.00  0.00     0.034 C 
ATOM      8  C   UNL     1       5.156  -1.835  -2.746  1.00  0.00     0.012 C 
ATOM      9  C   UNL     1       6.484  -0.013  -1.454  1.00  0.00     0.012 C 
BRANCH   7  10
ATOM     10  C   UNL     1       6.005  -1.614   0.911  1.00  0.00     0.011 C 
ATOM     11  C   UNL     1       5.752  -1.101   2.125  1.00  0.00     0.103 C 
ATOM     12  Cl  UNL     1       7.067  -0.942   3.280  1.00  0.00    -0.071 Cl
ATOM     13  Cl  UNL     1       4.144  -0.584   2.625  1.00  0.00    -0.071 Cl
ENDBRANCH   7  10
ENDBRANCH   1   5
BRANCH   3  14
ATOM     14  C   UNL     1       0.621   0.164  -2.085  1.00  0.00     0.254 C 
BRANCH  14  15
ATOM     15  N   UNL     1      -0.425   0.574  -1.161  1.00  0.00    -0.233 NA
ATOM     16  C   UNL     1      -0.790  -0.066  -0.094  1.00  0.00     0.158 C 
BRANCH  16  17
ATOM     17  S   UNL     1      -0.024  -1.656   0.322  1.00  0.00    -0.106 SA
ATOM     18  H   UNL     1      -0.908  -2.353  -0.524  1.00  0.00     0.111 HD
ENDBRANCH  16  17
BRANCH  16  19
ATOM     19  N   UNL     1      -1.830   0.475   0.747  1.00  0.00    -0.351 N 
ATOM     20  C   UNL     1      -1.854   0.041   2.145  1.00  0.00     0.124 C 
ATOM     21  C   UNL     1      -2.276   1.842   0.474  1.00  0.00     0.128 C 
ATOM     22  C   UNL     1      -3.157   0.419   2.890  1.00  0.00     0.029 C 
ATOM     23  C   UNL     1      -3.611   2.127   1.180  1.00  0.00     0.056 C 
ATOM     24  C   UNL     1      -3.460   1.896   2.690  1.00  0.00     0.019 C 
ATOM     25  C   UNL     1      -4.384  -0.415   2.458  1.00  0.00     0.131 C 
ATOM     26  C   UNL     1      -4.682   1.223   0.598  1.00  0.00     0.026 A 
ATOM     27  N   UNL     1      -5.035   0.041   1.211  1.00  0.00    -0.312 N 
ATOM     28  C   UNL     1      -5.325   1.621  -0.585  1.00  0.00     0.022 A 
ATOM     29  C   UNL     1      -6.054  -0.738   0.680  1.00  0.00     0.250 A 
ATOM     30  C   UNL     1      -6.337   0.833  -1.125  1.00  0.00     0.007 A 
ATOM     31  C   UNL     1      -6.707  -0.346  -0.491  1.00  0.00     0.072 A 
ATOM     32  O   UNL     1      -6.391  -1.777   1.224  1.00  0.00    -0.269 OA
ENDBRANCH  16  19
ENDBRANCH  14  15
BRANCH  14  33
ATOM     33  C   UNL     1       0.591   1.073  -3.332  1.00  0.00     0.230 C 
ATOM     34  Cl  UNL     1      -0.984   0.932  -4.160  1.00  0.00    -0.079 Cl
ATOM     35  Cl  UNL     1       1.864   0.586  -4.484  1.00  0.00    -0.079 Cl
ATOM     36  Cl  UNL     1       0.840   2.792  -2.905  1.00  0.00    -0.079 Cl
ENDBRANCH  14  33
ENDBRANCH   3  14
TORSDOF 7
