REMARK SMILES CC(=O)OC[C@]12C[C@H](OC(C)=O)C(C)=C[C@H]1O[C@@H]1[C@H](O)[C@@H](OC(C)=O)[C@@]2(C)[C@]12CO2
REMARK SMILES IDX 6 1 7 2 8 3 13 4 14 5 15 6 16 7 17 8 18 9 19 10 21 11 26 12
REMARK SMILES IDX 27 13 28 14 29 15 30 16 5 17 4 18 2 19 3 20 1 21 9 22 10 23
REMARK SMILES IDX 12 24 11 25 22 26 23 27 25 28 24 29 20 30
REMARK H PARENT 20 31
ROOT
ATOM      1  C   UNL     1      -0.386  -0.061  -0.077  1.00  0.00     0.050 C 
ATOM      2  C   UNL     1      -0.682   0.375  -1.581  1.00  0.00     0.064 C 
ATOM      3  C   UNL     1      -2.099   0.019  -2.081  1.00  0.00     0.203 C 
ATOM      4  C   UNL     1      -2.165  -1.495  -2.039  1.00  0.00    -0.034 C 
ATOM      5  C   UNL     1      -2.524  -2.299  -3.257  1.00  0.00     0.043 C 
ATOM      6  C   UNL     1      -1.781  -2.115  -0.909  1.00  0.00     0.008 C 
ATOM      7  C   UNL     1      -1.371  -1.276   0.284  1.00  0.00     0.152 C 
ATOM      8  O   UNL     1      -0.908  -2.111   1.321  1.00  0.00    -0.364 OA
ATOM      9  C   UNL     1       0.451  -2.530   1.180  1.00  0.00     0.186 C 
ATOM     10  C   UNL     1       1.238  -1.798   2.260  1.00  0.00     0.188 C 
ATOM     11  C   UNL     1       1.703  -0.462   1.611  1.00  0.00     0.217 C 
ATOM     12  C   UNL     1       1.170  -0.478   0.117  1.00  0.00     0.053 C 
ATOM     13  C   UNL     1       2.147   0.348  -0.785  1.00  0.00     0.019 C 
ATOM     14  C   UNL     1       1.159  -1.982  -0.076  1.00  0.00     0.130 C 
ATOM     15  C   UNL     1       1.351  -2.727  -1.330  1.00  0.00     0.200 C 
ATOM     16  O   UNL     1       2.390  -2.579  -0.360  1.00  0.00    -0.366 OA
ENDROOT
BRANCH   1  17
ATOM     17  C   UNL     1      -0.782   1.135   0.847  1.00  0.00     0.243 C 
BRANCH  17  18
ATOM     18  O   UNL     1       0.004   2.245   0.607  1.00  0.00    -0.465 OA
BRANCH  18  19
ATOM     19  C   UNL     1      -0.159   3.431   1.246  1.00  0.00     0.302 C 
ATOM     20  O   UNL     1      -1.016   3.568   2.109  1.00  0.00    -0.253 OA
ATOM     21  C   UNL     1       0.714   4.587   0.879  1.00  0.00     0.139 C 
ENDBRANCH  18  19
ENDBRANCH  17  18
ENDBRANCH   1  17
BRANCH   3  22
ATOM     22  O   UNL     1      -3.073   0.564  -1.261  1.00  0.00    -0.458 OA
BRANCH  22  23
ATOM     23  C   UNL     1      -4.064   1.409  -1.642  1.00  0.00     0.303 C 
ATOM     24  O   UNL     1      -4.145   1.816  -2.792  1.00  0.00    -0.253 OA
ATOM     25  C   UNL     1      -5.079   1.840  -0.633  1.00  0.00     0.139 C 
ENDBRANCH  22  23
ENDBRANCH   3  22
BRANCH  11  26
ATOM     26  O   UNL     1       3.095  -0.528   1.598  1.00  0.00    -0.459 OA
BRANCH  26  27
ATOM     27  C   UNL     1       3.970   0.356   2.136  1.00  0.00     0.303 C 
ATOM     28  O   UNL     1       3.586   1.353   2.728  1.00  0.00    -0.253 OA
ATOM     29  C   UNL     1       5.437   0.097   1.986  1.00  0.00     0.139 C 
ENDBRANCH  26  27
ENDBRANCH  11  26
BRANCH  10  30
ATOM     30  O   UNL     1       0.554  -1.652   3.480  1.00  0.00    -0.386 OA
ATOM     31  H   UNL     1      -0.120  -0.932   3.368  1.00  0.00     0.211 HD
ENDBRANCH  10  30
TORSDOF 8
