REMARK SMILES C[C@]12CCC[C@@H]1[C@H]1CC[C@@]3(C)C[C@@H](O)CC[C@@]3(C)[C@H]1CC2
REMARK SMILES IDX 1 1 2 2 3 3 4 4 5 5 6 6 7 7 8 8 9 9 10 10 11 11 12 12 13 13
REMARK SMILES IDX 15 14 16 15 17 16 18 17 19 18 20 19 21 20 14 21
REMARK H PARENT 14 22
ROOT
ATOM      1  C   UNL     1      -2.995   0.885   1.619  1.00  0.00     0.011 C 
ATOM      2  C   UNL     1      -2.816   0.782   0.064  1.00  0.00    -0.029 C 
ATOM      3  C   UNL     1      -4.236   0.803  -0.529  1.00  0.00     0.007 C 
ATOM      4  C   UNL     1      -4.724  -0.658  -0.337  1.00  0.00     0.001 C 
ATOM      5  C   UNL     1      -3.439  -1.523  -0.249  1.00  0.00     0.004 C 
ATOM      6  C   UNL     1      -2.334  -0.538  -0.595  1.00  0.00    -0.002 C 
ATOM      7  C   UNL     1      -0.843  -0.958  -0.397  1.00  0.00    -0.004 C 
ATOM      8  C   UNL     1      -0.106  -1.130  -1.746  1.00  0.00     0.005 C 
ATOM      9  C   UNL     1       1.293  -1.714  -1.516  1.00  0.00     0.008 C 
ATOM     10  C   UNL     1       2.217  -0.841  -0.609  1.00  0.00    -0.024 C 
ATOM     11  C   UNL     1       3.472  -1.727  -0.322  1.00  0.00     0.012 C 
ATOM     12  C   UNL     1       2.711   0.414  -1.403  1.00  0.00     0.039 C 
ATOM     13  C   UNL     1       3.594   1.343  -0.537  1.00  0.00     0.115 C 
ATOM     14  C   UNL     1       2.813   1.839   0.688  1.00  0.00     0.032 C 
ATOM     15  C   UNL     1       2.294   0.651   1.522  1.00  0.00     0.010 C 
ATOM     16  C   UNL     1       1.450  -0.415   0.731  1.00  0.00    -0.024 C 
ATOM     17  C   UNL     1       1.341  -1.640   1.705  1.00  0.00     0.012 C 
ATOM     18  C   UNL     1      -0.056   0.068   0.457  1.00  0.00    -0.001 C 
ATOM     19  C   UNL     1      -0.358   1.557   0.015  1.00  0.00     0.005 C 
ATOM     20  C   UNL     1      -1.833   1.856  -0.432  1.00  0.00     0.007 C 
ENDROOT
BRANCH  13  21
ATOM     21  O   UNL     1       4.080   2.424  -1.292  1.00  0.00    -0.393 OA
ATOM     22  H   UNL     1       3.300   2.938  -1.627  1.00  0.00     0.210 HD
ENDBRANCH  13  21
TORSDOF 1
