REMARK SMILES C/C=C1/C[C@H](C)[C@@](C)(O)C(=O)OCC2=CCN3CC[C@@H](OC1=O)[C@@H]23
REMARK SMILES IDX 14 1 15 2 16 3 17 4 18 5 19 6 20 7 24 8 21 9 22 10 23 11
REMARK SMILES IDX 3 12 2 13 1 14 4 15 5 16 6 17 13 19 12 20 10 21 11 22 7 23
REMARK SMILES IDX 8 24 9 26
REMARK H PARENT 9 27
REMARK Flexibility Score:   37.900
ROOT
ATOM      1  C   UNL     1       2.244  -1.896   0.168  1.00  0.00    -0.015 C 
ATOM      2  C   UNL     1       3.296  -2.619  -0.169  1.00  0.00    -0.007 C 
ATOM      3  C   UNL     1       4.541  -1.847  -0.082  1.00  0.00     0.113 C 
ATOM      4  N   UNL     1       4.133  -0.457   0.181  1.00  0.00    -0.289 NA
ATOM      5  C   UNL     1       4.155   0.375  -1.056  1.00  0.00     0.089 C 
ATOM      6  C   UNL     1       2.704   0.622  -1.463  1.00  0.00     0.063 C 
ATOM      7  C   UNL     1       2.106   0.730  -0.092  1.00  0.00     0.199 C 
ATOM      8  C   UNL     1       2.704  -0.505   0.587  1.00  0.00     0.127 C 
ENDROOT
BRANCH   7   9
ATOM      9  O   UNL     1       0.728   0.834  -0.053  1.00  0.00    -0.457 OA
BRANCH   9  10
ATOM     10  C   UNL     1       0.096   2.036   0.108  1.00  0.00     0.334 C 
ATOM     11  O   UNL     1       0.693   3.074  -0.143  1.00  0.00    -0.247 OA
BRANCH  10  12
ATOM     12  C   UNL     1      -1.293   2.077   0.658  1.00  0.00     0.033 C 
ATOM     13  C   UNL     1      -1.971   3.223   0.928  1.00  0.00    -0.019 C 
ATOM     14  C   UNL     1      -1.450   4.613   0.700  1.00  0.00     0.036 C 
BRANCH  12  15
ATOM     15  C   UNL     1      -1.955   0.753   0.957  1.00  0.00     0.049 C 
BRANCH  15  16
ATOM     16  C   UNL     1      -2.304  -0.018  -0.344  1.00  0.00     0.034 CG0
ATOM     17  C   UNL     1      -3.410   0.743  -1.109  1.00  0.00     0.012 C 
ATOM     18  G   UNL     1      -2.685  -1.510  -0.054  1.00  0.00     0.000 G0
ENDBRANCH  15  16
ENDBRANCH  12  15
ENDBRANCH  10  12
ENDBRANCH   9  10
ENDBRANCH   7   9
BRANCH   1  19
ATOM     19  C   UNL     1       0.894  -2.579   0.180  1.00  0.00     0.266 C 
BRANCH  19  20
ATOM     20  O   UNL     1      -0.203  -1.764   0.379  1.00  0.00    -0.459 OA
BRANCH  20  21
ATOM     21  C   UNL     1      -1.461  -2.309   0.372  1.00  0.00     0.338 C 
ATOM     22  O   UNL     1      -1.605  -3.506   0.591  1.00  0.00    -0.249 OA
BRANCH  21  23
ATOM     23  C   UNL     1      -2.685  -1.510  -0.054  1.00  0.00     0.161 CG0
ATOM     24  C   UNL     1      -3.776  -1.652   1.043  1.00  0.00     0.055 C 
ATOM     25  G   UNL     1      -2.304  -0.018  -0.344  1.00  0.00     0.000 G0
BRANCH  23  26
ATOM     26  O   UNL     1      -3.128  -2.114  -1.251  1.00  0.00    -0.378 OA
ATOM     27  H   UNL     1      -4.090  -1.907  -1.384  1.00  0.00     0.212 HD
ENDBRANCH  23  26
ENDBRANCH  21  23
ENDBRANCH  20  21
ENDBRANCH  19  20
ENDBRANCH   1  19
TORSDOF 1
