REMARK SMILES C=C(C)[C@H]1C[C@@]23[C@@H](O1)O[C@]2(C)[C@@H](Cl)C=C(Br)C3(C)C
REMARK SMILES IDX 4 1 5 2 6 3 7 4 8 5 9 6 10 7 11 8 12 9 13 10 14 11 15 12
REMARK SMILES IDX 16 13 17 14 18 15 19 16 2 17 1 18 3 19
REMARK H PARENT
ROOT
ATOM      1  C   UNL     1       1.807  -0.891   0.213  1.00  0.00     0.147 C 
ATOM      2  C   UNL     1       1.021   0.417   0.272  1.00  0.00     0.053 C 
ATOM      3  C   UNL     1      -0.443  -0.011   0.088  1.00  0.00     0.064 C 
ATOM      4  C   UNL     1      -0.269  -1.412  -0.484  1.00  0.00     0.261 C 
ATOM      5  O   UNL     1       1.101  -1.732  -0.662  1.00  0.00    -0.344 OA
ATOM      6  O   UNL     1      -0.804  -2.039   0.669  1.00  0.00    -0.343 OA
ATOM      7  C   UNL     1      -1.122  -0.791   1.259  1.00  0.00     0.100 C 
ATOM      8  C   UNL     1      -0.509  -0.655   2.674  1.00  0.00     0.045 C 
ATOM      9  C   UNL     1      -2.677  -0.642   1.349  1.00  0.00     0.137 C 
ATOM     10  Cl  UNL     1      -3.272   0.680   2.402  1.00  0.00    -0.115 Cl
ATOM     11  C   UNL     1      -3.316  -0.493   0.007  1.00  0.00     0.007 C 
ATOM     12  C   UNL     1      -2.759   0.248  -0.964  1.00  0.00    -0.001 C 
ATOM     13  Br  UNL     1      -3.694   0.231  -2.654  1.00  0.00    -0.055 Br
ATOM     14  C   UNL     1      -1.389   0.937  -0.771  1.00  0.00     0.009 C 
ATOM     15  C   UNL     1      -1.547   2.304  -0.076  1.00  0.00     0.017 C 
ATOM     16  C   UNL     1      -0.790   1.235  -2.178  1.00  0.00     0.017 C 
ENDROOT
BRANCH   1  17
ATOM     17  C   UNL     1       3.248  -0.715  -0.247  1.00  0.00    -0.052 C 
ATOM     18  C   UNL     1       4.261  -1.054   0.569  1.00  0.00     0.010 C 
ATOM     19  C   UNL     1       3.552  -0.189  -1.633  1.00  0.00     0.041 C 
ENDBRANCH   1  17
TORSDOF 1
