REMARK SMILES CC(C)=CC(=O)OC(C)(C)[C@@H]1Cc2c(cc3oc(=O)ccc3c2O)O1
REMARK SMILES IDX 7 1 5 2 6 3 4 4 2 5 1 6 3 7 8 8 9 9 10 10 11 11 12 12 25 13
REMARK SMILES IDX 13 14 14 15 23 16 15 17 22 18 16 19 21 20 17 21 20 22 18 23
REMARK SMILES IDX 19 24 24 25
REMARK H PARENT 24 26
ROOT
ATOM      1  O   UNL     1       1.616   0.680   0.283  1.00  0.00    -0.453 OA
ENDROOT
BRANCH   1   2
ATOM      2  C   UNL     1       2.968   0.569   0.129  1.00  0.00     0.331 C 
ATOM      3  O   UNL     1       3.719   1.411   0.596  1.00  0.00    -0.247 OA
BRANCH   2   4
ATOM      4  C   UNL     1       3.508  -0.601  -0.612  1.00  0.00     0.092 C 
ATOM      5  C   UNL     1       4.819  -0.864  -0.842  1.00  0.00    -0.069 C 
ATOM      6  C   UNL     1       5.173  -2.110  -1.615  1.00  0.00     0.039 C 
ATOM      7  C   UNL     1       5.935   0.034  -0.358  1.00  0.00     0.039 C 
ENDBRANCH   2   4
ENDBRANCH   1   2
BRANCH   1   8
ATOM      8  C   UNL     1       0.923   1.679   0.967  1.00  0.00     0.144 C 
ATOM      9  C   UNL     1       1.341   1.711   2.455  1.00  0.00     0.060 C 
ATOM     10  C   UNL     1       1.188   3.059   0.322  1.00  0.00     0.060 C 
BRANCH   8  11
ATOM     11  C   UNL     1      -0.600   1.389   0.884  1.00  0.00     0.221 C 
ATOM     12  C   UNL     1      -1.079   0.045   1.494  1.00  0.00     0.093 C 
ATOM     13  O   UNL     1      -1.119   1.424  -0.400  1.00  0.00    -0.485 OA
ATOM     14  C   UNL     1      -2.239  -0.239   0.616  1.00  0.00     0.041 A 
ATOM     15  C   UNL     1      -2.167   0.589  -0.468  1.00  0.00     0.130 A 
ATOM     16  C   UNL     1      -3.243  -1.201   0.752  1.00  0.00     0.133 A 
ATOM     17  C   UNL     1      -3.105   0.533  -1.493  1.00  0.00     0.094 A 
ATOM     18  C   UNL     1      -4.235  -1.274  -0.268  1.00  0.00     0.060 A 
ATOM     19  C   UNL     1      -4.154  -0.395  -1.392  1.00  0.00     0.145 A 
ATOM     20  C   UNL     1      -5.313  -2.176  -0.231  1.00  0.00     0.023 A 
ATOM     21  O   UNL     1      -5.072  -0.444  -2.354  1.00  0.00    -0.422 OA
ATOM     22  C   UNL     1      -6.249  -2.181  -1.264  1.00  0.00     0.095 A 
ATOM     23  C   UNL     1      -6.097  -1.289  -2.326  1.00  0.00     0.336 A 
ATOM     24  O   UNL     1      -6.907  -1.281  -3.235  1.00  0.00    -0.246 OA
BRANCH  16  25
ATOM     25  O   UNL     1      -3.232  -2.000   1.842  1.00  0.00    -0.507 OA
ATOM     26  H   UNL     1      -3.883  -2.688   2.023  1.00  0.00     0.293 HD
ENDBRANCH  16  25
ENDBRANCH   8  11
ENDBRANCH   1   8
TORSDOF 5
