REMARK SMILES CC(C)CN(Cc1c(O)ccc2c1OC(=Cc1cccc(Br)c1)C2=O)CC(C)C
REMARK SMILES IDX 5 1 4 2 2 3 1 4 3 5 6 6 7 7 8 8 13 9 10 10 12 11 14 12 11 13
REMARK SMILES IDX 24 14 15 15 25 16 16 17 9 18 17 20 18 21 23 22 19 23 21 24
REMARK SMILES IDX 20 25 22 26 26 27 27 28 28 29 29 30
REMARK H PARENT 9 19
ROOT
ATOM      1  N   UNL     1      -2.272   0.364   0.295  1.00  0.00    -0.298 NA
ENDROOT
BRANCH   1   2
ATOM      2  C   UNL     1      -3.269   0.533   1.388  1.00  0.00     0.087 C 
BRANCH   2   3
ATOM      3  C   UNL     1      -4.323   1.620   1.067  1.00  0.00    -0.003 C 
ATOM      4  C   UNL     1      -5.158   1.238  -0.164  1.00  0.00     0.009 C 
ATOM      5  C   UNL     1      -5.252   1.815   2.272  1.00  0.00     0.009 C 
ENDBRANCH   2   3
ENDBRANCH   1   2
BRANCH   1   6
ATOM      6  C   UNL     1      -1.217   1.405   0.417  1.00  0.00     0.128 C 
BRANCH   6   7
ATOM      7  C   UNL     1      -0.316   1.446  -0.803  1.00  0.00     0.051 A 
ATOM      8  C   UNL     1      -0.780   1.849  -2.089  1.00  0.00     0.123 A 
ATOM      9  C   UNL     1       1.030   1.067  -0.692  1.00  0.00     0.147 A 
ATOM     10  C   UNL     1       0.103   1.851  -3.192  1.00  0.00     0.047 A 
ATOM     11  C   UNL     1       1.870   1.083  -1.779  1.00  0.00     0.069 A 
ATOM     12  O   UNL     1       1.654   0.625   0.426  1.00  0.00    -0.452 OA
ATOM     13  C   UNL     1       1.442   1.465  -3.044  1.00  0.00     0.020 A 
ATOM     14  C   UNL     1       3.151   0.619  -1.312  1.00  0.00     0.231 C 
ATOM     15  C   UNL     1       2.947   0.332   0.122  1.00  0.00     0.176 C 
ATOM     16  O   UNL     1       4.119   0.380  -2.015  1.00  0.00    -0.285 OA
ATOM     17  C   UNL     1       3.782  -0.184   1.049  1.00  0.00     0.059 C 
BRANCH   8  18
ATOM     18  O   UNL     1      -2.051   2.247  -2.296  1.00  0.00    -0.507 OA
ATOM     19  H   UNL     1      -2.702   2.325  -1.588  1.00  0.00     0.293 HD
ENDBRANCH   8  18
BRANCH  17  20
ATOM     20  C   UNL     1       5.224  -0.527   0.902  1.00  0.00    -0.021 A 
ATOM     21  C   UNL     1       5.743  -1.564   1.697  1.00  0.00     0.008 A 
ATOM     22  C   UNL     1       6.098   0.167   0.043  1.00  0.00     0.024 A 
ATOM     23  C   UNL     1       7.090  -1.927   1.603  1.00  0.00     0.002 A 
ATOM     24  C   UNL     1       7.446  -0.193  -0.042  1.00  0.00     0.018 A 
ATOM     25  C   UNL     1       7.940  -1.246   0.731  1.00  0.00     0.016 A 
ATOM     26  Br  UNL     1       8.618   0.769  -1.205  1.00  0.00    -0.051 Br
ENDBRANCH  17  20
ENDBRANCH   6   7
ENDBRANCH   1   6
BRANCH   1  27
ATOM     27  C   UNL     1      -1.643  -0.983   0.371  1.00  0.00     0.087 C 
BRANCH  27  28
ATOM     28  C   UNL     1      -2.551  -2.112  -0.172  1.00  0.00    -0.003 C 
ATOM     29  C   UNL     1      -1.826  -3.459  -0.050  1.00  0.00     0.009 C 
ATOM     30  C   UNL     1      -2.932  -1.857  -1.637  1.00  0.00     0.009 C 
ENDBRANCH  27  28
ENDBRANCH   1  27
TORSDOF 8
