REMARK SMILES CC(=O)O[C@H]1[C@H]2[C@H]([C@@H]3[C@@H](OC(C)=O)C[C@H]([C@H](C)[C@H]4C[C@]4(C)[C@H](C)C(C)C)[C@@]3(C)[C@@H]1O)[C@H](O)C=C1C[C@@H](O)CC[C@@]12C
REMARK SMILES IDX 16 1 17 2 15 3 5 4 6 5 29 6 7 7 40 8 27 9 8 10 31 11 39 12
REMARK SMILES IDX 34 13 9 14 33 15 38 16 35 17 14 18 36 19 41 20 28 21 4 22
REMARK SMILES IDX 2 23 3 24 1 25 30 26 32 28 10 30 11 31 13 32 12 33 37 34
REMARK SMILES IDX 18 36 19 37 20 38 21 39 22 40 23 41 24 42 25 43 26 44
REMARK H PARENT 30 27 32 29 37 35
ROOT
ATOM      1  C   UNL     1       2.477   0.659   1.503  1.00  0.00    -0.007 C 
ATOM      2  C   UNL     1       2.233   1.757   2.546  1.00  0.00     0.008 C 
ENDROOT
BRANCH   1   3
ATOM      3  C   UNL     1       1.215   0.440   0.593  1.00  0.00     0.005 C 
ATOM      4  C   UNL     1      -2.362   1.388   1.293  1.00  0.00     0.210 C 
ATOM      5  C   UNL     1      -3.105   0.329   0.369  1.00  0.00     0.049 C 
ATOM      6  C   UNL     1      -1.084   0.852   2.025  1.00  0.00     0.162 C 
ATOM      7  C   UNL     1      -2.268  -0.934   0.039  1.00  0.00     0.037 C 
ATOM      8  C   UNL     1      -4.601  -0.037   0.727  1.00  0.00    -0.005 C 
ATOM      9  C   UNL     1      -0.125  -0.113   1.188  1.00  0.00     0.007 C 
ATOM     10  C   UNL     1      -0.814  -0.478  -0.170  1.00  0.00     0.045 C 
ATOM     11  C   UNL     1      -2.880  -1.649  -1.190  1.00  0.00     0.141 C 
ATOM     12  C   UNL     1      -5.482   1.226   0.448  1.00  0.00     0.014 C 
ATOM     13  C   UNL     1      -5.140  -1.167  -0.175  1.00  0.00    -0.063 C 
ATOM     14  C   UNL     1       0.227  -1.355  -0.847  1.00  0.00     0.181 C 
ATOM     15  C   UNL     1      -4.364  -1.865  -1.041  1.00  0.00     0.004 C 
ATOM     16  C   UNL     1      -6.996   0.955   0.540  1.00  0.00     0.033 C 
ATOM     17  C   UNL     1      -6.622  -1.468  -0.117  1.00  0.00     0.063 C 
ATOM     18  C   UNL     1       1.506  -0.545  -0.588  1.00  0.00     0.050 C 
ATOM     19  C   UNL     1      -7.403  -0.181  -0.424  1.00  0.00     0.118 C 
ATOM     20  C   UNL     1      -4.742  -0.498   2.202  1.00  0.00     0.016 C 
ATOM     21  C   UNL     1       0.240  -1.360   2.085  1.00  0.00     0.015 C 
BRANCH   4  22
ATOM     22  O   UNL     1      -2.018   2.514   0.554  1.00  0.00    -0.459 OA
BRANCH  22  23
ATOM     23  C   UNL     1      -2.483   3.776   0.814  1.00  0.00     0.303 C 
ATOM     24  O   UNL     1      -3.287   3.982   1.714  1.00  0.00    -0.253 OA
ATOM     25  C   UNL     1      -1.997   4.934   0.007  1.00  0.00     0.139 C 
ENDBRANCH  22  23
ENDBRANCH   4  22
BRANCH   6  26
ATOM     26  O   UNL     1      -1.491   0.252   3.236  1.00  0.00    -0.389 OA
ATOM     27  H   UNL     1      -2.143  -0.459   3.025  1.00  0.00     0.211 HD
ENDBRANCH   6  26
BRANCH  11  28
ATOM     28  O   UNL     1      -2.612  -0.992  -2.407  1.00  0.00    -0.389 OA
ATOM     29  H   UNL     1      -3.256  -0.245  -2.521  1.00  0.00     0.211 HD
ENDBRANCH  11  28
BRANCH  14  30
ATOM     30  O   UNL     1       0.039  -1.530  -2.209  1.00  0.00    -0.462 OA
BRANCH  30  31
ATOM     31  C   UNL     1       0.013  -2.728  -2.853  1.00  0.00     0.302 C 
ATOM     32  O   UNL     1       0.121  -3.780  -2.240  1.00  0.00    -0.253 OA
ATOM     33  C   UNL     1      -0.126  -2.760  -4.341  1.00  0.00     0.139 C 
ENDBRANCH  30  31
ENDBRANCH  14  30
BRANCH  19  34
ATOM     34  O   UNL     1      -8.787  -0.411  -0.367  1.00  0.00    -0.393 OA
ATOM     35  H   UNL     1      -9.009  -0.680   0.562  1.00  0.00     0.210 HD
ENDBRANCH  19  34
ENDBRANCH   1   3
BRANCH   1  36
ATOM     36  C   UNL     1       3.729   1.021   0.633  1.00  0.00    -0.001 C 
ATOM     37  C   UNL     1       5.064   1.078   1.418  1.00  0.00     0.011 C 
ATOM     38  C   UNL     1       4.863  -0.001   0.361  1.00  0.00    -0.026 C 
ATOM     39  C   UNL     1       4.777  -1.442   0.932  1.00  0.00     0.012 C 
BRANCH  38  40
ATOM     40  C   UNL     1       5.604   0.201  -1.011  1.00  0.00    -0.005 C 
ATOM     41  C   UNL     1       4.662  -0.219  -2.151  1.00  0.00     0.008 C 
BRANCH  40  42
ATOM     42  C   UNL     1       6.970  -0.569  -1.076  1.00  0.00    -0.014 C 
ATOM     43  C   UNL     1       7.682  -0.418  -2.435  1.00  0.00     0.007 C 
ATOM     44  C   UNL     1       7.933  -0.092   0.024  1.00  0.00     0.007 C 
ENDBRANCH  40  42
ENDBRANCH  38  40
ENDBRANCH   1  36
TORSDOF 11
