REMARK SMILES CCCCC[C@@H]1CN2C(=O)[C@]13[C@@H](CO)CCC[C@H]3CSS[C@@H](O)[C@@]13C[C@@H](O)[C@](O)(CO)C[C@]1(C)[C@H]1C[C@H]4C=CC[C@](O)([C@@H]5O[C@H]5[C@H](C)C(C)C)[C@H]5CC[C@@](O)(C1=CC3=O)[C@]45CCc1cc(O)cc2c1
REMARK SMILES IDX 62 1 63 2 68 3 69 4 67 5 65 6 64 7 8 8 6 9 7 10 11 11 9 12
REMARK SMILES IDX 12 13 18 14 10 15 15 16 17 17 16 18 5 20 4 21 3 22 2 23 1 24
REMARK SMILES IDX 13 25 14 26 66 28 61 30 60 31 54 32 37 33 51 34 53 35 56 36
REMARK SMILES IDX 36 37 52 38 57 39 35 40 58 41 33 42 24 43 59 44 32 45 25 46
REMARK SMILES IDX 28 47 26 48 34 49 55 50 38 52 39 53 41 55 40 56 42 58 43 60
REMARK SMILES IDX 44 61 45 62 46 63 47 64 48 65 49 66 50 67 22 68 21 69 20 70
REMARK SMILES IDX 19 71 23 73 29 75 30 77 31 78 27 80
REMARK H PARENT 14 27 66 29 55 51 42 59 23 74 29 76 31 79 27 81
REMARK Flexibility Score:  103.800
ROOT
ATOM      1  C   UNL     1       1.143   2.117   0.017  1.00  0.00     0.036 C 
ENDROOT
BRANCH   1   2
ATOM      2  C   UNL     1      -0.108   2.564   0.734  1.00  0.00    -0.042 A 
ATOM      3  C   UNL     1      -2.474   2.176   1.299  1.00  0.00     0.048 A 
ATOM      4  C   UNL     1      -1.247   1.736   0.746  1.00  0.00     0.030 A 
ATOM      5  C   UNL     1      -2.497   3.471   1.869  1.00  0.00     0.072 A 
ATOM      6  C   UNL     1      -1.362   4.296   1.867  1.00  0.00     0.117 A 
ATOM      7  C   UNL     1      -0.178   3.844   1.293  1.00  0.00     0.050 A 
BRANCH   3   8
ATOM      8  N   UNL     1      -3.696   1.388   1.255  1.00  0.00    -0.311 N 
ATOM      9  C   UNL     1      -5.905   0.728   1.670  1.00  0.00     0.025 C 
ATOM     10  C   UNL     1      -4.969   1.926   1.709  1.00  0.00     0.130 C 
ATOM     11  C   UNL     1      -5.338  -0.233   0.559  1.00  0.00     0.063 C 
ATOM     12  C   UNL     1      -3.888   0.163   0.657  1.00  0.00     0.234 C 
ATOM     13  C   UNL     1      -5.800   0.089  -0.943  1.00  0.00     0.031 C 
ATOM     14  C   UNL     1      -5.655  -1.744   0.974  1.00  0.00     0.016 CG0
ATOM     15  O   UNL     1      -3.018  -0.451   0.073  1.00  0.00    -0.274 OA
ATOM     16  C   UNL     1      -5.541  -1.077  -1.923  1.00  0.00     0.007 C 
ATOM     17  C   UNL     1      -5.468  -2.773  -0.161  1.00  0.00     0.005 C 
ATOM     18  C   UNL     1      -6.178  -2.359  -1.429  1.00  0.00     0.001 C 
ATOM     19  G   UNL     1      -4.931  -2.245   2.285  1.00  0.00     0.000 G0
BRANCH   9  20
ATOM     20  C   UNL     1      -7.426   0.961   1.969  1.00  0.00     0.006 C 
BRANCH  20  21
ATOM     21  C   UNL     1      -8.426   1.431   0.890  1.00  0.00     0.000 C 
BRANCH  21  22
ATOM     22  C   UNL     1      -8.105   2.775   0.231  1.00  0.00    -0.000 C 
BRANCH  22  23
ATOM     23  C   UNL     1      -9.132   3.101  -0.863  1.00  0.00    -0.003 C 
ATOM     24  C   UNL     1      -8.793   4.406  -1.577  1.00  0.00     0.004 C 
ENDBRANCH  22  23
ENDBRANCH  21  22
ENDBRANCH  20  21
ENDBRANCH   9  20
BRANCH  13  25
ATOM     25  C   UNL     1      -5.142   1.351  -1.600  1.00  0.00     0.160 C 
BRANCH  25  26
ATOM     26  O   UNL     1      -5.714   1.627  -2.853  1.00  0.00    -0.396 OA
ATOM     27  H   UNL     1      -5.076   1.309  -3.545  1.00  0.00     0.210 HD
ENDBRANCH  25  26
ENDBRANCH  13  25
ENDBRANCH   3   8
BRANCH   6  28
ATOM     28  O   UNL     1      -1.409   5.536   2.394  1.00  0.00    -0.508 OA
ATOM     29  H   UNL     1      -2.215   5.902   2.785  1.00  0.00     0.293 HD
ENDBRANCH   6  28
ENDBRANCH   1   2
BRANCH   1  30
ATOM     30  C   UNL     1       1.922   0.965   0.707  1.00  0.00     0.016 C 
BRANCH  30  31
ATOM     31  C   UNL     1       3.163   0.266  -0.063  1.00  0.00     0.015 C 
ATOM     32  C   UNL     1       3.649  -1.032   0.700  1.00  0.00     0.093 C 
ATOM     33  C   UNL     1       2.774  -0.179  -1.506  1.00  0.00     0.022 C 
ATOM     34  C   UNL     1       4.516   1.042   0.022  1.00  0.00     0.034 C 
ATOM     35  C   UNL     1       4.252  -0.425   1.986  1.00  0.00     0.041 C 
ATOM     36  C   UNL     1       2.524  -2.045   0.782  1.00  0.00    -0.031 C 
ATOM     37  C   UNL     1       1.584  -1.199  -1.419  1.00  0.00     0.017 C 
ATOM     38  C   UNL     1       4.935   0.875   1.507  1.00  0.00     0.011 C 
ATOM     39  C   UNL     1       2.111  -2.507   1.960  1.00  0.00     0.050 C 
ATOM     40  C   UNL     1       1.934  -2.473  -0.561  1.00  0.00     0.026 C 
ATOM     41  C   UNL     1       0.993  -3.416   2.115  1.00  0.00     0.166 C 
ATOM     42  C   UNL     1       0.853  -3.672  -0.503  1.00  0.00    -0.007 C 
ATOM     43  C   UNL     1       0.115  -3.876   0.950  1.00  0.00     0.078 C 
ATOM     44  O   UNL     1       0.701  -3.727   3.263  1.00  0.00    -0.294 OA
ATOM     45  C   UNL     1       1.626  -4.999  -0.797  1.00  0.00     0.049 C 
ATOM     46  C   UNL     1      -0.129  -5.413   1.277  1.00  0.00     0.054 C 
ATOM     47  C   UNL     1       0.722  -6.275  -0.964  1.00  0.00     0.114 C 
ATOM     48  C   UNL     1      -0.464  -6.298   0.078  1.00  0.00     0.149 C 
ATOM     49  C   UNL     1      -0.141  -3.470  -1.698  1.00  0.00     0.013 C 
BRANCH  32  50
ATOM     50  O   UNL     1       4.697  -1.681   0.000  1.00  0.00    -0.385 OA
ATOM     51  H   UNL     1       5.034  -2.421   0.570  1.00  0.00     0.211 HD
ENDBRANCH  32  50
BRANCH  33  52
ATOM     52  C   UNL     1       2.425   0.977  -2.420  1.00  0.00    -0.027 C 
ATOM     53  C   UNL     1       3.187   2.056  -2.680  1.00  0.00    -0.028 CG1
ATOM     54  G   UNL     1       4.585   2.320  -2.177  1.00  0.00     0.000 G1
ENDBRANCH  33  52
BRANCH  34  55
ATOM     55  C   UNL     1       4.793   2.425  -0.633  1.00  0.00     0.100 C 
BRANCH  55  56
ATOM     56  C   UNL     1       4.585   2.320  -2.177  1.00  0.00     0.065 CG1
ATOM     57  G   UNL     1       3.187   2.056  -2.680  1.00  0.00     0.000 G1
ENDBRANCH  55  56
BRANCH  55  58
ATOM     58  O   UNL     1       4.006   3.423  -0.037  1.00  0.00    -0.386 OA
ATOM     59  H   UNL     1       3.944   4.191  -0.663  1.00  0.00     0.211 HD
ENDBRANCH  55  58
BRANCH  55  60
ATOM     60  C   UNL     1       6.305   2.724  -0.420  1.00  0.00     0.180 C 
ATOM     61  O   UNL     1       6.555   3.254   0.870  1.00  0.00    -0.366 OA
ATOM     62  C   UNL     1       6.824   4.100  -0.218  1.00  0.00     0.153 C 
BRANCH  62  63
ATOM     63  C   UNL     1       8.330   4.351  -0.538  1.00  0.00     0.020 C 
ATOM     64  C   UNL     1       8.387   4.603  -2.055  1.00  0.00     0.011 C 
BRANCH  63  65
ATOM     65  C   UNL     1       9.374   3.258  -0.065  1.00  0.00    -0.012 C 
ATOM     66  C   UNL     1      10.797   3.551  -0.579  1.00  0.00     0.008 C 
ATOM     67  C   UNL     1       9.463   3.156   1.473  1.00  0.00     0.008 C 
ENDBRANCH  63  65
ENDBRANCH  62  63
ENDBRANCH  55  60
ENDBRANCH  34  55
BRANCH  43  68
ATOM     68  C   UNL     1      -1.213  -3.034   1.049  1.00  0.00     0.197 C 
BRANCH  68  69
ATOM     69  S   UNL     1      -2.057  -3.066   2.711  1.00  0.00    -0.061 SA
BRANCH  69  70
ATOM     70  S   UNL     1      -3.971  -3.830   2.133  1.00  0.00    -0.091 SA
BRANCH  70  71
ATOM     71  C   UNL     1      -4.931  -2.245   2.285  1.00  0.00     0.086 CG0
ATOM     72  G   UNL     1      -5.655  -1.744   0.974  1.00  0.00     0.000 G0
ENDBRANCH  70  71
ENDBRANCH  69  70
ENDBRANCH  68  69
BRANCH  68  73
ATOM     73  O   UNL     1      -0.925  -1.702   0.735  1.00  0.00    -0.380 OA
ATOM     74  H   UNL     1      -0.514  -1.284   1.535  1.00  0.00     0.212 HD
ENDBRANCH  68  73
ENDBRANCH  43  68
BRANCH  47  75
ATOM     75  O   UNL     1       0.198  -6.298  -2.274  1.00  0.00    -0.385 OA
ATOM     76  H   UNL     1      -0.335  -7.130  -2.381  1.00  0.00     0.211 HD
ENDBRANCH  47  75
BRANCH  47  77
ATOM     77  C   UNL     1       1.647  -7.518  -0.822  1.00  0.00     0.194 C 
BRANCH  77  78
ATOM     78  O   UNL     1       2.227  -7.597   0.454  1.00  0.00    -0.393 OA
ATOM     79  H   UNL     1       3.199  -7.422   0.349  1.00  0.00     0.210 HD
ENDBRANCH  77  78
ENDBRANCH  47  77
BRANCH  48  80
ATOM     80  O   UNL     1      -1.679  -5.879  -0.486  1.00  0.00    -0.390 OA
ATOM     81  H   UNL     1      -2.393  -6.062   0.180  1.00  0.00     0.211 HD
ENDBRANCH  48  80
ENDBRANCH  30  31
ENDBRANCH   1  30
TORSDOF 17
