REMARK SMILES NCCOc1ccc(/C=C/C(=O)CO[C@@]2(C(=O)O)C[C@@H](O)[C@H]3OC[C@H](CCc4ccccc4)C[C@@]4(C(=O)/C=C/c5cc(O)c(O)cc5CO)CC[C@H]2[C@H]3O4)cc1O
REMARK SMILES IDX 13 1 11 2 12 3 10 4 9 5 8 6 5 7 6 8 56 9 7 10 55 11 4 12
REMARK SMILES IDX 3 13 2 14 1 15 57 18 14 20 15 21 19 22 52 23 20 24 51 25
REMARK SMILES IDX 53 26 22 27 50 28 54 29 35 30 16 31 17 32 18 33 21 35 23 37
REMARK SMILES IDX 24 38 34 40 25 41 26 43 27 44 28 45 29 46 33 47 30 48 32 49
REMARK SMILES IDX 31 50 36 51 37 52 38 53 39 54 40 55 41 56 47 57 42 58 46 59
REMARK SMILES IDX 44 60 48 61 49 62 43 64 45 66
REMARK H PARENT 1 16 1 17 57 19 18 34 21 36 49 63 43 65 45 67
REMARK Flexibility Score:  296.900
ROOT
ATOM      1  C   UNL     1       3.784  -0.936  -0.018  1.00  0.00     0.242 C 
ENDROOT
BRANCH   1   2
ATOM      2  C   UNL     1       4.920   0.009  -0.346  1.00  0.00     0.181 C 
ATOM      3  O   UNL     1       4.812   0.841  -1.232  1.00  0.00    -0.292 OA
BRANCH   2   4
ATOM      4  C   UNL     1       6.199  -0.123   0.391  1.00  0.00     0.050 C 
ATOM      5  C   UNL     1       7.284   0.615   0.082  1.00  0.00     0.012 C 
BRANCH   5   6
ATOM      6  C   UNL     1       8.611   0.488   0.750  1.00  0.00    -0.022 A 
ATOM      7  C   UNL     1      11.189   0.286   1.902  1.00  0.00     0.161 A 
ATOM      8  C   UNL     1      10.115  -0.473   2.405  1.00  0.00     0.051 A 
ATOM      9  C   UNL     1      10.960   1.160   0.829  1.00  0.00     0.158 A 
ATOM     10  C   UNL     1       8.846  -0.376   1.835  1.00  0.00     0.012 A 
ATOM     11  C   UNL     1       9.681   1.259   0.260  1.00  0.00     0.058 A 
BRANCH   7  12
ATOM     12  O   UNL     1      12.445   0.210   2.420  1.00  0.00    -0.488 OA
BRANCH  12  13
ATOM     13  C   UNL     1      12.909  -0.693   3.363  1.00  0.00     0.244 C 
BRANCH  13  14
ATOM     14  C   UNL     1      12.977  -2.121   2.801  1.00  0.00     0.119 C 
BRANCH  14  15
ATOM     15  N   UNL     1      13.846  -2.174   1.630  1.00  0.00    -0.327 NA
ATOM     16  H   UNL     1      13.854  -3.156   1.269  1.00  0.00     0.119 HD
ATOM     17  H   UNL     1      14.823  -1.934   1.918  1.00  0.00     0.119 HD
ENDBRANCH  14  15
ENDBRANCH  13  14
ENDBRANCH  12  13
ENDBRANCH   7  12
BRANCH   9  18
ATOM     18  O   UNL     1      11.980   1.898   0.343  1.00  0.00    -0.504 OA
ATOM     19  H   UNL     1      11.868   2.510  -0.398  1.00  0.00     0.293 HD
ENDBRANCH   9  18
ENDBRANCH   5   6
ENDBRANCH   2   4
ENDBRANCH   1   2
BRANCH   1  20
ATOM     20  O   UNL     1       2.678  -0.866  -0.902  1.00  0.00    -0.355 OA
BRANCH  20  21
ATOM     21  C   UNL     1       1.810   0.283  -0.947  1.00  0.00     0.173 C 
ATOM     22  C   UNL     1       2.074   0.987  -2.349  1.00  0.00     0.082 C 
ATOM     23  C   UNL     1       0.372  -0.334  -0.952  1.00  0.00     0.065 C 
ATOM     24  C   UNL     1       0.951   0.861  -3.431  1.00  0.00     0.149 C 
ATOM     25  C   UNL     1      -0.236  -0.877   0.380  1.00  0.00     0.013 C 
ATOM     26  C   UNL     1      -0.705   0.511  -1.635  1.00  0.00     0.157 C 
ATOM     27  C   UNL     1      -0.365   1.379  -2.821  1.00  0.00     0.176 C 
ATOM     28  C   UNL     1      -1.782  -1.057   0.187  1.00  0.00     0.044 C 
ATOM     29  O   UNL     1      -1.450   1.238  -0.688  1.00  0.00    -0.360 OA
ATOM     30  C   UNL     1      -2.422   0.386  -0.113  1.00  0.00     0.131 C 
BRANCH  21  31
ATOM     31  C   UNL     1       1.925   1.344   0.193  1.00  0.00     0.336 C 
ATOM     32  O   UNL     1       2.696   1.217   1.127  1.00  0.00    -0.249 OA
BRANCH  31  33
ATOM     33  O   UNL     1       1.166   2.461   0.192  1.00  0.00    -0.479 OA
ATOM     34  H   UNL     1       0.551   2.692  -0.508  1.00  0.00     0.296 HD
ENDBRANCH  31  33
ENDBRANCH  21  31
BRANCH  24  35
ATOM     35  O   UNL     1       0.804  -0.465  -3.874  1.00  0.00    -0.390 OA
ATOM     36  H   UNL     1       1.663  -0.726  -4.296  1.00  0.00     0.211 HD
ENDBRANCH  24  35
BRANCH  27  37
ATOM     37  O   UNL     1      -1.436   1.317  -3.751  1.00  0.00    -0.373 OA
BRANCH  37  38
ATOM     38  C   UNL     1      -2.686   1.760  -3.207  1.00  0.00     0.164 CG0
ATOM     39  G   UNL     1      -3.614   0.594  -2.643  1.00  0.00     0.000 G0
ENDBRANCH  37  38
ENDBRANCH  27  37
BRANCH  30  40
ATOM     40  C   UNL     1      -3.688   0.504  -1.052  1.00  0.00     0.050 C 
BRANCH  40  41
ATOM     41  C   UNL     1      -3.614   0.594  -2.643  1.00  0.00     0.018 CG0
ATOM     42  G   UNL     1      -2.686   1.760  -3.207  1.00  0.00     0.000 G0
BRANCH  41  43
ATOM     43  C   UNL     1      -5.063   0.875  -3.151  1.00  0.00     0.011 C 
BRANCH  43  44
ATOM     44  C   UNL     1      -6.045  -0.304  -3.007  1.00  0.00     0.036 C 
BRANCH  44  45
ATOM     45  C   UNL     1      -7.433   0.137  -3.397  1.00  0.00    -0.048 A 
ATOM     46  C   UNL     1      -8.041  -0.329  -4.574  1.00  0.00     0.004 A 
ATOM     47  C   UNL     1      -8.135   1.032  -2.568  1.00  0.00     0.004 A 
ATOM     48  C   UNL     1      -9.327   0.103  -4.919  1.00  0.00     0.000 A 
ATOM     49  C   UNL     1      -9.422   1.452  -2.912  1.00  0.00     0.000 A 
ATOM     50  C   UNL     1     -10.017   0.990  -4.088  1.00  0.00     0.000 A 
ENDBRANCH  44  45
ENDBRANCH  43  44
ENDBRANCH  41  43
ENDBRANCH  40  41
ENDBRANCH  30  40
BRANCH  30  51
ATOM     51  C   UNL     1      -2.818   0.992   1.246  1.00  0.00     0.187 C 
ATOM     52  O   UNL     1      -2.236   2.001   1.619  1.00  0.00    -0.292 OA
BRANCH  51  53
ATOM     53  C   UNL     1      -3.946   0.505   2.112  1.00  0.00     0.051 C 
ATOM     54  C   UNL     1      -4.637  -0.640   1.918  1.00  0.00     0.012 C 
BRANCH  54  55
ATOM     55  C   UNL     1      -5.811  -1.202   2.680  1.00  0.00    -0.016 A 
ATOM     56  C   UNL     1      -6.176  -2.512   2.292  1.00  0.00     0.058 A 
ATOM     57  C   UNL     1      -6.599  -0.560   3.691  1.00  0.00    -0.011 A 
ATOM     58  C   UNL     1      -7.262  -3.181   2.865  1.00  0.00     0.158 A 
ATOM     59  C   UNL     1      -7.699  -1.250   4.243  1.00  0.00     0.057 A 
ATOM     60  C   UNL     1      -8.028  -2.544   3.843  1.00  0.00     0.157 A 
BRANCH  57  61
ATOM     61  C   UNL     1      -6.361   0.836   4.218  1.00  0.00     0.192 C 
BRANCH  61  62
ATOM     62  O   UNL     1      -5.180   0.885   4.971  1.00  0.00    -0.392 OA
ATOM     63  H   UNL     1      -5.382   0.461   5.846  1.00  0.00     0.211 HD
ENDBRANCH  61  62
ENDBRANCH  57  61
BRANCH  58  64
ATOM     64  O   UNL     1      -7.572  -4.435   2.472  1.00  0.00    -0.504 OA
ATOM     65  H   UNL     1      -7.060  -4.909   1.801  1.00  0.00     0.293 HD
ENDBRANCH  58  64
BRANCH  60  66
ATOM     66  O   UNL     1      -9.088  -3.157   4.414  1.00  0.00    -0.504 OA
ATOM     67  H   UNL     1      -9.364  -4.054   4.177  1.00  0.00     0.293 HD
ENDBRANCH  60  66
ENDBRANCH  54  55
ENDBRANCH  51  53
ENDBRANCH  30  51
ENDBRANCH  20  21
ENDBRANCH   1  20
TORSDOF 23
