REMARK SMILES CC[C](C)CC[C]CCCCCCCC(=O)OC[C@H](COC(=O)CCCCCCCCCCCC[C](C)CC)OC(=O)CCCCCCCCCCCCCCCCC(C)C
REMARK SMILES IDX 40 1 19 2 20 3 21 4 22 5 23 6 24 7 25 8 26 9 27 10 28 11
REMARK SMILES IDX 29 12 30 13 31 14 32 15 33 16 34 17 35 18 36 19 37 20 38 21
REMARK SMILES IDX 39 22 18 23 17 24 15 25 16 26 14 27 13 28 12 29 11 30 10 31
REMARK SMILES IDX 9 32 8 33 7 34 6 35 5 36 3 37 4 38 2 39 1 40 41 41 42 42
REMARK SMILES IDX 43 43 44 44 45 45 46 46 47 47 48 48 49 49 50 50 51 51 52 52
REMARK SMILES IDX 53 53 54 54 55 55 56 56 57 57 58 58 59 59 60 60 61 61
REMARK H PARENT
ROOT
ATOM      1  O   UNL     1      -4.312  -0.647   1.011  1.00  0.00    -0.455 OA
ENDROOT
BRANCH   1   2
ATOM      2  C   UNL     1      -3.588  -1.574   0.280  1.00  0.00     0.251 C 
BRANCH   2   3
ATOM      3  C   UNL     1      -1.937  -1.352   0.493  1.00  0.00     0.281 C 
BRANCH   3   4
ATOM      4  O   UNL     1      -1.236  -0.089   0.214  1.00  0.00    -0.462 OA
BRANCH   4   5
ATOM      5  C   UNL     1       0.191   0.142   0.269  1.00  0.00     0.305 C 
ATOM      6  O   UNL     1       0.909  -0.829   0.449  1.00  0.00    -0.252 OA
BRANCH   5   7
ATOM      7  C   UNL     1       0.973   1.579   0.113  1.00  0.00     0.123 C 
BRANCH   7   8
ATOM      8  C   UNL     1       2.645   1.687   0.129  1.00  0.00     0.012 C 
BRANCH   8   9
ATOM      9  C   UNL     1       3.536   3.112   0.051  1.00  0.00     0.001 C 
BRANCH   9  10
ATOM     10  C   UNL     1       5.196   3.000   0.000  1.00  0.00     0.000 C 
BRANCH  10  11
ATOM     11  C   UNL     1       6.495   3.750   0.000  1.00  0.00     0.000 C 
BRANCH  11  12
ATOM     12  C   UNL     1       7.794   4.500   0.000  1.00  0.00     0.000 C 
BRANCH  12  13
ATOM     13  C   UNL     1       9.093   5.250   0.000  1.00  0.00     0.000 C 
BRANCH  13  14
ATOM     14  C   UNL     1      10.392   6.000   0.000  1.00  0.00     0.000 C 
BRANCH  14  15
ATOM     15  C   UNL     1      11.691   6.750   0.000  1.00  0.00     0.000 C 
BRANCH  15  16
ATOM     16  C   UNL     1      13.304   6.957  -0.049  1.00  0.00     0.000 C 
BRANCH  16  17
ATOM     17  C   UNL     1      13.897   8.521  -0.005  1.00  0.00     0.001 C 
BRANCH  17  18
ATOM     18  C   UNL     1      15.517   8.658  -0.023  1.00  0.00     0.007 C 
BRANCH  18  19
ATOM     19  C   UNL     1      16.887   9.750   0.000  1.00  0.00    -0.027 C 
ATOM     20  C   UNL     1      16.137  11.049   0.000  1.00  0.00     0.012 C 
BRANCH  19  21
ATOM     21  C   UNL     1      17.637   8.451   0.000  1.00  0.00     0.004 C 
ATOM     22  C   UNL     1      18.387   7.152   0.000  1.00  0.00     0.004 C 
ENDBRANCH  19  21
ENDBRANCH  18  19
ENDBRANCH  17  18
ENDBRANCH  16  17
ENDBRANCH  15  16
ENDBRANCH  14  15
ENDBRANCH  13  14
ENDBRANCH  12  13
ENDBRANCH  11  12
ENDBRANCH  10  11
ENDBRANCH   9  10
ENDBRANCH   8   9
ENDBRANCH   7   8
ENDBRANCH   5   7
ENDBRANCH   4   5
ENDBRANCH   3   4
ENDBRANCH   2   3
BRANCH   2  23
ATOM     23  C   UNL     1      -4.209  -3.050   0.687  1.00  0.00     0.281 C 
BRANCH  23  24
ATOM     24  O   UNL     1      -5.652  -3.284   0.802  1.00  0.00    -0.462 OA
BRANCH  24  25
ATOM     25  C   UNL     1      -6.426  -4.379   0.305  1.00  0.00     0.305 C 
ATOM     26  O   UNL     1      -5.964  -5.008  -0.634  1.00  0.00    -0.252 OA
BRANCH  25  27
ATOM     27  C   UNL     1      -7.793  -5.003   0.960  1.00  0.00     0.123 C 
BRANCH  27  28
ATOM     28  C   UNL     1      -9.093  -5.250   0.000  1.00  0.00     0.012 C 
BRANCH  28  29
ATOM     29  C   UNL     1     -10.392  -6.000   0.000  1.00  0.00     0.001 C 
BRANCH  29  30
ATOM     30  C   UNL     1     -11.691  -6.750   0.000  1.00  0.00     0.000 C 
BRANCH  30  31
ATOM     31  C   UNL     1     -13.341  -7.067  -0.026  1.00  0.00     0.000 C 
BRANCH  31  32
ATOM     32  C   UNL     1     -13.943  -8.657   0.021  1.00  0.00     0.001 C 
BRANCH  32  33
ATOM     33  C   UNL     1     -15.588  -9.000   0.000  1.00  0.00     0.008 C 
BRANCH  33  34
ATOM     34  C   UNL     1     -16.887  -9.750   0.000  1.00  0.00    -0.017 C 
BRANCH  34  35
ATOM     35  C   UNL     1     -18.186 -10.500   0.000  1.00  0.00     0.009 C 
BRANCH  35  36
ATOM     36  C   UNL     1     -19.486 -11.250   0.000  1.00  0.00     0.008 C 
BRANCH  36  37
ATOM     37  C   UNL     1     -20.785 -12.000   0.000  1.00  0.00    -0.027 C 
ATOM     38  C   UNL     1     -22.084 -12.750   0.000  1.00  0.00     0.012 C 
BRANCH  37  39
ATOM     39  C   UNL     1     -21.535 -10.701   0.000  1.00  0.00     0.004 C 
ATOM     40  C   UNL     1     -22.285  -9.402   0.000  1.00  0.00     0.004 C 
ENDBRANCH  37  39
ENDBRANCH  36  37
ENDBRANCH  35  36
ENDBRANCH  34  35
ENDBRANCH  33  34
ENDBRANCH  32  33
ENDBRANCH  31  32
ENDBRANCH  30  31
ENDBRANCH  29  30
ENDBRANCH  28  29
ENDBRANCH  27  28
ENDBRANCH  25  27
ENDBRANCH  24  25
ENDBRANCH  23  24
ENDBRANCH   2  23
ENDBRANCH   1   2
BRANCH   1  41
ATOM     41  C   UNL     1      -5.285   0.166   0.500  1.00  0.00     0.306 C 
ATOM     42  O   UNL     1      -5.496   0.215  -0.704  1.00  0.00    -0.252 OA
BRANCH  41  43
ATOM     43  C   UNL     1      -6.095   1.010   1.451  1.00  0.00     0.123 C 
BRANCH  43  44
ATOM     44  C   UNL     1      -7.063   2.002   0.757  1.00  0.00     0.012 C 
BRANCH  44  45
ATOM     45  C   UNL     1      -7.653   2.989   1.792  1.00  0.00     0.001 C 
BRANCH  45  46
ATOM     46  C   UNL     1      -8.059   4.348   1.196  1.00  0.00     0.000 C 
BRANCH  46  47
ATOM     47  C   UNL     1      -9.503   4.700   0.690  1.00  0.00     0.000 C 
BRANCH  47  48
ATOM     48  C   UNL     1      -9.348   6.093   0.000  1.00  0.00     0.000 C 
BRANCH  48  49
ATOM     49  C   UNL     1     -10.098   7.392   0.000  1.00  0.00     0.000 C 
BRANCH  49  50
ATOM     50  C   UNL     1     -10.848   8.691   0.000  1.00  0.00     0.000 C 
BRANCH  50  51
ATOM     51  C   UNL     1     -11.341  10.232  -0.461  1.00  0.00     0.000 C 
BRANCH  51  52
ATOM     52  C   UNL     1     -12.744  10.954   0.189  1.00  0.00     0.000 C 
BRANCH  52  53
ATOM     53  C   UNL     1     -13.098  12.588   0.000  1.00  0.00     0.000 C 
BRANCH  53  54
ATOM     54  C   UNL     1     -13.848  13.887   0.000  1.00  0.00     0.000 C 
BRANCH  54  55
ATOM     55  C   UNL     1     -14.598  15.187   0.000  1.00  0.00     0.000 C 
BRANCH  55  56
ATOM     56  C   UNL     1     -15.348  16.486   0.000  1.00  0.00     0.000 C 
BRANCH  56  57
ATOM     57  C   UNL     1     -16.098  17.785   0.000  1.00  0.00     0.000 C 
BRANCH  57  58
ATOM     58  C   UNL     1     -16.848  19.084   0.000  1.00  0.00     0.003 C 
BRANCH  58  59
ATOM     59  C   UNL     1     -17.598  20.383   0.000  1.00  0.00    -0.017 C 
ATOM     60  C   UNL     1     -18.348  21.682   0.000  1.00  0.00     0.007 C 
ATOM     61  C   UNL     1     -18.897  19.633   0.000  1.00  0.00     0.007 C 
ENDBRANCH  58  59
ENDBRANCH  57  58
ENDBRANCH  56  57
ENDBRANCH  55  56
ENDBRANCH  54  55
ENDBRANCH  53  54
ENDBRANCH  52  53
ENDBRANCH  51  52
ENDBRANCH  50  51
ENDBRANCH  49  50
ENDBRANCH  48  49
ENDBRANCH  47  48
ENDBRANCH  46  47
ENDBRANCH  45  46
ENDBRANCH  44  45
ENDBRANCH  43  44
ENDBRANCH  41  43
ENDBRANCH   1  41
TORSDOF 51
