REMARK SMILES CC[C]CCCC[C]CC[C]CC(=O)OC[C@H](COC(=O)CCCCC/C=C\C/C=C\C/C=C\C/C=C\C/C=C\CC)OC(=O)C[C]CC[C]CCCC/C=C\C/C=C\CCCCC
REMARK SMILES IDX 17 1 18 2 19 3 20 4 21 5 22 6 23 7 24 8 25 9 26 10 27 11
REMARK SMILES IDX 28 12 29 13 30 14 31 15 32 16 33 17 34 18 35 19 36 20 37 21
REMARK SMILES IDX 38 22 39 23 40 24 41 25 42 26 16 27 15 28 13 29 14 30 12 31
REMARK SMILES IDX 11 32 10 33 9 34 8 35 7 36 6 37 5 38 4 39 3 40 2 41 1 42
REMARK SMILES IDX 43 43 44 44 45 45 46 46 47 47 48 48 49 49 50 50 51 51 52 52
REMARK SMILES IDX 53 53 54 54 55 55 56 56 57 57 58 58 59 59 60 60 61 61 62 62
REMARK SMILES IDX 63 63 64 64
REMARK H PARENT
ROOT
ATOM      1  C   UNL     1      18.750 -11.691   0.000  1.00  0.00     0.251 C 
ENDROOT
BRANCH   1   2
ATOM      2  C   UNL     1      18.000 -10.392   0.000  1.00  0.00     0.281 C 
BRANCH   2   3
ATOM      3  O   UNL     1      17.250  -9.093   0.000  1.00  0.00    -0.462 OA
BRANCH   3   4
ATOM      4  C   UNL     1      18.000  -7.794   0.000  1.00  0.00     0.305 C 
ATOM      5  O   UNL     1      19.225  -7.804   0.050  1.00  0.00    -0.252 OA
BRANCH   4   6
ATOM      6  C   UNL     1      17.250  -6.495   0.000  1.00  0.00     0.123 C 
BRANCH   6   7
ATOM      7  C   UNL     1      16.500  -5.196   0.000  1.00  0.00     0.012 C 
BRANCH   7   8
ATOM      8  C   UNL     1      17.004  -3.767   0.256  1.00  0.00     0.001 C 
BRANCH   8   9
ATOM      9  C   UNL     1      15.801  -2.848  -0.111  1.00  0.00     0.004 C 
BRANCH   9  10
ATOM     10  C   UNL     1      15.904  -1.376   0.288  1.00  0.00     0.027 C 
BRANCH  10  11
ATOM     11  C   UNL     1      14.834  -0.549  -0.411  1.00  0.00    -0.031 C 
ATOM     12  C   UNL     1      13.484  -0.640  -0.307  1.00  0.00    -0.027 C 
BRANCH  12  13
ATOM     13  C   UNL     1      12.672  -1.558   0.575  1.00  0.00     0.054 C 
BRANCH  13  14
ATOM     14  C   UNL     1      11.955  -2.575  -0.289  1.00  0.00    -0.027 C 
ATOM     15  C   UNL     1      10.643  -2.784  -0.582  1.00  0.00    -0.027 C 
BRANCH  15  16
ATOM     16  C   UNL     1       9.316  -2.097  -0.260  1.00  0.00     0.054 C 
BRANCH  16  17
ATOM     17  C   UNL     1       9.264  -0.770   0.452  1.00  0.00    -0.027 C 
ATOM     18  C   UNL     1       8.119  -0.081   0.650  1.00  0.00    -0.027 C 
BRANCH  18  19
ATOM     19  C   UNL     1       6.733  -0.506   0.203  1.00  0.00     0.054 C 
BRANCH  19  20
ATOM     20  C   UNL     1       6.212  -1.718   0.935  1.00  0.00    -0.027 C 
ATOM     21  C   UNL     1       5.015  -2.303   0.704  1.00  0.00    -0.027 C 
BRANCH  21  22
ATOM     22  C   UNL     1       3.977  -1.872  -0.314  1.00  0.00     0.054 C 
BRANCH  22  23
ATOM     23  C   UNL     1       3.314  -0.555   0.034  1.00  0.00    -0.027 C 
ATOM     24  C   UNL     1       2.011  -0.267   0.286  1.00  0.00    -0.031 C 
BRANCH  24  25
ATOM     25  C   UNL     1       0.741  -1.104   0.329  1.00  0.00     0.023 C 
ATOM     26  C   UNL     1       0.806  -2.596   0.040  1.00  0.00     0.008 C 
ENDBRANCH  24  25
ENDBRANCH  22  23
ENDBRANCH  21  22
ENDBRANCH  19  20
ENDBRANCH  18  19
ENDBRANCH  16  17
ENDBRANCH  15  16
ENDBRANCH  13  14
ENDBRANCH  12  13
ENDBRANCH  10  11
ENDBRANCH   9  10
ENDBRANCH   8   9
ENDBRANCH   7   8
ENDBRANCH   6   7
ENDBRANCH   4   6
ENDBRANCH   3   4
ENDBRANCH   2   3
ENDBRANCH   1   2
BRANCH   1  27
ATOM     27  C   UNL     1      20.333 -11.046   0.239  1.00  0.00     0.281 C 
BRANCH  27  28
ATOM     28  O   UNL     1      21.543 -11.736  -0.131  1.00  0.00    -0.462 OA
BRANCH  28  29
ATOM     29  C   UNL     1      22.974 -11.507  -0.202  1.00  0.00     0.306 C 
ATOM     30  O   UNL     1      23.607 -12.509  -0.509  1.00  0.00    -0.252 OA
BRANCH  29  31
ATOM     31  C   UNL     1      23.946 -10.191   0.000  1.00  0.00     0.131 C 
BRANCH  31  32
ATOM     32  C   UNL     1      25.245  -9.441   0.000  1.00  0.00    -0.006 C 
BRANCH  32  33
ATOM     33  C   UNL     1      26.544  -8.691   0.000  1.00  0.00     0.009 C 
BRANCH  33  34
ATOM     34  C   UNL     1      27.843  -7.941   0.000  1.00  0.00     0.009 C 
BRANCH  34  35
ATOM     35  C   UNL     1      29.142  -7.191   0.000  1.00  0.00    -0.017 C 
BRANCH  35  36
ATOM     36  C   UNL     1      30.441  -6.441   0.000  1.00  0.00     0.008 C 
BRANCH  36  37
ATOM     37  C   UNL     1      32.089  -6.111  -0.002  1.00  0.00     0.001 C 
BRANCH  37  38
ATOM     38  C   UNL     1      32.691  -4.522   0.002  1.00  0.00     0.001 C 
BRANCH  38  39
ATOM     39  C   UNL     1      34.339  -4.191   0.000  1.00  0.00     0.008 C 
BRANCH  39  40
ATOM     40  C   UNL     1      35.638  -3.441   0.000  1.00  0.00    -0.018 C 
BRANCH  40  41
ATOM     41  C   UNL     1      36.937  -2.691   0.000  1.00  0.00     0.005 C 
ATOM     42  C   UNL     1      38.236  -1.941   0.000  1.00  0.00     0.004 C 
ENDBRANCH  40  41
ENDBRANCH  39  40
ENDBRANCH  38  39
ENDBRANCH  37  38
ENDBRANCH  36  37
ENDBRANCH  35  36
ENDBRANCH  34  35
ENDBRANCH  33  34
ENDBRANCH  32  33
ENDBRANCH  31  32
ENDBRANCH  29  31
ENDBRANCH  28  29
ENDBRANCH  27  28
ENDBRANCH   1  27
BRANCH   1  43
ATOM     43  O   UNL     1      18.691 -13.005   0.620  1.00  0.00    -0.455 OA
BRANCH  43  44
ATOM     44  C   UNL     1      18.608 -14.218  -0.122  1.00  0.00     0.306 C 
ATOM     45  O   UNL     1      17.805 -14.218  -1.047  1.00  0.00    -0.252 OA
BRANCH  44  46
ATOM     46  C   UNL     1      19.500 -15.588   0.000  1.00  0.00     0.131 C 
BRANCH  46  47
ATOM     47  C   UNL     1      20.250 -16.887   0.000  1.00  0.00    -0.006 C 
BRANCH  47  48
ATOM     48  C   UNL     1      21.000 -18.186   0.000  1.00  0.00     0.009 C 
BRANCH  48  49
ATOM     49  C   UNL     1      21.750 -19.486   0.000  1.00  0.00     0.009 C 
BRANCH  49  50
ATOM     50  C   UNL     1      22.500 -20.785   0.000  1.00  0.00    -0.017 C 
BRANCH  50  51
ATOM     51  C   UNL     1      23.250 -22.084   0.000  1.00  0.00     0.008 C 
BRANCH  51  52
ATOM     52  C   UNL     1      24.177 -22.337   1.189  1.00  0.00     0.001 C 
BRANCH  52  53
ATOM     53  C   UNL     1      24.801 -23.742   1.036  1.00  0.00     0.004 C 
BRANCH  53  54
ATOM     54  C   UNL     1      25.857 -24.049   2.100  1.00  0.00     0.027 C 
BRANCH  54  55
ATOM     55  C   UNL     1      26.377 -25.462   1.919  1.00  0.00    -0.031 C 
ATOM     56  C   UNL     1      27.604 -25.829   1.488  1.00  0.00    -0.027 C 
BRANCH  56  57
ATOM     57  C   UNL     1      28.709 -24.907   1.032  1.00  0.00     0.054 C 
BRANCH  57  58
ATOM     58  C   UNL     1      29.972 -25.082   1.853  1.00  0.00    -0.027 C 
ATOM     59  C   UNL     1      31.183 -25.501   1.407  1.00  0.00    -0.031 C 
BRANCH  59  60
ATOM     60  C   UNL     1      31.500 -25.981   0.000  1.00  0.00     0.027 C 
BRANCH  60  61
ATOM     61  C   UNL     1      32.250 -27.280   0.000  1.00  0.00     0.004 C 
BRANCH  61  62
ATOM     62  C   UNL     1      33.000 -28.579   0.000  1.00  0.00     0.000 C 
BRANCH  62  63
ATOM     63  C   UNL     1      33.750 -29.878   0.000  1.00  0.00    -0.003 C 
ATOM     64  C   UNL     1      34.500 -31.177   0.000  1.00  0.00     0.004 C 
ENDBRANCH  62  63
ENDBRANCH  61  62
ENDBRANCH  60  61
ENDBRANCH  59  60
ENDBRANCH  57  58
ENDBRANCH  56  57
ENDBRANCH  54  55
ENDBRANCH  53  54
ENDBRANCH  52  53
ENDBRANCH  51  52
ENDBRANCH  50  51
ENDBRANCH  49  50
ENDBRANCH  48  49
ENDBRANCH  47  48
ENDBRANCH  46  47
ENDBRANCH  44  46
ENDBRANCH  43  44
ENDBRANCH   1  43
TORSDOF 50
