REMARK SMILES CCCCCCCCCCC[C@H](CCC[C@H](CC(=O)O[C@@H](CO)COC(C)=O)OC(C)=O)OC(C)=O
REMARK SMILES IDX 12 1 11 2 10 3 9 4 8 5 7 6 6 7 5 8 4 9 3 10 2 11 1 12 13 13
REMARK SMILES IDX 14 14 15 15 16 16 17 17 18 18 19 19 20 20 21 21 22 22 23 23
REMARK SMILES IDX 24 25 25 26 26 27 28 28 27 29 29 30 30 31 32 32 31 33 33 34
REMARK SMILES IDX 34 35 36 36 35 37
REMARK H PARENT 23 24
ROOT
ATOM      1  C   UNL     1       0.495  -1.006  -1.359  1.00  0.00     0.176 C 
ENDROOT
BRANCH   1   2
ATOM      2  C   UNL     1       1.512   0.124  -1.101  1.00  0.00     0.045 C 
BRANCH   2   3
ATOM      3  C   UNL     1       2.854  -0.369  -0.539  1.00  0.00     0.004 C 
BRANCH   3   4
ATOM      4  C   UNL     1       3.617  -1.348  -1.450  1.00  0.00     0.000 C 
BRANCH   4   5
ATOM      5  C   UNL     1       3.920  -0.808  -2.860  1.00  0.00     0.000 C 
BRANCH   5   6
ATOM      6  C   UNL     1       4.611   0.571  -2.983  1.00  0.00     0.000 C 
BRANCH   6   7
ATOM      7  C   UNL     1       6.069   0.690  -2.500  1.00  0.00    -0.000 C 
BRANCH   7   8
ATOM      8  C   UNL     1       6.243   0.737  -0.976  1.00  0.00    -0.000 C 
BRANCH   8   9
ATOM      9  C   UNL     1       7.703   0.984  -0.592  1.00  0.00    -0.000 C 
BRANCH   9  10
ATOM     10  C   UNL     1       7.861   0.988   0.933  1.00  0.00    -0.000 C 
BRANCH  10  11
ATOM     11  C   UNL     1       9.316   1.238   1.333  1.00  0.00    -0.003 C 
ATOM     12  C   UNL     1       9.473   1.226   2.851  1.00  0.00     0.004 C 
ENDBRANCH  10  11
ENDBRANCH   9  10
ENDBRANCH   8   9
ENDBRANCH   7   8
ENDBRANCH   6   7
ENDBRANCH   5   6
ENDBRANCH   4   5
ENDBRANCH   3   4
ENDBRANCH   2   3
ENDBRANCH   1   2
BRANCH   1  13
ATOM     13  C   UNL     1      -0.820  -0.451  -1.953  1.00  0.00     0.045 C 
BRANCH  13  14
ATOM     14  C   UNL     1      -1.543   0.615  -1.099  1.00  0.00     0.008 C 
BRANCH  14  15
ATOM     15  C   UNL     1      -2.040   0.126   0.279  1.00  0.00     0.046 C 
BRANCH  15  16
ATOM     16  C   UNL     1      -3.098  -1.012   0.211  1.00  0.00     0.187 C 
BRANCH  16  17
ATOM     17  C   UNL     1      -4.370  -0.596  -0.561  1.00  0.00     0.167 C 
BRANCH  17  18
ATOM     18  C   UNL     1      -5.113   0.555   0.072  1.00  0.00     0.310 C 
ATOM     19  O   UNL     1      -4.771   0.997   1.162  1.00  0.00    -0.252 OA
BRANCH  18  20
ATOM     20  O   UNL     1      -6.169   1.100  -0.583  1.00  0.00    -0.456 OA
BRANCH  20  21
ATOM     21  C   UNL     1      -6.862   2.214  -0.140  1.00  0.00     0.239 C 
BRANCH  21  22
ATOM     22  C   UNL     1      -6.740   3.340  -1.176  1.00  0.00     0.205 C 
BRANCH  22  23
ATOM     23  O   UNL     1      -7.304   2.969  -2.405  1.00  0.00    -0.392 OA
ATOM     24  H   UNL     1      -6.649   2.373  -2.852  1.00  0.00     0.210 HD
ENDBRANCH  22  23
ENDBRANCH  21  22
BRANCH  21  25
ATOM     25  C   UNL     1      -8.325   1.832   0.133  1.00  0.00     0.280 C 
BRANCH  25  26
ATOM     26  O   UNL     1      -8.418   0.762   1.010  1.00  0.00    -0.462 OA
BRANCH  26  27
ATOM     27  C   UNL     1      -8.010   0.748   2.306  1.00  0.00     0.302 C 
ATOM     28  O   UNL     1      -7.519   1.738   2.828  1.00  0.00    -0.253 OA
ATOM     29  C   UNL     1      -8.170  -0.501   3.112  1.00  0.00     0.139 C 
ENDBRANCH  26  27
ENDBRANCH  25  26
ENDBRANCH  21  25
ENDBRANCH  20  21
ENDBRANCH  18  20
ENDBRANCH  17  18
ENDBRANCH  16  17
BRANCH  16  30
ATOM     30  O   UNL     1      -3.474  -1.377   1.495  1.00  0.00    -0.462 OA
BRANCH  30  31
ATOM     31  C   UNL     1      -3.426  -2.628   2.016  1.00  0.00     0.302 C 
ATOM     32  O   UNL     1      -2.975  -3.567   1.375  1.00  0.00    -0.253 OA
ATOM     33  C   UNL     1      -3.978  -2.873   3.382  1.00  0.00     0.139 C 
ENDBRANCH  30  31
ENDBRANCH  16  30
ENDBRANCH  15  16
ENDBRANCH  14  15
ENDBRANCH  13  14
ENDBRANCH   1  13
BRANCH   1  34
ATOM     34  O   UNL     1       0.252  -1.682  -0.175  1.00  0.00    -0.463 OA
BRANCH  34  35
ATOM     35  C   UNL     1       0.498  -2.992   0.073  1.00  0.00     0.302 C 
ATOM     36  O   UNL     1       0.902  -3.741  -0.806  1.00  0.00    -0.253 OA
ATOM     37  C   UNL     1       0.287  -3.526   1.454  1.00  0.00     0.139 C 
ENDBRANCH  34  35
ENDBRANCH   1  34
TORSDOF 27
