REMARK SMILES C[C@]12CCC(=NNC(N)=O)C[C@H]1CC[C@H]1[C@@H]2CC[C@]2(C)[C@H](C3=CC(=O)OC3)CC[C@]12O
REMARK SMILES IDX 1 1 2 2 3 3 4 4 5 5 6 6 11 7 12 8 13 9 14 10 15 11 16 12
REMARK SMILES IDX 17 13 18 14 19 15 20 16 21 17 28 18 29 19 30 20 31 21 7 23
REMARK SMILES IDX 8 24 9 25 10 26 22 30 23 31 27 32 24 33 26 34 25 35
REMARK H PARENT 31 22 7 27 9 28 9 29
ROOT
ATOM      1  C   UNL     1       1.624  -1.296  -0.894  1.00  0.00     0.012 C 
ATOM      2  C   UNL     1       1.567   0.020  -0.067  1.00  0.00    -0.026 C 
ATOM      3  C   UNL     1       2.245   1.168  -0.898  1.00  0.00     0.013 C 
ATOM      4  C   UNL     1       3.767   1.035  -0.996  1.00  0.00     0.054 C 
ATOM      5  C   UNL     1       4.374   0.865   0.382  1.00  0.00     0.039 C 
ATOM      6  N   UNL     1       5.643   0.683   0.558  1.00  0.00    -0.181 NA
ATOM      7  C   UNL     1       3.446   0.834   1.572  1.00  0.00     0.057 C 
ATOM      8  C   UNL     1       2.343  -0.212   1.313  1.00  0.00     0.001 C 
ATOM      9  C   UNL     1       1.419  -0.324   2.556  1.00  0.00     0.005 C 
ATOM     10  C   UNL     1       0.208  -1.196   2.231  1.00  0.00     0.007 C 
ATOM     11  C   UNL     1      -0.727  -0.464   1.223  1.00  0.00     0.025 C 
ATOM     12  C   UNL     1       0.080   0.442   0.219  1.00  0.00     0.001 C 
ATOM     13  C   UNL     1      -0.743   0.847  -1.028  1.00  0.00     0.005 C 
ATOM     14  C   UNL     1      -2.234   0.855  -0.709  1.00  0.00     0.010 C 
ATOM     15  C   UNL     1      -2.759  -0.603  -0.469  1.00  0.00     0.003 C 
ATOM     16  C   UNL     1      -2.851  -1.363  -1.826  1.00  0.00     0.015 C 
ATOM     17  C   UNL     1      -4.186  -0.583   0.179  1.00  0.00     0.028 C 
ATOM     18  C   UNL     1      -3.895  -0.704   1.671  1.00  0.00     0.012 C 
ATOM     19  C   UNL     1      -2.863  -1.827   1.662  1.00  0.00     0.037 C 
ATOM     20  C   UNL     1      -1.838  -1.385   0.581  1.00  0.00     0.074 C 
ENDROOT
BRANCH  20  21
ATOM     21  O   UNL     1      -1.222  -2.502  -0.021  1.00  0.00    -0.389 OA
ATOM     22  H   UNL     1      -1.080  -3.200   0.669  1.00  0.00     0.211 HD
ENDBRANCH  20  21
BRANCH   6  23
ATOM     23  N   UNL     1       6.564   0.711  -0.469  1.00  0.00    -0.229 N 
ATOM     24  C   UNL     1       7.842   0.306  -0.261  1.00  0.00     0.332 C 
ATOM     25  N   UNL     1       8.745   0.352  -1.270  1.00  0.00    -0.350 N 
ATOM     26  O   UNL     1       8.184  -0.109   0.837  1.00  0.00    -0.247 OA
ATOM     27  H   UNL     1       6.300   1.046  -1.407  1.00  0.00     0.195 HD
ATOM     28  H   UNL     1       8.478   0.703  -2.202  1.00  0.00     0.161 HD
ATOM     29  H   UNL     1       9.714   0.038  -1.119  1.00  0.00     0.161 HD
ENDBRANCH   6  23
BRANCH  17  30
ATOM     30  C   UNL     1      -5.127   0.541  -0.237  1.00  0.00    -0.022 C 
ATOM     31  C   UNL     1      -5.630   1.470   0.567  1.00  0.00     0.096 C 
ATOM     32  C   UNL     1      -5.666   0.752  -1.637  1.00  0.00     0.265 C 
ATOM     33  C   UNL     1      -6.478   2.292  -0.259  1.00  0.00     0.331 C 
ATOM     34  O   UNL     1      -6.489   1.856  -1.526  1.00  0.00    -0.458 OA
ATOM     35  O   UNL     1      -7.115   3.259   0.130  1.00  0.00    -0.247 OA
ENDBRANCH  17  30
TORSDOF 3
