REMARK SMILES COc1ccccc1OCCSc1nc2c(N)ncnc2[nH]1
REMARK SMILES IDX 10 1 9 2 8 3 3 4 4 5 5 6 7 7 6 8 2 9 1 10 11 11 12 12 13 13
REMARK SMILES IDX 14 14 22 15 15 16 21 17 16 18 20 19 18 20 19 21 17 23
REMARK H PARENT 22 22 17 24 17 25
ROOT
ATOM      1  C   UNL     1       0.814   0.671  -1.155  1.00  0.00     0.241 C 
ENDROOT
BRANCH   1   2
ATOM      2  O   UNL     1       1.830   0.767  -0.223  1.00  0.00    -0.489 OA
BRANCH   2   3
ATOM      3  C   UNL     1       3.008   0.086  -0.274  1.00  0.00     0.161 A 
ATOM      4  C   UNL     1       3.985   0.358   0.703  1.00  0.00     0.160 A 
ATOM      5  C   UNL     1       5.215  -0.334   0.666  1.00  0.00     0.050 A 
ATOM      6  C   UNL     1       5.464  -1.281  -0.328  1.00  0.00     0.004 A 
ATOM      7  C   UNL     1       3.277  -0.874  -1.274  1.00  0.00     0.050 A 
ATOM      8  C   UNL     1       4.498  -1.550  -1.296  1.00  0.00     0.004 A 
BRANCH   4   9
ATOM      9  O   UNL     1       3.709   1.290   1.654  1.00  0.00    -0.493 OA
ATOM     10  C   UNL     1       4.561   1.691   2.661  1.00  0.00     0.278 C 
ENDBRANCH   4   9
ENDBRANCH   2   3
ENDBRANCH   1   2
BRANCH   1  11
ATOM     11  C   UNL     1      -0.343   1.586  -0.770  1.00  0.00     0.119 C 
BRANCH  11  12
ATOM     12  S   UNL     1      -1.623   1.527  -2.077  1.00  0.00    -0.085 SA
BRANCH  12  13
ATOM     13  C   UNL     1      -2.859   0.603  -1.158  1.00  0.00     0.167 A 
ATOM     14  N   UNL     1      -4.151   1.013  -1.052  1.00  0.00    -0.217 NA
ATOM     15  N   UNL     1      -2.624  -0.581  -0.538  1.00  0.00    -0.317 N 
ATOM     16  C   UNL     1      -4.728   0.034  -0.332  1.00  0.00     0.151 A 
ATOM     17  C   UNL     1      -3.813  -0.914  -0.024  1.00  0.00     0.163 A 
ATOM     18  C   UNL     1      -6.046  -0.108   0.086  1.00  0.00     0.155 A 
ATOM     19  N   UNL     1      -4.120  -2.021   0.694  1.00  0.00    -0.217 NA
ATOM     20  N   UNL     1      -6.360  -1.224   0.811  1.00  0.00    -0.217 NA
ATOM     21  C   UNL     1      -5.413  -2.170   1.117  1.00  0.00     0.226 A 
ATOM     22  H   UNL     1      -1.730  -1.116  -0.478  1.00  0.00     0.170 HD
BRANCH  18  23
ATOM     23  N   UNL     1      -7.037   0.850  -0.229  1.00  0.00    -0.382 N 
ATOM     24  H   UNL     1      -6.806   1.687  -0.783  1.00  0.00     0.158 HD
ATOM     25  H   UNL     1      -8.008   0.711   0.086  1.00  0.00     0.158 HD
ENDBRANCH  18  23
ENDBRANCH  12  13
ENDBRANCH  11  12
ENDBRANCH   1  11
TORSDOF 7
