REMARK SMILES O=c1cc(O)cc2oc3cc4cc(O)c(O)cc4oc3c12
REMARK SMILES IDX 1 1 2 2 3 3 4 4 6 5 7 6 8 7 9 8 10 9 11 10 12 11 13 12 15 13
REMARK SMILES IDX 17 14 18 15 19 16 20 17 21 18 5 19 16 21 14 23
REMARK H PARENT 5 20 16 22 14 24
ROOT
ATOM      1  O   UNL     1      -2.096  -1.536  -2.257  1.00  0.00    -0.289 OA
ATOM      2  C   UNL     1      -2.687  -0.992  -1.341  1.00  0.00     0.197 A 
ATOM      3  C   UNL     1      -4.092  -1.008  -1.273  1.00  0.00     0.099 A 
ATOM      4  C   UNL     1      -4.769  -0.370  -0.200  1.00  0.00     0.123 A 
ATOM      5  C   UNL     1      -4.037   0.287   0.810  1.00  0.00     0.094 A 
ATOM      6  C   UNL     1      -2.647   0.289   0.720  1.00  0.00     0.146 A 
ATOM      7  O   UNL     1      -1.784   0.844   1.556  1.00  0.00    -0.452 OA
ATOM      8  C   UNL     1      -0.582   0.593   1.071  1.00  0.00     0.171 A 
ATOM      9  C   UNL     1       0.655   0.962   1.583  1.00  0.00     0.063 A 
ATOM     10  C   UNL     1       1.795   0.558   0.856  1.00  0.00     0.025 A 
ATOM     11  C   UNL     1       3.086   0.881   1.291  1.00  0.00     0.062 A 
ATOM     12  C   UNL     1       4.206   0.469   0.551  1.00  0.00     0.158 A 
ATOM     13  C   UNL     1       4.032  -0.274  -0.634  1.00  0.00     0.161 A 
ATOM     14  C   UNL     1       2.744  -0.601  -1.073  1.00  0.00     0.097 A 
ATOM     15  C   UNL     1       1.623  -0.196  -0.346  1.00  0.00     0.139 A 
ATOM     16  O   UNL     1       0.400  -0.516  -0.780  1.00  0.00    -0.452 OA
ATOM     17  C   UNL     1      -0.664  -0.132  -0.091  1.00  0.00     0.184 A 
ATOM     18  C   UNL     1      -1.996  -0.333  -0.326  1.00  0.00     0.111 A 
ENDROOT
BRANCH   4  19
ATOM     19  O   UNL     1      -6.115  -0.385  -0.135  1.00  0.00    -0.508 OA
ATOM     20  H   UNL     1      -6.656  -0.825  -0.806  1.00  0.00     0.293 HD
ENDBRANCH   4  19
BRANCH  13  21
ATOM     21  O   UNL     1       5.091  -0.684  -1.364  1.00  0.00    -0.504 OA
ATOM     22  H   UNL     1       6.006  -0.491  -1.115  1.00  0.00     0.293 HD
ENDBRANCH  13  21
BRANCH  12  23
ATOM     23  O   UNL     1       5.450   0.782   0.972  1.00  0.00    -0.504 OA
ATOM     24  H   UNL     1       5.609   1.290   1.780  1.00  0.00     0.293 HD
ENDBRANCH  12  23
TORSDOF 3
