REMARK SMILES CC1(C)CC[C@]2(C(=O)O[C@@H]3O[C@H](CO)[C@@H](O)[C@H](O)[C@H]3O)CC[C@]3(CO)C(=CC[C@@H]4[C@@]5(C)CC[C@H](O[C@@H]6OC[C@H](O)[C@H](O[C@@H]7O[C@H](CO)[C@@H](O)[C@H](O)[C@H]7O)[C@H]6O[C@@H]6O[C@H](CO)[C@@H](O)[C@H](O)[C@H]6O)C(C)(C)[C@@H]5CC[C@]43C)[C@@H]2C1
REMARK SMILES IDX 1 1 2 2 3 3 4 4 5 5 6 6 21 7 22 8 23 9 26 10 27 11 28 12
REMARK SMILES IDX 29 13 30 14 31 15 32 16 33 17 34 18 67 19 68 20 69 21 70 22
REMARK SMILES IDX 71 23 72 24 73 25 74 26 75 27 76 28 7 29 8 30 9 31 10 32
REMARK SMILES IDX 11 33 19 34 12 35 17 36 15 37 20 38 13 40 14 41 18 43 16 45
REMARK SMILES IDX 24 47 25 48 35 50 36 51 37 52 54 53 38 54 41 55 39 56 55 57
REMARK SMILES IDX 56 58 57 59 65 60 58 61 63 62 61 63 66 64 59 66 60 67 64 69
REMARK SMILES IDX 62 71 42 73 43 74 44 75 52 76 45 77 50 78 48 79 53 80 46 82
REMARK SMILES IDX 47 83 51 85 49 87 40 89
REMARK H PARENT 20 39 14 42 18 44 16 46 25 49 66 65 60 68 64 70 62 72 53 81
REMARK H PARENT 47 84 51 86 49 88 40 90
ROOT
ATOM      1  C   UNL     1       8.016  -4.150  -1.718  1.00  0.00     0.011 C 
ATOM      2  C   UNL     1       7.617  -2.708  -2.106  1.00  0.00    -0.035 C 
ATOM      3  C   UNL     1       7.880  -2.525  -3.616  1.00  0.00     0.011 C 
ATOM      4  C   UNL     1       8.494  -1.680  -1.323  1.00  0.00     0.007 C 
ATOM      5  C   UNL     1       7.776  -1.179  -0.071  1.00  0.00     0.020 C 
ATOM      6  C   UNL     1       6.518  -0.318  -0.470  1.00  0.00     0.075 C 
ATOM      7  C   UNL     1       5.733  -0.029   0.838  1.00  0.00     0.020 C 
ATOM      8  C   UNL     1       4.292   0.439   0.570  1.00  0.00     0.015 C 
ATOM      9  C   UNL     1       3.439  -0.661  -0.144  1.00  0.00     0.020 C 
ATOM     10  C   UNL     1       4.123  -0.989  -1.484  1.00  0.00    -0.061 C 
ATOM     11  C   UNL     1       3.396  -1.297  -2.595  1.00  0.00    -0.026 C 
ATOM     12  C   UNL     1       1.883  -1.369  -2.674  1.00  0.00     0.032 C 
ATOM     13  C   UNL     1       1.204  -1.289  -1.291  1.00  0.00     0.006 C 
ATOM     14  C   UNL     1      -0.392  -1.385  -1.290  1.00  0.00    -0.025 C 
ATOM     15  C   UNL     1      -1.076  -0.276  -2.146  1.00  0.00     0.012 C 
ATOM     16  C   UNL     1      -0.849  -2.766  -1.848  1.00  0.00     0.010 C 
ATOM     17  C   UNL     1      -2.383  -2.926  -1.869  1.00  0.00     0.033 C 
ATOM     18  C   UNL     1      -3.125  -2.512  -0.566  1.00  0.00     0.127 C 
ATOM     19  C   UNL     1      -2.191  -2.074   0.647  1.00  0.00    -0.006 C 
ATOM     20  C   UNL     1      -2.950  -1.234   1.705  1.00  0.00     0.014 C 
ATOM     21  C   UNL     1      -1.835  -3.407   1.401  1.00  0.00     0.014 C 
ATOM     22  C   UNL     1      -0.818  -1.349   0.217  1.00  0.00     0.003 C 
ATOM     23  C   UNL     1      -0.411   0.024   0.843  1.00  0.00     0.005 C 
ATOM     24  C   UNL     1       1.129   0.079   0.930  1.00  0.00     0.008 C 
ATOM     25  C   UNL     1       1.903  -0.159  -0.413  1.00  0.00    -0.017 C 
ATOM     26  C   UNL     1       1.907   1.219  -1.157  1.00  0.00     0.013 C 
ATOM     27  C   UNL     1       5.661  -1.069  -1.605  1.00  0.00     0.033 C 
ATOM     28  C   UNL     1       6.096  -2.544  -1.778  1.00  0.00     0.015 C 
ENDROOT
BRANCH   6  29
ATOM     29  C   UNL     1       7.057   1.034  -0.967  1.00  0.00     0.315 C 
ATOM     30  O   UNL     1       6.794   1.481  -2.075  1.00  0.00    -0.252 OA
BRANCH  29  31
ATOM     31  O   UNL     1       7.950   1.669  -0.159  1.00  0.00    -0.432 OA
BRANCH  31  32
ATOM     32  C   UNL     1       8.909   2.591  -0.525  1.00  0.00     0.342 C 
ATOM     33  O   UNL     1      10.179   2.010  -0.303  1.00  0.00    -0.332 OA
ATOM     34  C   UNL     1       8.754   3.869   0.342  1.00  0.00     0.214 C 
ATOM     35  C   UNL     1      11.242   2.794  -0.855  1.00  0.00     0.179 C 
ATOM     36  C   UNL     1      10.108   4.648   0.456  1.00  0.00     0.180 C 
ATOM     37  C   UNL     1      10.995   4.344  -0.766  1.00  0.00     0.177 C 
BRANCH  34  38
ATOM     38  O   UNL     1       7.718   4.670  -0.172  1.00  0.00    -0.384 OA
ATOM     39  H   UNL     1       8.008   5.018  -1.054  1.00  0.00     0.211 HD
ENDBRANCH  34  38
BRANCH  35  40
ATOM     40  C   UNL     1      12.545   2.396  -0.134  1.00  0.00     0.191 C 
BRANCH  40  41
ATOM     41  O   UNL     1      12.806   1.029  -0.316  1.00  0.00    -0.394 OA
ATOM     42  H   UNL     1      12.278   0.542   0.369  1.00  0.00     0.210 HD
ENDBRANCH  40  41
ENDBRANCH  35  40
BRANCH  36  43
ATOM     43  O   UNL     1      10.807   4.316   1.639  1.00  0.00    -0.387 OA
ATOM     44  H   UNL     1      10.615   3.375   1.885  1.00  0.00     0.211 HD
ENDBRANCH  36  43
BRANCH  37  45
ATOM     45  O   UNL     1      10.329   4.791  -1.921  1.00  0.00    -0.387 OA
ATOM     46  H   UNL     1      11.002   4.809  -2.652  1.00  0.00     0.211 HD
ENDBRANCH  37  45
ENDBRANCH  31  32
ENDBRANCH  29  31
ENDBRANCH   6  29
BRANCH   9  47
ATOM     47  C   UNL     1       3.537  -2.008   0.713  1.00  0.00     0.168 C 
BRANCH  47  48
ATOM     48  O   UNL     1       3.135  -1.881   2.052  1.00  0.00    -0.395 OA
ATOM     49  H   UNL     1       3.919  -1.601   2.590  1.00  0.00     0.210 HD
ENDBRANCH  47  48
ENDBRANCH   9  47
BRANCH  18  50
ATOM     50  O   UNL     1      -4.152  -1.557  -0.873  1.00  0.00    -0.346 OA
BRANCH  50  51
ATOM     51  C   UNL     1      -5.402  -1.955  -0.299  1.00  0.00     0.282 C 
ATOM     52  O   UNL     1      -6.005  -3.021  -1.049  1.00  0.00    -0.347 OA
ATOM     53  C   UNL     1      -6.330  -0.732  -0.014  1.00  0.00     0.209 C 
ATOM     54  C   UNL     1      -7.330  -2.741  -1.473  1.00  0.00     0.198 C 
ATOM     55  C   UNL     1      -7.566  -1.333   0.677  1.00  0.00     0.186 C 
ATOM     56  C   UNL     1      -8.274  -2.301  -0.312  1.00  0.00     0.172 C 
BRANCH  53  57
ATOM     57  O   UNL     1      -5.678   0.201   0.840  1.00  0.00    -0.338 OA
BRANCH  57  58
ATOM     58  C   UNL     1      -5.528   1.452   0.186  1.00  0.00     0.282 C 
ATOM     59  O   UNL     1      -4.696   1.326  -0.953  1.00  0.00    -0.341 OA
ATOM     60  C   UNL     1      -4.918   2.498   1.155  1.00  0.00     0.202 C 
ATOM     61  C   UNL     1      -4.795   2.471  -1.808  1.00  0.00     0.178 C 
ATOM     62  C   UNL     1      -4.301   3.703   0.360  1.00  0.00     0.179 C 
ATOM     63  C   UNL     1      -4.974   3.828  -1.024  1.00  0.00     0.177 C 
BRANCH  60  64
ATOM     64  O   UNL     1      -5.891   2.919   2.078  1.00  0.00    -0.385 OA
ATOM     65  H   UNL     1      -6.570   3.450   1.587  1.00  0.00     0.211 HD
ENDBRANCH  60  64
BRANCH  61  66
ATOM     66  C   UNL     1      -3.541   2.490  -2.703  1.00  0.00     0.191 C 
BRANCH  66  67
ATOM     67  O   UNL     1      -3.604   3.535  -3.637  1.00  0.00    -0.394 OA
ATOM     68  H   UNL     1      -4.201   3.228  -4.369  1.00  0.00     0.210 HD
ENDBRANCH  66  67
ENDBRANCH  61  66
BRANCH  62  69
ATOM     69  O   UNL     1      -2.907   3.565   0.195  1.00  0.00    -0.387 OA
ATOM     70  H   UNL     1      -2.675   2.603   0.132  1.00  0.00     0.211 HD
ENDBRANCH  62  69
BRANCH  63  71
ATOM     71  O   UNL     1      -6.339   4.101  -0.833  1.00  0.00    -0.387 OA
ATOM     72  H   UNL     1      -6.708   4.359  -1.718  1.00  0.00     0.211 HD
ENDBRANCH  63  71
ENDBRANCH  57  58
ENDBRANCH  53  57
BRANCH  55  73
ATOM     73  O   UNL     1      -8.452  -0.333   1.173  1.00  0.00    -0.341 OA
BRANCH  73  74
ATOM     74  C   UNL     1      -8.360  -0.233   2.590  1.00  0.00     0.282 C 
ATOM     75  O   UNL     1      -9.061  -1.319   3.213  1.00  0.00    -0.341 OA
ATOM     76  C   UNL     1      -8.839   1.145   3.086  1.00  0.00     0.202 C 
ATOM     77  C   UNL     1     -10.414  -1.055   3.611  1.00  0.00     0.178 C 
ATOM     78  C   UNL     1     -10.335   1.351   2.761  1.00  0.00     0.179 C 
ATOM     79  C   UNL     1     -11.092   0.004   2.700  1.00  0.00     0.177 C 
BRANCH  76  80
ATOM     80  O   UNL     1      -8.668   1.186   4.482  1.00  0.00    -0.385 OA
ATOM     81  H   UNL     1      -7.704   1.348   4.656  1.00  0.00     0.211 HD
ENDBRANCH  76  80
BRANCH  77  82
ATOM     82  C   UNL     1     -11.166  -2.397   3.569  1.00  0.00     0.191 C 
BRANCH  82  83
ATOM     83  O   UNL     1     -12.482  -2.272   4.035  1.00  0.00    -0.394 OA
ATOM     84  H   UNL     1     -12.428  -2.191   5.023  1.00  0.00     0.210 HD
ENDBRANCH  82  83
ENDBRANCH  77  82
BRANCH  78  85
ATOM     85  O   UNL     1     -10.533   2.067   1.566  1.00  0.00    -0.387 OA
ATOM     86  H   UNL     1     -10.031   1.605   0.846  1.00  0.00     0.211 HD
ENDBRANCH  78  85
BRANCH  79  87
ATOM     87  O   UNL     1     -12.456   0.198   2.977  1.00  0.00    -0.387 OA
ATOM     88  H   UNL     1     -12.524   0.464   3.932  1.00  0.00     0.211 HD
ENDBRANCH  79  87
ENDBRANCH  73  74
ENDBRANCH  55  73
BRANCH  56  89
ATOM     89  O   UNL     1      -9.445  -1.742  -0.853  1.00  0.00    -0.388 OA
ATOM     90  H   UNL     1      -9.190  -0.895  -1.307  1.00  0.00     0.211 HD
ENDBRANCH  56  89
ENDBRANCH  50  51
ENDBRANCH  18  50
TORSDOF 27
