REMARK SMILES C[C][C][C][C][C][C][C][C][C][C][C][C][C][C][C][C]C(=O)OC[C@@H](CO[P@@](=O)(O)O[C][C](O)[C]O[P@@](=O)(O)OC[C@@H](COC(=O)CCCCCCC/C=C\C/C=C\C/C=C\CC)OC(=O)CC[C]CC[C]C/C=C\[C]/C=C\C/C=C\[C]C)OC(=O)[C]CCCCCCCC/C=C\CCCCCC
REMARK SMILES IDX 29 1 30 2 32 3 33 4 34 5 35 6 37 7 38 8 39 9 40 10 41 11
REMARK SMILES IDX 42 12 43 13 44 14 45 15 46 16 47 17 48 18 49 19 50 20 51 21
REMARK SMILES IDX 52 22 53 23 54 24 55 25 56 26 57 27 58 28 59 29 60 30 61 31
REMARK SMILES IDX 62 32 63 33 64 34 65 35 66 36 67 37 68 38 69 39 70 40 71 41
REMARK SMILES IDX 72 42 73 43 74 44 75 45 76 46 77 47 78 48 79 49 80 50 36 51
REMARK SMILES IDX 31 53 28 55 25 56 26 57 27 58 24 60 23 61 22 62 21 63 20 64
REMARK SMILES IDX 18 65 19 66 17 67 16 68 15 69 14 70 13 71 12 72 11 73 10 74
REMARK SMILES IDX 9 75 8 76 7 77 6 78 5 79 4 80 3 81 2 82 1 83 81 84 82 85
REMARK SMILES IDX 83 86 84 87 85 88 86 89 87 90 88 91 89 92 90 93 91 94 92 95
REMARK SMILES IDX 93 96 94 97 95 98 96 99 97 100 98 101 99 102 100 103
REMARK H PARENT 36 52 31 54 27 59
ROOT
ATOM      1  C   UNL     1       7.554 -11.289   0.000  1.00  0.00     0.186 C 
ENDROOT
BRANCH   1   2
ATOM      2  C   UNL     1       9.054 -11.289   0.000  1.00  0.00     0.171 C 
BRANCH   2   3
ATOM      3  C   UNL     1       9.054 -12.789   0.000  1.00  0.00     0.186 C 
BRANCH   3   4
ATOM      4  O   UNL     1       9.054 -14.289   0.000  1.00  0.00    -0.270 OA
BRANCH   4   5
ATOM      5  P   UNL     1      10.407 -14.989  -0.870  1.00  0.00     0.473 P 
ATOM      6  O   UNL     1      10.520 -16.454  -0.366  1.00  0.00    -0.228 OA
BRANCH   5   7
ATOM      7  O   UNL     1      11.955 -14.218  -0.629  1.00  0.00    -0.283 OA
BRANCH   7   8
ATOM      8  C   UNL     1      12.951 -15.039   0.000  1.00  0.00     0.222 C 
BRANCH   8   9
ATOM      9  C   UNL     1      14.250 -14.289   0.000  1.00  0.00     0.240 C 
BRANCH   9  10
ATOM     10  C   UNL     1      13.606 -12.909   0.810  1.00  0.00     0.280 C 
BRANCH  10  11
ATOM     11  O   UNL     1      12.800 -11.889   0.151  1.00  0.00    -0.462 OA
BRANCH  11  12
ATOM     12  C   UNL     1      12.968 -10.469   0.142  1.00  0.00     0.305 C 
ATOM     13  O   UNL     1      14.092 -10.018   0.282  1.00  0.00    -0.252 OA
BRANCH  12  14
ATOM     14  C   UNL     1      11.750  -9.412   0.022  1.00  0.00     0.123 C 
BRANCH  14  15
ATOM     15  C   UNL     1      12.000  -7.794   0.000  1.00  0.00     0.012 C 
BRANCH  15  16
ATOM     16  C   UNL     1      11.250  -6.495   0.000  1.00  0.00     0.001 C 
BRANCH  16  17
ATOM     17  C   UNL     1      10.500  -5.196   0.000  1.00  0.00     0.000 C 
BRANCH  17  18
ATOM     18  C   UNL     1      10.962  -4.504  -1.445  1.00  0.00     0.000 C 
BRANCH  18  19
ATOM     19  C   UNL     1       9.953  -4.442  -2.703  1.00  0.00     0.004 C 
BRANCH  19  20
ATOM     20  C   UNL     1       8.496  -3.779  -2.925  1.00  0.00     0.027 C 
BRANCH  20  21
ATOM     21  C   UNL     1       8.242  -2.280  -2.698  1.00  0.00    -0.031 C 
ATOM     22  C   UNL     1       7.215  -1.620  -2.036  1.00  0.00    -0.027 C 
BRANCH  22  23
ATOM     23  C   UNL     1       5.956  -2.107  -1.266  1.00  0.00     0.054 C 
BRANCH  23  24
ATOM     24  C   UNL     1       4.789  -2.627  -2.110  1.00  0.00    -0.027 C 
ATOM     25  C   UNL     1       3.443  -2.302  -2.071  1.00  0.00    -0.027 C 
BRANCH  25  26
ATOM     26  C   UNL     1       2.626  -1.338  -1.163  1.00  0.00     0.054 C 
BRANCH  26  27
ATOM     27  C   UNL     1       1.236  -1.042  -1.798  1.00  0.00    -0.027 C 
ATOM     28  C   UNL     1      -0.083  -1.043  -1.367  1.00  0.00    -0.031 C 
BRANCH  28  29
ATOM     29  C   UNL     1      -0.750  -1.299   0.000  1.00  0.00     0.023 C 
ATOM     30  C   UNL     1      -1.500  -2.598  -0.000  1.00  0.00     0.008 C 
ENDBRANCH  28  29
ENDBRANCH  26  27
ENDBRANCH  25  26
ENDBRANCH  23  24
ENDBRANCH  22  23
ENDBRANCH  20  21
ENDBRANCH  19  20
ENDBRANCH  18  19
ENDBRANCH  17  18
ENDBRANCH  16  17
ENDBRANCH  15  16
ENDBRANCH  14  15
ENDBRANCH  12  14
ENDBRANCH  11  12
ENDBRANCH  10  11
ENDBRANCH   9  10
BRANCH   9  31
ATOM     31  O   UNL     1      15.549 -13.539   0.000  1.00  0.00    -0.456 OA
BRANCH  31  32
ATOM     32  C   UNL     1      16.924 -13.710   0.025  1.00  0.00     0.306 C 
ATOM     33  O   UNL     1      17.384 -14.841   0.054  1.00  0.00    -0.252 OA
BRANCH  32  34
ATOM     34  C   UNL     1      17.900 -12.444   0.002  1.00  0.00     0.123 C 
BRANCH  34  35
ATOM     35  C   UNL     1      19.446 -12.789   0.000  1.00  0.00     0.020 C 
BRANCH  35  36
ATOM     36  C   UNL     1      20.745 -12.039   0.000  1.00  0.00    -0.017 C 
BRANCH  36  37
ATOM     37  C   UNL     1      22.044 -11.289   0.000  1.00  0.00     0.009 C 
BRANCH  37  38
ATOM     38  C   UNL     1      23.343 -10.539   0.000  1.00  0.00     0.009 C 
BRANCH  38  39
ATOM     39  C   UNL     1      24.642  -9.789   0.000  1.00  0.00    -0.013 C 
BRANCH  39  40
ATOM     40  C   UNL     1      25.941  -9.039   0.000  1.00  0.00     0.035 C 
BRANCH  40  41
ATOM     41  C   UNL     1      27.354  -8.416  -0.000  1.00  0.00    -0.030 C 
ATOM     42  C   UNL     1      28.539  -9.039   0.000  1.00  0.00    -0.018 C 
BRANCH  42  43
ATOM     43  C   UNL     1      28.539 -10.539   0.000  1.00  0.00     0.034 C 
BRANCH  43  44
ATOM     44  C   UNL     1      28.539 -12.039   0.000  1.00  0.00    -0.018 C 
ATOM     45  C   UNL     1      29.838 -12.789   0.000  1.00  0.00    -0.026 C 
BRANCH  45  46
ATOM     46  C   UNL     1      31.137 -12.039   0.000  1.00  0.00     0.054 C 
BRANCH  46  47
ATOM     47  C   UNL     1      32.437 -11.289   0.000  1.00  0.00    -0.027 C 
ATOM     48  C   UNL     1      33.736 -12.039   0.000  1.00  0.00    -0.023 C 
BRANCH  48  49
ATOM     49  C   UNL     1      33.736 -13.539   0.000  1.00  0.00     0.005 C 
ATOM     50  C   UNL     1      33.736 -15.039   0.000  1.00  0.00     0.018 C 
ENDBRANCH  48  49
ENDBRANCH  46  47
ENDBRANCH  45  46
ENDBRANCH  43  44
ENDBRANCH  42  43
ENDBRANCH  40  41
ENDBRANCH  39  40
ENDBRANCH  38  39
ENDBRANCH  37  38
ENDBRANCH  36  37
ENDBRANCH  35  36
ENDBRANCH  34  35
ENDBRANCH  32  34
ENDBRANCH  31  32
ENDBRANCH   9  31
ENDBRANCH   8   9
ENDBRANCH   7   8
ENDBRANCH   5   7
BRANCH   5  51
ATOM     51  O   UNL     1      10.043 -15.121  -2.561  1.00  0.00    -0.302 OA
ATOM     52  H   UNL     1       9.918 -14.186  -2.862  1.00  0.00     0.223 HD
ENDBRANCH   5  51
ENDBRANCH   4   5
ENDBRANCH   3   4
ENDBRANCH   2   3
BRANCH   2  53
ATOM     53  O   UNL     1       9.054  -9.789   0.000  1.00  0.00    -0.380 OA
ATOM     54  H   UNL     1       9.047  -9.514   0.955  1.00  0.00     0.211 HD
ENDBRANCH   2  53
ENDBRANCH   1   2
BRANCH   1  55
ATOM     55  O   UNL     1       6.054 -11.289   0.000  1.00  0.00    -0.270 OA
BRANCH  55  56
ATOM     56  P   UNL     1       5.492  -9.889   0.918  1.00  0.00     0.473 P 
ATOM     57  O   UNL     1       6.698  -9.187   1.601  1.00  0.00    -0.228 OA
BRANCH  56  58
ATOM     58  O   UNL     1       4.521 -10.456   2.240  1.00  0.00    -0.302 OA
ATOM     59  H   UNL     1       4.082  -9.643   2.597  1.00  0.00     0.223 HD
ENDBRANCH  56  58
BRANCH  56  60
ATOM     60  O   UNL     1       4.554  -8.691   0.000  1.00  0.00    -0.283 OA
BRANCH  60  61
ATOM     61  C   UNL     1       5.304  -7.392   0.000  1.00  0.00     0.222 C 
BRANCH  61  62
ATOM     62  C   UNL     1       6.054  -6.093   0.000  1.00  0.00     0.240 C 
BRANCH  62  63
ATOM     63  C   UNL     1       4.755  -5.343   0.000  1.00  0.00     0.280 C 
BRANCH  63  64
ATOM     64  O   UNL     1       3.456  -4.593   0.000  1.00  0.00    -0.461 OA
BRANCH  64  65
ATOM     65  C   UNL     1       2.157  -5.343   0.000  1.00  0.00     0.315 C 
ATOM     66  O   UNL     1       1.105  -4.740   0.026  1.00  0.00    -0.252 OA
BRANCH  65  67
ATOM     67  C   UNL     1       2.157  -6.843   0.000  1.00  0.00     0.111 C 
BRANCH  67  68
ATOM     68  C   UNL     1       2.157  -8.343   0.000  1.00  0.00     0.012 C 
BRANCH  68  69
ATOM     69  C   UNL     1       2.157  -9.843   0.000  1.00  0.00     0.001 C 
BRANCH  69  70
ATOM     70  C   UNL     1       2.157 -11.343   0.000  1.00  0.00     0.000 C 
BRANCH  70  71
ATOM     71  C   UNL     1       2.157 -12.843   0.000  1.00  0.00     0.000 C 
BRANCH  71  72
ATOM     72  C   UNL     1       2.157 -14.343   0.000  1.00  0.00     0.000 C 
BRANCH  72  73
ATOM     73  C   UNL     1       2.157 -15.843   0.000  1.00  0.00     0.000 C 
BRANCH  73  74
ATOM     74  C   UNL     1       2.157 -17.343   0.000  1.00  0.00     0.000 C 
BRANCH  74  75
ATOM     75  C   UNL     1       2.157 -18.843   0.000  1.00  0.00    -0.000 C 
BRANCH  75  76
ATOM     76  C   UNL     1       2.157 -20.343   0.000  1.00  0.00    -0.000 C 
BRANCH  76  77
ATOM     77  C   UNL     1       2.157 -21.843   0.000  1.00  0.00    -0.000 C 
BRANCH  77  78
ATOM     78  C   UNL     1       2.157 -23.343   0.000  1.00  0.00    -0.000 C 
BRANCH  78  79
ATOM     79  C   UNL     1       2.157 -24.843   0.000  1.00  0.00    -0.000 C 
BRANCH  79  80
ATOM     80  C   UNL     1       2.157 -26.343   0.000  1.00  0.00    -0.000 C 
BRANCH  80  81
ATOM     81  C   UNL     1       2.157 -27.843   0.000  1.00  0.00    -0.001 C 
BRANCH  81  82
ATOM     82  C   UNL     1       2.157 -29.343   0.000  1.00  0.00    -0.012 C 
ATOM     83  C   UNL     1       2.157 -30.843   0.000  1.00  0.00     0.013 C 
ENDBRANCH  81  82
ENDBRANCH  80  81
ENDBRANCH  79  80
ENDBRANCH  78  79
ENDBRANCH  77  78
ENDBRANCH  76  77
ENDBRANCH  75  76
ENDBRANCH  74  75
ENDBRANCH  73  74
ENDBRANCH  72  73
ENDBRANCH  71  72
ENDBRANCH  70  71
ENDBRANCH  69  70
ENDBRANCH  68  69
ENDBRANCH  67  68
ENDBRANCH  65  67
ENDBRANCH  64  65
ENDBRANCH  63  64
ENDBRANCH  62  63
BRANCH  62  84
ATOM     84  O   UNL     1       7.081  -5.186  -0.570  1.00  0.00    -0.456 OA
BRANCH  84  85
ATOM     85  C   UNL     1       8.304  -4.794  -0.000  1.00  0.00     0.314 C 
ATOM     86  O   UNL     1       8.370  -5.300   1.127  1.00  0.00    -0.252 OA
BRANCH  85  87
ATOM     87  C   UNL     1       9.054  -3.495   0.000  1.00  0.00     0.102 C 
BRANCH  87  88
ATOM     88  C   UNL     1       9.804  -2.196  -0.000  1.00  0.00     0.021 C 
BRANCH  88  89
ATOM     89  C   UNL     1      10.366  -0.684  -0.477  1.00  0.00     0.001 C 
BRANCH  89  90
ATOM     90  C   UNL     1      11.669   0.092   0.297  1.00  0.00     0.000 C 
BRANCH  90  91
ATOM     91  C   UNL     1      12.054   1.701   0.000  1.00  0.00     0.000 C 
BRANCH  91  92
ATOM     92  C   UNL     1      12.804   3.000  -0.000  1.00  0.00     0.000 C 
BRANCH  92  93
ATOM     93  C   UNL     1      13.554   4.299   0.000  1.00  0.00     0.000 C 
BRANCH  93  94
ATOM     94  C   UNL     1      13.608   5.744   0.624  1.00  0.00     0.004 C 
BRANCH  94  95
ATOM     95  C   UNL     1      15.111   6.184   0.378  1.00  0.00     0.027 C 
BRANCH  95  96
ATOM     96  C   UNL     1      15.861   7.503   0.581  1.00  0.00    -0.031 C 
ATOM     97  C   UNL     1      17.242   7.523   0.429  1.00  0.00    -0.031 C 
BRANCH  97  98
ATOM     98  C   UNL     1      17.979   6.207   0.164  1.00  0.00     0.027 C 
BRANCH  98  99
ATOM     99  C   UNL     1      19.523   5.873   0.001  1.00  0.00     0.004 C 
BRANCH  99 100
ATOM    100  C   UNL     1      19.554   4.299  -0.000  1.00  0.00     0.000 C 
BRANCH 100 101
ATOM    101  C   UNL     1      20.304   3.000   0.000  1.00  0.00    -0.000 C 
BRANCH 101 102
ATOM    102  C   UNL     1      21.054   1.701   0.000  1.00  0.00    -0.003 C 
ATOM    103  C   UNL     1      21.804   0.402   0.000  1.00  0.00     0.004 C 
ENDBRANCH 101 102
ENDBRANCH 100 101
ENDBRANCH  99 100
ENDBRANCH  98  99
ENDBRANCH  97  98
ENDBRANCH  95  96
ENDBRANCH  94  95
ENDBRANCH  93  94
ENDBRANCH  92  93
ENDBRANCH  91  92
ENDBRANCH  90  91
ENDBRANCH  89  90
ENDBRANCH  88  89
ENDBRANCH  87  88
ENDBRANCH  85  87
ENDBRANCH  84  85
ENDBRANCH  62  84
ENDBRANCH  61  62
ENDBRANCH  60  61
ENDBRANCH  56  60
ENDBRANCH  55  56
ENDBRANCH   1  55
TORSDOF 82
