REMARK SMILES C[C@@H]1O[C@@H](Oc2c(-c3ccc(O)c(O)c3)oc3cc(O[C@@H]4O[C@H](CO)[C@H](O)[C@H](O)[C@H]4O)cc(O)c3c2=O)[C@H](O)[C@H](O)[C@H]1O[C@@H]1O[C@H](CO)[C@@H](O)[C@H](O)[C@H]1O
REMARK SMILES IDX 5 1 4 2 2 3 3 4 42 5 40 6 38 7 1 8 43 9 44 10 45 11 53 12
REMARK SMILES IDX 46 13 51 14 49 15 54 16 47 18 48 19 52 21 50 23 41 25 39 27
REMARK SMILES IDX 6 29 7 30 36 31 16 32 35 33 37 34 17 35 33 36 18 37 32 38
REMARK SMILES IDX 19 39 8 40 9 41 15 42 10 43 13 44 11 45 14 46 12 48 34 50
REMARK SMILES IDX 20 52 21 53 22 54 30 55 23 56 28 57 26 58 31 59 24 61 25 62
REMARK SMILES IDX 29 64 27 66
REMARK H PARENT 54 17 48 20 52 22 50 24 41 26 39 28 14 47 12 49 34 51 31 60
REMARK H PARENT 25 63 29 65 27 67
ROOT
ATOM      1  O   UNL     1      -0.857   0.993  -1.261  1.00  0.00    -0.454 OA
ENDROOT
BRANCH   1   2
ATOM      2  C   UNL     1      -2.026   0.592  -0.623  1.00  0.00     0.339 C 
ATOM      3  C   UNL     1      -3.297  -1.245   0.168  1.00  0.00     0.151 C 
ATOM      4  O   UNL     1      -2.171  -0.811  -0.605  1.00  0.00    -0.335 OA
ATOM      5  C   UNL     1      -4.595  -0.400  -0.043  1.00  0.00     0.182 C 
ATOM      6  C   UNL     1      -4.461   0.327  -1.385  1.00  0.00     0.181 C 
ATOM      7  C   UNL     1      -3.212   1.242  -1.381  1.00  0.00     0.214 C 
ATOM      8  C   UNL     1      -2.948  -1.391   1.657  1.00  0.00     0.042 C 
BRANCH   5   9
ATOM      9  O   UNL     1      -5.715  -1.286  -0.082  1.00  0.00    -0.341 OA
BRANCH   9  10
ATOM     10  C   UNL     1      -6.770  -0.956   0.810  1.00  0.00     0.282 C 
ATOM     11  O   UNL     1      -7.014  -2.125   1.604  1.00  0.00    -0.341 OA
ATOM     12  C   UNL     1      -8.019  -0.506  -0.055  1.00  0.00     0.202 C 
ATOM     13  C   UNL     1      -8.338  -2.167   2.096  1.00  0.00     0.178 C 
ATOM     14  C   UNL     1      -8.853  -1.752  -0.391  1.00  0.00     0.179 C 
ATOM     15  C   UNL     1      -9.349  -2.411   0.932  1.00  0.00     0.177 C 
BRANCH  12  16
ATOM     16  O   UNL     1      -8.858   0.423   0.598  1.00  0.00    -0.385 OA
ATOM     17  H   UNL     1      -8.397   0.814   1.381  1.00  0.00     0.211 HD
ENDBRANCH  12  16
BRANCH  13  18
ATOM     18  C   UNL     1      -8.450  -3.253   3.173  1.00  0.00     0.191 C 
BRANCH  18  19
ATOM     19  O   UNL     1      -9.729  -3.263   3.746  1.00  0.00    -0.394 OA
ATOM     20  H   UNL     1      -9.749  -2.519   4.403  1.00  0.00     0.210 HD
ENDBRANCH  18  19
ENDBRANCH  13  18
BRANCH  14  21
ATOM     21  O   UNL     1      -8.077  -2.639  -1.170  1.00  0.00    -0.387 OA
ATOM     22  H   UNL     1      -7.578  -3.258  -0.577  1.00  0.00     0.211 HD
ENDBRANCH  14  21
BRANCH  15  23
ATOM     23  O   UNL     1     -10.631  -1.964   1.302  1.00  0.00    -0.387 OA
ATOM     24  H   UNL     1     -10.586  -0.990   1.474  1.00  0.00     0.211 HD
ENDBRANCH  15  23
ENDBRANCH   9  10
ENDBRANCH   5   9
BRANCH   6  25
ATOM     25  O   UNL     1      -5.610   1.045  -1.756  1.00  0.00    -0.387 OA
ATOM     26  H   UNL     1      -5.857   1.629  -0.992  1.00  0.00     0.211 HD
ENDBRANCH   6  25
BRANCH   7  27
ATOM     27  O   UNL     1      -3.470   2.525  -0.857  1.00  0.00    -0.384 OA
ATOM     28  H   UNL     1      -3.750   2.419   0.087  1.00  0.00     0.211 HD
ENDBRANCH   7  27
ENDBRANCH   1   2
BRANCH   1  29
ATOM     29  C   UNL     1       0.441   0.669  -1.029  1.00  0.00     0.214 A 
ATOM     30  C   UNL     1       1.420   1.701  -0.924  1.00  0.00     0.180 A 
ATOM     31  C   UNL     1       0.876  -0.674  -0.935  1.00  0.00     0.239 A 
ATOM     32  O   UNL     1       2.688   1.362  -0.694  1.00  0.00    -0.452 OA
ATOM     33  C   UNL     1       2.235  -0.963  -0.715  1.00  0.00     0.111 A 
ATOM     34  O   UNL     1       0.088  -1.588  -1.082  1.00  0.00    -0.285 OA
ATOM     35  C   UNL     1       3.127   0.113  -0.587  1.00  0.00     0.146 A 
ATOM     36  C   UNL     1       2.737  -2.290  -0.633  1.00  0.00     0.134 A 
ATOM     37  C   UNL     1       4.489  -0.115  -0.366  1.00  0.00     0.094 A 
ATOM     38  C   UNL     1       4.105  -2.502  -0.421  1.00  0.00     0.093 A 
ATOM     39  C   UNL     1       4.989  -1.428  -0.280  1.00  0.00     0.130 A 
BRANCH  30  40
ATOM     40  C   UNL     1       1.144   3.184  -1.051  1.00  0.00     0.025 A 
ATOM     41  C   UNL     1      -0.097   3.744  -1.441  1.00  0.00     0.016 A 
ATOM     42  C   UNL     1       2.202   4.083  -0.781  1.00  0.00     0.062 A 
ATOM     43  C   UNL     1      -0.266   5.127  -1.542  1.00  0.00     0.051 A 
ATOM     44  C   UNL     1       2.034   5.471  -0.882  1.00  0.00     0.158 A 
ATOM     45  C   UNL     1       0.791   5.996  -1.263  1.00  0.00     0.157 A 
BRANCH  44  46
ATOM     46  O   UNL     1       3.079   6.278  -0.606  1.00  0.00    -0.504 OA
ATOM     47  H   UNL     1       3.023   7.242  -0.658  1.00  0.00     0.293 HD
ENDBRANCH  44  46
BRANCH  45  48
ATOM     48  O   UNL     1       0.619   7.331  -1.363  1.00  0.00    -0.504 OA
ATOM     49  H   UNL     1      -0.226   7.724  -1.626  1.00  0.00     0.293 HD
ENDBRANCH  45  48
ENDBRANCH  30  40
BRANCH  36  50
ATOM     50  O   UNL     1       1.917  -3.357  -0.763  1.00  0.00    -0.507 OA
ATOM     51  H   UNL     1       2.239  -4.268  -0.717  1.00  0.00     0.293 HD
ENDBRANCH  36  50
BRANCH  39  52
ATOM     52  O   UNL     1       6.301  -1.721  -0.087  1.00  0.00    -0.462 OA
BRANCH  52  53
ATOM     53  C   UNL     1       7.314  -0.887   0.353  1.00  0.00     0.339 C 
ATOM     54  O   UNL     1       8.191  -0.638  -0.737  1.00  0.00    -0.332 OA
ATOM     55  C   UNL     1       8.065  -1.606   1.500  1.00  0.00     0.214 C 
ATOM     56  C   UNL     1       9.222   0.263  -0.352  1.00  0.00     0.179 C 
ATOM     57  C   UNL     1       9.277  -0.755   1.938  1.00  0.00     0.180 C 
ATOM     58  C   UNL     1      10.143  -0.391   0.714  1.00  0.00     0.177 C 
BRANCH  55  59
ATOM     59  O   UNL     1       7.210  -1.865   2.586  1.00  0.00    -0.384 OA
ATOM     60  H   UNL     1       6.858  -0.994   2.907  1.00  0.00     0.211 HD
ENDBRANCH  55  59
BRANCH  56  61
ATOM     61  C   UNL     1       9.989   0.721  -1.600  1.00  0.00     0.191 C 
BRANCH  61  62
ATOM     62  O   UNL     1      10.536  -0.371  -2.294  1.00  0.00    -0.394 OA
ATOM     63  H   UNL     1      11.511  -0.378  -2.108  1.00  0.00     0.210 HD
ENDBRANCH  61  62
ENDBRANCH  56  61
BRANCH  57  64
ATOM     64  O   UNL     1      10.033  -1.391   2.938  1.00  0.00    -0.387 OA
ATOM     65  H   UNL     1      10.300  -2.284   2.595  1.00  0.00     0.211 HD
ENDBRANCH  57  64
BRANCH  58  66
ATOM     66  O   UNL     1      10.825  -1.519   0.214  1.00  0.00    -0.387 OA
ATOM     67  H   UNL     1      10.175  -2.110  -0.244  1.00  0.00     0.211 HD
ENDBRANCH  58  66
ENDBRANCH  52  53
ENDBRANCH  39  52
ENDBRANCH   1  29
TORSDOF 22
