REMARK SMILES CCCCNc1nc2c(s1)C[C@]1(C)CC[C@@H]([C@H](C)C(=O)NCCOC)[C@H](O)[C@H]1[C@@H]2C
REMARK SMILES IDX 6 1 7 2 8 3 9 4 11 5 12 6 13 7 14 8 15 9 16 10 26 11 28 12
REMARK SMILES IDX 29 13 30 14 10 15 5 16 4 18 3 19 2 20 1 21 27 22 17 24 18 25
REMARK SMILES IDX 19 26 20 27 21 28 22 30 23 31 24 32 25 33
REMARK H PARENT 5 17 27 23 21 29
ROOT
ATOM      1  C   UNL     1       4.830  -1.469  -1.382  1.00  0.00     0.183 A 
ATOM      2  N   UNL     1       4.049  -0.385  -1.548  1.00  0.00    -0.225 NA
ATOM      3  C   UNL     1       2.808  -0.571  -1.035  1.00  0.00     0.060 A 
ATOM      4  C   UNL     1       2.601  -1.822  -0.468  1.00  0.00     0.031 A 
ATOM      5  C   UNL     1       1.292  -2.295   0.084  1.00  0.00     0.056 C 
ATOM      6  C   UNL     1       0.290  -1.119   0.319  1.00  0.00    -0.022 C 
ATOM      7  C   UNL     1       0.689  -0.408   1.647  1.00  0.00     0.012 C 
ATOM      8  C   UNL     1      -1.132  -1.728   0.452  1.00  0.00     0.008 C 
ATOM      9  C   UNL     1      -2.229  -0.664   0.610  1.00  0.00     0.007 C 
ATOM     10  C   UNL     1      -2.229   0.313  -0.587  1.00  0.00     0.030 C 
ATOM     11  C   UNL     1      -0.816   0.941  -0.791  1.00  0.00     0.122 C 
ATOM     12  C   UNL     1       0.314  -0.134  -0.915  1.00  0.00     0.033 C 
ATOM     13  C   UNL     1       1.744   0.499  -1.096  1.00  0.00     0.042 C 
ATOM     14  C   UNL     1       1.931   1.313  -2.394  1.00  0.00     0.015 C 
ATOM     15  S   UNL     1       4.027  -2.722  -0.586  1.00  0.00    -0.102 S 
ENDROOT
BRANCH   1  16
ATOM     16  N   UNL     1       6.165  -1.504  -1.847  1.00  0.00    -0.362 N 
ATOM     17  H   UNL     1       6.371  -0.812  -2.583  1.00  0.00     0.162 HD
BRANCH  16  18
ATOM     18  C   UNL     1       7.239  -1.682  -0.895  1.00  0.00     0.115 C 
BRANCH  18  19
ATOM     19  C   UNL     1       7.382  -0.425  -0.007  1.00  0.00     0.021 C 
BRANCH  19  20
ATOM     20  C   UNL     1       7.625   0.860  -0.826  1.00  0.00    -0.002 C 
ATOM     21  C   UNL     1       7.744   2.088   0.070  1.00  0.00     0.004 C 
ENDBRANCH  19  20
ENDBRANCH  18  19
ENDBRANCH  16  18
ENDBRANCH   1  16
BRANCH  11  22
ATOM     22  O   UNL     1      -0.855   1.766  -1.927  1.00  0.00    -0.392 OA
ATOM     23  H   UNL     1      -1.019   1.186  -2.716  1.00  0.00     0.210 HD
ENDBRANCH  11  22
BRANCH  10  24
ATOM     24  C   UNL     1      -3.326   1.437  -0.507  1.00  0.00     0.081 C 
ATOM     25  C   UNL     1      -3.225   2.344   0.735  1.00  0.00     0.018 C 
BRANCH  24  26
ATOM     26  C   UNL     1      -4.742   0.913  -0.670  1.00  0.00     0.223 C 
ATOM     27  O   UNL     1      -5.330   1.163  -1.716  1.00  0.00    -0.275 OA
ATOM     28  N   UNL     1      -5.382   0.221   0.312  1.00  0.00    -0.354 N 
ATOM     29  H   UNL     1      -4.907   0.050   1.210  1.00  0.00     0.163 HD
BRANCH  28  30
ATOM     30  C   UNL     1      -6.744  -0.242   0.130  1.00  0.00     0.144 C 
BRANCH  30  31
ATOM     31  C   UNL     1      -7.264  -0.953   1.384  1.00  0.00     0.181 C 
BRANCH  31  32
ATOM     32  O   UNL     1      -8.561  -1.484   1.181  1.00  0.00    -0.383 OA
ATOM     33  C   UNL     1      -9.542  -0.471   1.273  1.00  0.00     0.194 C 
ENDBRANCH  31  32
ENDBRANCH  30  31
ENDBRANCH  28  30
ENDBRANCH  24  26
ENDBRANCH  10  24
TORSDOF 10
