REMARK SMILES C=C1CCC(=O)C2=NC[C@H](C)[C@@H](C)C[C@]23CCC([C@H]2C=C(C)C(=O)O2)=C(C)[C@H]3/C=C(/C)[C@H](O)C[C@H]2CC[C@]3(CC[C@]4(O[C@H](CC[C@@H]4O)C1)O3)O2
REMARK SMILES IDX 32 1 34 2 35 3 43 4 42 5 44 6 41 7 45 8 40 9 49 10 46 11
REMARK SMILES IDX 39 12 38 13 37 14 50 15 36 16 48 17 2 18 1 19 3 20 4 21
REMARK SMILES IDX 47 23 30 25 29 26 31 27 28 28 26 29 15 30 18 31 16 32 17 33
REMARK SMILES IDX 27 34 14 35 12 36 13 37 10 38 11 39 7 41 8 42 5 43 6 44 9 46
REMARK SMILES IDX 19 48 20 49 25 50 21 51 23 52 24 53 22 54 33 55
REMARK H PARENT 47 24 33 56
REMARK Flexibility Score:  103.800
ROOT
ATOM      1  C   UNL     1      -0.324   1.869  -2.151  1.00  0.00     0.142 C 
ENDROOT
BRANCH   1   2
ATOM      2  C   UNL     1      -0.688   3.228  -1.505  1.00  0.00     0.068 C 
BRANCH   2   3
ATOM      3  C   UNL     1      -2.106   3.379  -0.932  1.00  0.00     0.125 C 
ATOM      4  C   UNL     1      -3.401  -0.985   1.424  1.00  0.00     0.126 C 
ATOM      5  O   UNL     1      -4.239   0.142   1.764  1.00  0.00    -0.344 OA
ATOM      6  C   UNL     1      -4.127  -2.072   0.553  1.00  0.00     0.035 C 
ATOM      7  C   UNL     1      -5.074   0.481   0.666  1.00  0.00     0.198 C 
ATOM      8  C   UNL     1      -5.608  -2.031   0.872  1.00  0.00     0.040 C 
ATOM      9  C   UNL     1      -5.780   1.828   0.824  1.00  0.00     0.074 C 
ATOM     10  O   UNL     1      -4.231   0.655  -0.463  1.00  0.00    -0.316 OA
ATOM     11  C   UNL     1      -6.154  -0.635   0.486  1.00  0.00     0.174 C 
ATOM     12  C   UNL     1      -4.639   2.752   0.621  1.00  0.00     0.072 C 
ATOM     13  C   UNL     1      -3.861   2.026  -0.493  1.00  0.00     0.172 C 
ATOM     14  C   UNL     1      -4.068   2.516  -1.919  1.00  0.00     0.069 C 
ATOM     15  O   UNL     1      -2.487   2.207  -0.227  1.00  0.00    -0.346 OA
ATOM     16  C   UNL     1      -3.220   3.745  -1.926  1.00  0.00     0.038 C 
BRANCH   4  17
ATOM     17  C   UNL     1      -2.835  -1.619   2.708  1.00  0.00     0.062 C 
BRANCH  17  18
ATOM     18  C   UNL     1      -1.754  -0.751   3.329  1.00  0.00    -0.074 C 
ATOM     19  C   UNL     1      -2.061   0.406   3.932  1.00  0.00     0.008 C 
BRANCH  18  20
ATOM     20  C   UNL     1      -0.312  -1.227   3.251  1.00  0.00     0.039 C 
BRANCH  20  21
ATOM     21  C   UNL     1       0.177  -1.278   1.781  1.00  0.00     0.087 CG0
ATOM     22  G   UNL     1       1.555  -1.905   1.623  1.00  0.00     0.000 G0
ENDBRANCH  20  21
ENDBRANCH  18  20
ENDBRANCH  17  18
ENDBRANCH   4  17
BRANCH  11  23
ATOM     23  O   UNL     1      -6.677  -0.607  -0.820  1.00  0.00    -0.388 OA
ATOM     24  H   UNL     1      -5.981  -0.951  -1.437  1.00  0.00     0.211 HD
ENDBRANCH  11  23
ENDBRANCH   2   3
ENDBRANCH   1   2
BRANCH   1  25
ATOM     25  C   UNL     1       1.169   1.870  -2.495  1.00  0.00    -0.048 C 
ATOM     26  C   UNL     1       2.131   1.163  -1.833  1.00  0.00    -0.017 C 
ATOM     27  C   UNL     1       1.614   2.757  -3.644  1.00  0.00     0.042 C 
BRANCH  26  28
ATOM     28  C   UNL     1       1.987   0.205  -0.634  1.00  0.00     0.050 C 
ATOM     29  C   UNL     1       2.767   0.824   0.537  1.00  0.00    -0.062 C 
ATOM     30  C   UNL     1       2.433  -1.295  -0.915  1.00  0.00     0.026 C 
ATOM     31  C   UNL     1       4.018   0.359   0.886  1.00  0.00    -0.026 C 
ATOM     32  C   UNL     1       3.959  -1.191  -1.180  1.00  0.00     0.019 C 
ATOM     33  C   UNL     1       4.694  -0.750   0.088  1.00  0.00     0.036 C 
ATOM     34  C   UNL     1       2.066   1.970   1.240  1.00  0.00     0.040 C 
BRANCH  30  35
ATOM     35  C   UNL     1       1.657  -1.816  -2.166  1.00  0.00     0.018 C 
BRANCH  35  36
ATOM     36  C   UNL     1       2.170  -3.094  -2.893  1.00  0.00    -0.009 C 
ATOM     37  C   UNL     1       1.326  -3.243  -4.181  1.00  0.00     0.008 C 
BRANCH  36  38
ATOM     38  C   UNL     1       2.149  -4.406  -2.042  1.00  0.00     0.010 CG1
ATOM     39  C   UNL     1       2.632  -5.619  -2.871  1.00  0.00     0.010 C 
ATOM     40  G   UNL     1       3.054  -4.329  -0.794  1.00  0.00     0.000 G1
ENDBRANCH  36  38
ENDBRANCH  35  36
ENDBRANCH  30  35
BRANCH  30  41
ATOM     41  C   UNL     1       2.172  -2.265   0.294  1.00  0.00     0.085 C 
ATOM     42  N   UNL     1       2.490  -3.517   0.255  1.00  0.00    -0.285 NA
BRANCH  41  43
ATOM     43  C   UNL     1       1.555  -1.905   1.623  1.00  0.00     0.177 CG0
ATOM     44  O   UNL     1       2.084  -2.373   2.623  1.00  0.00    -0.293 OA
ATOM     45  G   UNL     1       0.177  -1.278   1.781  1.00  0.00     0.000 G0
ENDBRANCH  41  43
BRANCH  42  46
ATOM     46  C   UNL     1       3.054  -4.329  -0.794  1.00  0.00     0.146 CG1
ATOM     47  G   UNL     1       2.149  -4.406  -2.042  1.00  0.00     0.000 G1
ENDBRANCH  42  46
ENDBRANCH  30  41
BRANCH  31  48
ATOM     48  C   UNL     1       4.847   0.806   2.098  1.00  0.00     0.227 C 
ATOM     49  C   UNL     1       5.101   2.288   2.256  1.00  0.00     0.033 C 
ATOM     50  O   UNL     1       4.239   0.422   3.280  1.00  0.00    -0.450 OA
ATOM     51  C   UNL     1       4.691   2.660   3.467  1.00  0.00     0.034 C 
ATOM     52  C   UNL     1       4.152   1.477   4.100  1.00  0.00     0.334 C 
ATOM     53  O   UNL     1       3.682   1.422   5.226  1.00  0.00    -0.247 OA
ATOM     54  C   UNL     1       4.755   4.029   4.068  1.00  0.00     0.052 C 
ENDBRANCH  31  48
ENDBRANCH  26  28
ENDBRANCH   1  25
BRANCH   1  55
ATOM     55  O   UNL     1      -1.101   1.577  -3.285  1.00  0.00    -0.389 OA
ATOM     56  H   UNL     1      -1.157   2.398  -3.840  1.00  0.00     0.211 HD
ENDBRANCH   1  55
TORSDOF 3
