REMARK SMILES CC(=O)NC(C)(C)C(=O)N[C@@H](C)C(=O)NC(C)(C)C(=O)N[C@@H](C)C(=O)NC(C)(C)C(=O)NC(C)(C)C(=O)N[C@@H]([C][C]C(N)=O)C(=O)NC(C)(C)C(=O)N[C@@H](C(=O)NC(C)(C)C(=O)NCC(=O)N[C@@H]([C]C(C)C)C(=O)NC(C)(C)C(=O)N1CCC[C@H]1C(=O)N[C@@H](C(=O)NC(C)(C)C(=O)NC(C)(C)C(=O)N[C@@H]([C][C]C(N)=O)C(=O)N[C@@H]([C][C]C(N)=O)C(=O)C[C](CO)Cc1ccccc1)C(C)C)C(C)C
REMARK SMILES IDX 64 1 63 2 61 3 62 4 58 6 59 7 60 8 57 9 55 10 56 11 54 13
REMARK SMILES IDX 53 14 51 15 52 16 48 18 49 19 50 20 47 21 45 22 46 23 39 25
REMARK SMILES IDX 38 26 36 27 37 28 33 30 34 31 35 32 32 33 30 34 31 35 27 37
REMARK SMILES IDX 28 38 29 39 26 40 24 41 25 42 22 44 23 45 21 46 19 47 20 48
REMARK SMILES IDX 16 50 17 51 18 52 15 53 13 54 14 55 11 57 12 58 10 59 8 60
REMARK SMILES IDX 9 61 5 63 6 64 7 65 4 66 2 67 3 68 1 69 40 71 41 72 42 73
REMARK SMILES IDX 43 74 44 75 136 78 137 79 138 80 65 81 66 82 67 83 68 85
REMARK SMILES IDX 69 86 70 87 71 88 72 89 73 90 74 91 75 92 76 94 77 95 78 96
REMARK SMILES IDX 79 97 80 98 81 99 82 100 85 101 83 102 84 103 86 104 87 105
REMARK SMILES IDX 88 106 89 108 90 109 91 110 92 111 93 113 94 114 95 115
REMARK SMILES IDX 96 116 97 117 98 118 99 120 100 121 101 122 102 123 103 124
REMARK SMILES IDX 104 125 105 127 106 128 107 129 108 130 109 131 110 132
REMARK SMILES IDX 111 135 112 136 113 137 114 139 115 140 116 141 117 142
REMARK SMILES IDX 118 143 119 144 120 147 121 148 122 149 123 150 124 151
REMARK SMILES IDX 125 152 126 154 127 155 128 156 132 157 129 158 131 159
REMARK SMILES IDX 130 160 133 161 134 162 135 163
REMARK H PARENT 63 5 57 12 53 17 47 24 38 29 32 36 26 43 21 49 15 56 10 62
REMARK H PARENT 4 70 43 76 43 77 67 84 75 93 88 107 92 112 98 119 104 126
REMARK H PARENT 109 133 109 134 113 138 118 145 118 146 125 153
ROOT
ATOM      1  C   UNL     1       6.995 -16.987   0.000  1.00  0.00     0.216 C 
ENDROOT
BRANCH   1   2
ATOM      2  N   UNL     1       6.995 -18.487   0.000  1.00  0.00    -0.345 N 
ATOM      3  C   UNL     1       5.696 -19.237   0.000  1.00  0.00     0.245 C 
ATOM      4  O   UNL     1       4.498 -18.334  -0.000  1.00  0.00    -0.272 OA
ATOM      5  H   UNL     1       7.848 -18.979  -0.000  1.00  0.00     0.164 HD
BRANCH   3   6
ATOM      6  C   UNL     1       5.696 -20.737   0.000  1.00  0.00     0.113 C 
ATOM      7  C   UNL     1       5.696 -22.237   0.000  1.00  0.00     0.045 C 
ATOM      8  C   UNL     1       4.196 -20.737   0.000  1.00  0.00     0.045 C 
BRANCH   6   9
ATOM      9  N   UNL     1       7.196 -20.737   0.000  1.00  0.00    -0.340 N 
ATOM     10  C   UNL     1       7.946 -22.036   0.000  1.00  0.00     0.243 C 
ATOM     11  O   UNL     1       7.197 -23.336  -0.000  1.00  0.00    -0.273 OA
ATOM     12  H   UNL     1       7.688 -19.884  -0.000  1.00  0.00     0.164 HD
BRANCH  10  13
ATOM     13  C   UNL     1       9.446 -22.036   0.000  1.00  0.00     0.174 C 
BRANCH  13  14
ATOM     14  N   UNL     1       9.446 -23.536  -0.000  1.00  0.00    -0.342 N 
ATOM     15  C   UNL     1      10.745 -24.286   0.000  1.00  0.00     0.245 C 
ATOM     16  O   UNL     1      12.044 -23.536   0.000  1.00  0.00    -0.272 OA
ATOM     17  H   UNL     1       8.594 -24.028   0.000  1.00  0.00     0.164 HD
BRANCH  15  18
ATOM     18  C   UNL     1      10.745 -25.786   0.000  1.00  0.00     0.113 C 
ATOM     19  C   UNL     1      10.745 -27.286   0.000  1.00  0.00     0.045 C 
ATOM     20  C   UNL     1      12.245 -25.786   0.000  1.00  0.00     0.045 C 
BRANCH  18  21
ATOM     21  N   UNL     1       9.245 -25.786   0.000  1.00  0.00    -0.340 N 
ATOM     22  C   UNL     1       8.495 -27.085   0.000  1.00  0.00     0.244 C 
ATOM     23  O   UNL     1       9.144 -27.960   0.000  1.00  0.00    -0.273 OA
ATOM     24  H   UNL     1       8.753 -24.933   0.000  1.00  0.00     0.164 HD
BRANCH  22  25
ATOM     25  C   UNL     1       6.995 -27.085   0.000  1.00  0.00     0.180 C 
BRANCH  25  26
ATOM     26  N   UNL     1       6.995 -28.585  -0.000  1.00  0.00    -0.342 N 
ATOM     27  C   UNL     1       8.294 -29.335   0.000  1.00  0.00     0.245 C 
ATOM     28  O   UNL     1       9.301 -28.908   0.000  1.00  0.00    -0.272 OA
ATOM     29  H   UNL     1       6.143 -29.077   0.000  1.00  0.00     0.164 HD
BRANCH  27  30
ATOM     30  C   UNL     1       8.294 -30.835   0.000  1.00  0.00     0.113 C 
ATOM     31  C   UNL     1       8.294 -32.335   0.000  1.00  0.00     0.045 C 
ATOM     32  C   UNL     1       6.794 -30.835   0.000  1.00  0.00     0.045 C 
BRANCH  30  33
ATOM     33  N   UNL     1       9.794 -30.835   0.000  1.00  0.00    -0.340 N 
ATOM     34  C   UNL     1      10.544 -32.134   0.000  1.00  0.00     0.246 C 
ATOM     35  O   UNL     1       9.655 -33.347  -0.000  1.00  0.00    -0.272 OA
ATOM     36  H   UNL     1      10.286 -29.982  -0.000  1.00  0.00     0.164 HD
BRANCH  34  37
ATOM     37  C   UNL     1      12.044 -32.134   0.000  1.00  0.00     0.113 C 
ATOM     38  C   UNL     1      13.544 -32.134   0.000  1.00  0.00     0.045 C 
ATOM     39  C   UNL     1      12.044 -33.634   0.000  1.00  0.00     0.045 C 
BRANCH  37  40
ATOM     40  N   UNL     1      12.044 -30.634   0.000  1.00  0.00    -0.340 N 
ATOM     41  C   UNL     1      13.343 -29.884   0.000  1.00  0.00     0.243 C 
ATOM     42  O   UNL     1      14.643 -30.633  -0.000  1.00  0.00    -0.273 OA
ATOM     43  H   UNL     1      11.192 -30.142  -0.000  1.00  0.00     0.164 HD
BRANCH  41  44
ATOM     44  C   UNL     1      13.343 -28.384   0.000  1.00  0.00     0.168 C 
ATOM     45  C   UNL     1      13.343 -26.884   0.000  1.00  0.00     0.041 C 
BRANCH  44  46
ATOM     46  N   UNL     1      14.843 -28.384   0.000  1.00  0.00    -0.343 N 
ATOM     47  C   UNL     1      15.593 -27.085   0.000  1.00  0.00     0.245 C 
ATOM     48  O   UNL     1      14.704 -25.872  -0.000  1.00  0.00    -0.272 OA
ATOM     49  H   UNL     1      15.335 -29.237  -0.000  1.00  0.00     0.164 HD
BRANCH  47  50
ATOM     50  C   UNL     1      17.093 -27.085   0.000  1.00  0.00     0.113 C 
ATOM     51  C   UNL     1      18.593 -27.085   0.000  1.00  0.00     0.045 C 
ATOM     52  C   UNL     1      17.093 -25.585   0.000  1.00  0.00     0.045 C 
BRANCH  50  53
ATOM     53  N   UNL     1      17.093 -28.585   0.000  1.00  0.00    -0.340 N 
ATOM     54  C   UNL     1      18.392 -29.335   0.000  1.00  0.00     0.243 C 
ATOM     55  O   UNL     1      19.692 -28.586   0.000  1.00  0.00    -0.273 OA
ATOM     56  H   UNL     1      16.241 -29.077   0.000  1.00  0.00     0.164 HD
BRANCH  54  57
ATOM     57  C   UNL     1      18.392 -30.835   0.000  1.00  0.00     0.168 C 
ATOM     58  C   UNL     1      18.392 -32.335   0.000  1.00  0.00     0.041 C 
BRANCH  57  59
ATOM     59  N   UNL     1      19.892 -30.835  -0.000  1.00  0.00    -0.343 N 
ATOM     60  C   UNL     1      20.642 -32.134   0.000  1.00  0.00     0.245 C 
ATOM     61  O   UNL     1      19.753 -33.347   0.000  1.00  0.00    -0.272 OA
ATOM     62  H   UNL     1      20.384 -29.982   0.000  1.00  0.00     0.164 HD
BRANCH  60  63
ATOM     63  C   UNL     1      22.142 -32.134   0.000  1.00  0.00     0.113 C 
ATOM     64  C   UNL     1      23.642 -32.134   0.000  1.00  0.00     0.045 C 
ATOM     65  C   UNL     1      22.142 -33.634   0.000  1.00  0.00     0.045 C 
BRANCH  63  66
ATOM     66  N   UNL     1      22.142 -30.634   0.000  1.00  0.00    -0.342 N 
ATOM     67  C   UNL     1      23.441 -29.884   0.000  1.00  0.00     0.217 C 
ATOM     68  O   UNL     1      24.741 -30.633  -0.000  1.00  0.00    -0.275 OA
ATOM     69  C   UNL     1      23.441 -28.384   0.000  1.00  0.00     0.114 C 
ATOM     70  H   UNL     1      21.290 -30.142  -0.000  1.00  0.00     0.164 HD
ENDBRANCH  63  66
ENDBRANCH  60  63
ENDBRANCH  57  59
ENDBRANCH  54  57
ENDBRANCH  50  53
ENDBRANCH  47  50
ENDBRANCH  44  46
ENDBRANCH  41  44
ENDBRANCH  37  40
ENDBRANCH  34  37
ENDBRANCH  30  33
ENDBRANCH  27  30
ENDBRANCH  25  26
BRANCH  25  71
ATOM     71  C   UNL     1       5.495 -27.085   0.000  1.00  0.00     0.036 C 
BRANCH  71  72
ATOM     72  C   UNL     1       3.995 -27.085   0.000  1.00  0.00     0.091 C 
BRANCH  72  73
ATOM     73  C   UNL     1       2.495 -27.085   0.000  1.00  0.00     0.226 C 
ATOM     74  N   UNL     1       1.745 -25.786   0.000  1.00  0.00    -0.369 N 
ATOM     75  O   UNL     1       1.745 -28.384  -0.000  1.00  0.00    -0.275 OA
ATOM     76  H   UNL     1       2.237 -24.933  -0.000  1.00  0.00     0.159 HD
ATOM     77  H   UNL     1       0.761 -25.786   0.000  1.00  0.00     0.159 HD
ENDBRANCH  72  73
ENDBRANCH  71  72
ENDBRANCH  25  71
ENDBRANCH  22  25
ENDBRANCH  18  21
ENDBRANCH  15  18
ENDBRANCH  13  14
BRANCH  13  78
ATOM     78  C   UNL     1      10.946 -22.036   0.000  1.00  0.00     0.015 C 
ATOM     79  C   UNL     1      12.446 -22.036   0.000  1.00  0.00     0.010 C 
ATOM     80  C   UNL     1      10.946 -20.536   0.000  1.00  0.00     0.010 C 
ENDBRANCH  13  78
ENDBRANCH  10  13
ENDBRANCH   6   9
ENDBRANCH   3   6
ENDBRANCH   1   2
BRANCH   1  81
ATOM     81  C   UNL     1       6.995 -15.487   0.000  1.00  0.00     0.240 C 
ATOM     82  O   UNL     1       8.376 -14.901  -0.000  1.00  0.00    -0.273 OA
ATOM     83  N   UNL     1       5.696 -14.737   0.000  1.00  0.00    -0.342 N 
ATOM     84  H   UNL     1       4.843 -15.229  -0.000  1.00  0.00     0.164 HD
BRANCH  83  85
ATOM     85  C   UNL     1       5.696 -13.237   0.000  1.00  0.00     0.179 C 
BRANCH  85  86
ATOM     86  C   UNL     1       7.196 -13.237   0.000  1.00  0.00     0.020 C 
BRANCH  86  87
ATOM     87  C   UNL     1       8.696 -13.237   0.000  1.00  0.00    -0.007 C 
ATOM     88  C   UNL     1      10.196 -13.237   0.000  1.00  0.00     0.008 C 
ATOM     89  C   UNL     1       8.696 -11.737   0.000  1.00  0.00     0.008 C 
ENDBRANCH  86  87
ENDBRANCH  85  86
BRANCH  85  90
ATOM     90  C   UNL     1       4.196 -13.237   0.000  1.00  0.00     0.244 C 
ATOM     91  O   UNL     1       3.447 -14.537  -0.000  1.00  0.00    -0.273 OA
ATOM     92  N   UNL     1       3.446 -11.938   0.000  1.00  0.00    -0.340 N 
ATOM     93  H   UNL     1       3.938 -11.085  -0.000  1.00  0.00     0.164 HD
BRANCH  92  94
ATOM     94  C   UNL     1       1.946 -11.938   0.000  1.00  0.00     0.113 C 
ATOM     95  C   UNL     1       1.946 -13.438   0.000  1.00  0.00     0.045 C 
ATOM     96  C   UNL     1       0.446 -11.938   0.000  1.00  0.00     0.045 C 
BRANCH  94  97
ATOM     97  C   UNL     1       1.946 -10.438   0.000  1.00  0.00     0.248 C 
ATOM     98  O   UNL     1       0.936 -10.019  -0.000  1.00  0.00    -0.272 OA
BRANCH  97  99
ATOM     99  N   UNL     1       3.245  -9.688   0.000  1.00  0.00    -0.329 N 
ATOM    100  C   UNL     1       4.615 -10.298  -0.000  1.00  0.00     0.120 C 
ATOM    101  C   UNL     1       3.402  -8.196  -0.000  1.00  0.00     0.174 C 
ATOM    102  C   UNL     1       5.619  -9.183  -0.000  1.00  0.00     0.024 C 
ATOM    103  C   UNL     1       4.869  -7.884  -0.000  1.00  0.00     0.037 C 
BRANCH 101 104
ATOM    104  C   UNL     1       1.758  -8.380  -0.000  1.00  0.00     0.243 C 
ATOM    105  O   UNL     1       1.417  -6.640  -0.000  1.00  0.00    -0.273 OA
ATOM    106  N   UNL     1       1.171  -9.381  -0.000  1.00  0.00    -0.342 N 
ATOM    107  H   UNL     1       1.333 -10.450   0.000  1.00  0.00     0.164 HD
BRANCH 106 108
ATOM    108  C   UNL     1      -0.348  -9.495   0.000  1.00  0.00     0.174 C 
BRANCH 108 109
ATOM    109  C   UNL     1      -0.348 -10.995   0.000  1.00  0.00     0.243 C 
ATOM    110  O   UNL     1       1.053 -11.562   0.000  1.00  0.00    -0.273 OA
ATOM    111  N   UNL     1      -1.647 -11.745   0.000  1.00  0.00    -0.340 N 
ATOM    112  H   UNL     1      -2.706 -11.151   0.000  1.00  0.00     0.164 HD
BRANCH 111 113
ATOM    113  C   UNL     1      -1.647 -13.245   0.000  1.00  0.00     0.113 C 
ATOM    114  C   UNL     1      -0.147 -13.245   0.000  1.00  0.00     0.045 C 
ATOM    115  C   UNL     1      -1.647 -14.745   0.000  1.00  0.00     0.045 C 
BRANCH 113 116
ATOM    116  C   UNL     1      -3.147 -13.245   0.000  1.00  0.00     0.246 C 
ATOM    117  O   UNL     1      -4.036 -14.458  -0.000  1.00  0.00    -0.272 OA
ATOM    118  N   UNL     1      -3.897 -11.946   0.000  1.00  0.00    -0.340 N 
ATOM    119  H   UNL     1      -3.406 -11.094  -0.000  1.00  0.00     0.164 HD
BRANCH 118 120
ATOM    120  C   UNL     1      -5.397 -11.946   0.000  1.00  0.00     0.113 C 
ATOM    121  C   UNL     1      -5.397 -13.446   0.000  1.00  0.00     0.045 C 
ATOM    122  C   UNL     1      -6.897 -11.946   0.000  1.00  0.00     0.045 C 
BRANCH 120 123
ATOM    123  C   UNL     1      -5.397 -10.446   0.000  1.00  0.00     0.245 C 
ATOM    124  O   UNL     1      -6.696  -9.696  -0.000  1.00  0.00    -0.272 OA
ATOM    125  N   UNL     1      -4.098  -9.696   0.000  1.00  0.00    -0.342 N 
ATOM    126  H   UNL     1      -3.245 -10.188  -0.000  1.00  0.00     0.164 HD
BRANCH 125 127
ATOM    127  C   UNL     1      -4.098  -8.196   0.000  1.00  0.00     0.180 C 
BRANCH 127 128
ATOM    128  C   UNL     1      -5.598  -8.196   0.000  1.00  0.00     0.036 C 
BRANCH 128 129
ATOM    129  C   UNL     1      -7.098  -8.196   0.000  1.00  0.00     0.091 C 
BRANCH 129 130
ATOM    130  C   UNL     1      -8.598  -8.196   0.000  1.00  0.00     0.226 C 
ATOM    131  N   UNL     1      -9.348  -6.897  -0.000  1.00  0.00    -0.369 N 
ATOM    132  O   UNL     1      -9.348  -9.495  -0.000  1.00  0.00    -0.275 OA
ATOM    133  H   UNL     1      -8.856  -6.045  -0.000  1.00  0.00     0.159 HD
ATOM    134  H   UNL     1     -10.333  -6.897   0.000  1.00  0.00     0.159 HD
ENDBRANCH 129 130
ENDBRANCH 128 129
ENDBRANCH 127 128
BRANCH 127 135
ATOM    135  C   UNL     1      -2.598  -8.196   0.000  1.00  0.00     0.243 C 
ATOM    136  O   UNL     1      -2.185  -9.638   0.000  1.00  0.00    -0.273 OA
ATOM    137  N   UNL     1      -1.848  -6.897  -0.000  1.00  0.00    -0.344 N 
ATOM    138  H   UNL     1      -2.340  -6.045   0.000  1.00  0.00     0.164 HD
BRANCH 137 139
ATOM    139  C   UNL     1      -0.348  -6.897   0.000  1.00  0.00     0.157 C 
BRANCH 139 140
ATOM    140  C   UNL     1      -0.348  -8.397   0.000  1.00  0.00     0.034 C 
BRANCH 140 141
ATOM    141  C   UNL     1      -0.348  -9.897   0.000  1.00  0.00     0.091 C 
BRANCH 141 142
ATOM    142  C   UNL     1      -0.348 -11.397   0.000  1.00  0.00     0.226 C 
ATOM    143  N   UNL     1       1.077 -12.332   0.000  1.00  0.00    -0.369 N 
ATOM    144  O   UNL     1      -2.174 -11.384   0.000  1.00  0.00    -0.275 OA
ATOM    145  H   UNL     1       1.059 -12.706  -0.000  1.00  0.00     0.159 HD
ATOM    146  H   UNL     1       1.664 -11.354   0.000  1.00  0.00     0.159 HD
ENDBRANCH 141 142
ENDBRANCH 140 141
ENDBRANCH 139 140
BRANCH 139 147
ATOM    147  C   UNL     1      -0.348  -5.397   0.000  1.00  0.00     0.156 C 
ATOM    148  O   UNL     1      -1.647  -4.647  -0.000  1.00  0.00    -0.297 OA
BRANCH 147 149
ATOM    149  C   UNL     1       0.951  -4.647  -0.000  1.00  0.00     0.088 C 
BRANCH 149 150
ATOM    150  C   UNL     1       2.250  -3.897   0.000  1.00  0.00     0.013 C 
BRANCH 150 151
ATOM    151  C   UNL     1       3.549  -3.147  -0.000  1.00  0.00     0.164 C 
BRANCH 151 152
ATOM    152  O   UNL     1       4.848  -2.397   0.000  1.00  0.00    -0.396 OA
ATOM    153  H   UNL     1       5.688  -2.882  -0.000  1.00  0.00     0.210 HD
ENDBRANCH 151 152
ENDBRANCH 150 151
BRANCH 150 154
ATOM    154  C   UNL     1       1.500  -2.598  -0.000  1.00  0.00     0.046 C 
BRANCH 154 155
ATOM    155  C   UNL     1       0.750  -1.299  -0.000  1.00  0.00    -0.047 A 
ATOM    156  C   UNL     1       1.500   0.000  -0.000  1.00  0.00     0.004 A 
ATOM    157  C   UNL     1      -0.750  -1.299  -0.000  1.00  0.00     0.004 A 
ATOM    158  C   UNL     1       0.750   1.299  -0.000  1.00  0.00     0.000 A 
ATOM    159  C   UNL     1      -1.500   0.000  -0.000  1.00  0.00     0.000 A 
ATOM    160  C   UNL     1      -0.750   1.299   0.000  1.00  0.00     0.000 A 
ENDBRANCH 154 155
ENDBRANCH 150 154
ENDBRANCH 149 150
ENDBRANCH 147 149
ENDBRANCH 139 147
ENDBRANCH 137 139
ENDBRANCH 127 135
ENDBRANCH 125 127
ENDBRANCH 120 123
ENDBRANCH 118 120
ENDBRANCH 113 116
ENDBRANCH 111 113
ENDBRANCH 108 109
BRANCH 108 161
ATOM    161  C   UNL     1      -0.348  -7.995   0.000  1.00  0.00     0.015 C 
ATOM    162  C   UNL     1      -0.348  -6.495   0.000  1.00  0.00     0.010 C 
ATOM    163  C   UNL     1       1.152  -7.995   0.000  1.00  0.00     0.010 C 
ENDBRANCH 108 161
ENDBRANCH 106 108
ENDBRANCH 101 104
ENDBRANCH  97  99
ENDBRANCH  94  97
ENDBRANCH  92  94
ENDBRANCH  85  90
ENDBRANCH  83  85
ENDBRANCH   1  81
TORSDOF 57
