REMARK SMILES [H]/N=C(\NC)N[C@@H]1C=CCC[C@@]12C#CC[C@H](Cc1cc(OC3CCNCC3)c(O)cc1CO)[C@@H](OC(C)=O)C[C@@H](O)CC2
REMARK SMILES IDX 16 1 15 2 14 3 13 4 7 5 8 6 12 7 9 8 11 9 10 10 6 12 4 13
REMARK SMILES IDX 3 14 2 15 5 16 1 18 17 20 18 21 19 22 31 23 20 24 30 25
REMARK SMILES IDX 28 26 32 27 33 28 21 30 22 31 23 32 27 33 24 34 26 35 25 36
REMARK SMILES IDX 29 38 34 40 35 41 36 42 38 43 37 44 39 45 40 46 41 47 42 49
REMARK SMILES IDX 43 50
REMARK H PARENT 4 17 6 19 33 29 25 37 29 39 41 48
REMARK Flexibility Score:   99.900
ROOT
ATOM      1  C   UNL     1       0.321   0.191   0.478  1.00  0.00     0.046 C 
ENDROOT
BRANCH   1   2
ATOM      2  C   UNL     1      -0.432   1.476   0.017  1.00  0.00     0.097 C 
ATOM      3  C   UNL     1      -1.859   1.273  -0.123  1.00  0.00    -0.102 C 
BRANCH   3   4
ATOM      4  C   UNL     1      -2.997   0.992  -0.360  1.00  0.00    -0.094 C 
ATOM      5  C   UNL     1      -5.338   1.575  -0.085  1.00  0.00     0.123 C 
ATOM      6  C   UNL     1      -4.933   2.943  -0.633  1.00  0.00    -0.005 C 
ATOM      7  C   UNL     1      -4.348   0.533  -0.727  1.00  0.00     0.056 CG0
ATOM      8  C   UNL     1      -4.740   3.082  -1.957  1.00  0.00    -0.029 C 
ATOM      9  C   UNL     1      -4.463   0.572  -2.295  1.00  0.00     0.026 C 
ATOM     10  C   UNL     1      -5.048   1.906  -2.845  1.00  0.00     0.029 C 
ATOM     11  G   UNL     1      -4.543  -0.909  -0.162  1.00  0.00     0.000 G0
BRANCH   5  12
ATOM     12  N   UNL     1      -6.732   1.296  -0.399  1.00  0.00    -0.349 N 
ATOM     13  N   UNL     1      -9.126   1.865  -0.384  1.00  0.00    -0.360 N 
ATOM     14  C   UNL     1      -7.796   2.134   0.052  1.00  0.00     0.188 C 
ATOM     15  N   UNL     1      -7.535   3.132   0.832  1.00  0.00    -0.269 NA
ATOM     16  C   UNL     1     -10.258   2.698  -0.041  1.00  0.00     0.142 C 
ATOM     17  H   UNL     1      -9.292   1.051  -0.998  1.00  0.00     0.163 HD
ATOM     18  H   UNL     1      -8.255   3.776   1.186  1.00  0.00     0.191 HD
ATOM     19  H   UNL     1      -6.976   0.484  -0.989  1.00  0.00     0.164 HD
ENDBRANCH   5  12
ENDBRANCH   3   4
ENDBRANCH   1   2
BRANCH   1  20
ATOM     20  C   UNL     1       1.763   0.686   0.764  1.00  0.00     0.044 C 
BRANCH  20  21
ATOM     21  C   UNL     1       2.842  -0.236   1.304  1.00  0.00    -0.038 A 
ATOM     22  C   UNL     1       4.012  -0.334   0.535  1.00  0.00     0.054 A 
ATOM     23  C   UNL     1       2.793  -0.889   2.564  1.00  0.00    -0.015 A 
ATOM     24  C   UNL     1       5.151  -1.015   0.990  1.00  0.00     0.161 A 
ATOM     25  C   UNL     1       3.920  -1.611   3.000  1.00  0.00     0.056 A 
ATOM     26  C   UNL     1       5.090  -1.669   2.233  1.00  0.00     0.158 A 
BRANCH  23  27
ATOM     27  C   UNL     1       1.590  -0.824   3.477  1.00  0.00     0.192 C 
BRANCH  27  28
ATOM     28  O   UNL     1       1.266   0.504   3.788  1.00  0.00    -0.392 OA
ATOM     29  H   UNL     1       1.984   0.838   4.387  1.00  0.00     0.211 HD
ENDBRANCH  27  28
ENDBRANCH  23  27
BRANCH  24  30
ATOM     30  O   UNL     1       6.304  -1.053   0.259  1.00  0.00    -0.486 OA
BRANCH  30  31
ATOM     31  C   UNL     1       6.478  -0.582  -1.040  1.00  0.00     0.176 C 
ATOM     32  C   UNL     1       6.552   0.964  -1.124  1.00  0.00     0.060 C 
ATOM     33  C   UNL     1       7.770  -1.191  -1.639  1.00  0.00     0.060 C 
ATOM     34  C   UNL     1       7.817   1.542  -0.435  1.00  0.00     0.084 C 
ATOM     35  C   UNL     1       9.006  -0.273  -1.502  1.00  0.00     0.084 C 
ATOM     36  N   UNL     1       8.917   0.565  -0.306  1.00  0.00    -0.316 NA
ATOM     37  H   UNL     1       8.750  -0.045   0.528  1.00  0.00     0.122 HD
ENDBRANCH  30  31
ENDBRANCH  24  30
BRANCH  26  38
ATOM     38  O   UNL     1       6.145  -2.361   2.714  1.00  0.00    -0.504 OA
ATOM     39  H   UNL     1       6.979  -2.450   2.232  1.00  0.00     0.293 HD
ENDBRANCH  26  38
ENDBRANCH  20  21
ENDBRANCH   1  20
BRANCH   1  40
ATOM     40  C   UNL     1       0.288  -1.007  -0.552  1.00  0.00     0.183 C 
BRANCH  40  41
ATOM     41  O   UNL     1       0.822  -2.141   0.040  1.00  0.00    -0.462 OA
BRANCH  41  42
ATOM     42  C   UNL     1       1.876  -2.873  -0.403  1.00  0.00     0.302 C 
ATOM     43  O   UNL     1       2.487  -2.557  -1.413  1.00  0.00    -0.253 OA
ATOM     44  C   UNL     1       2.277  -4.099   0.353  1.00  0.00     0.139 C 
ENDBRANCH  41  42
ENDBRANCH  40  41
BRANCH  40  45
ATOM     45  C   UNL     1      -1.112  -1.391  -1.127  1.00  0.00     0.077 C 
BRANCH  45  46
ATOM     46  C   UNL     1      -2.112  -2.102  -0.159  1.00  0.00     0.118 C 
BRANCH  46  47
ATOM     47  O   UNL     1      -1.971  -1.760   1.196  1.00  0.00    -0.393 OA
ATOM     48  H   UNL     1      -2.314  -0.847   1.332  1.00  0.00     0.210 HD
ENDBRANCH  46  47
BRANCH  46  49
ATOM     49  C   UNL     1      -3.608  -2.086  -0.618  1.00  0.00     0.033 C 
BRANCH  49  50
ATOM     50  C   UNL     1      -4.543  -0.909  -0.162  1.00  0.00     0.025 CG0
ATOM     51  G   UNL     1      -4.348   0.533  -0.727  1.00  0.00     0.000 G0
ENDBRANCH  49  50
ENDBRANCH  46  49
ENDBRANCH  45  46
ENDBRANCH  40  45
ENDBRANCH   1  40
TORSDOF 11
