REMARK SMILES COCCCO[C@H]1CC[C@@]2(C)[C@@H](C1)C(=O)C1=C3[C@@]24C#CC[C@@H]2CN2C(=O)[C@@]25CC#C[C@@]6(C[C@H](CC1)[C@]3(O)[C@]6(C)CC4)[C@](C)(O)[C@H](O)[C@H]1O[C@@H]([C@H](C2)[C@H]1CO)[C@H](O)N5
REMARK SMILES IDX 7 1 8 2 9 3 10 4 11 5 12 6 13 7 14 8 15 9 16 10 17 11 18 12
REMARK SMILES IDX 19 13 30 14 31 15 32 16 33 17 34 18 35 19 36 20 38 21 39 22
REMARK SMILES IDX 40 23 41 24 6 25 5 26 4 27 3 28 2 29 1 30 20 31 21 32 22 33
REMARK SMILES IDX 23 34 24 35 25 36 26 37 37 39 42 41 43 42 44 43 45 45 46 47
REMARK SMILES IDX 29 49 28 50 27 51 57 52 51 53 55 54 50 55 49 56 52 57 48 58
REMARK SMILES IDX 47 59 56 63 53 65 54 66
REMARK H PARENT 37 40 44 44 46 48 57 60 56 64 54 67
REMARK Flexibility Score:   40.800
ROOT
ATOM      1  C   UNL     1       5.529   1.364   1.131  1.00  0.00     0.119 C 
ATOM      2  C   UNL     1       4.621   0.984   2.304  1.00  0.00     0.033 C 
ATOM      3  C   UNL     1       3.288   0.377   1.835  1.00  0.00     0.012 C 
ATOM      4  C   UNL     1       2.491   1.329   0.851  1.00  0.00    -0.002 C 
ATOM      5  C   UNL     1       2.156   2.659   1.602  1.00  0.00     0.014 C 
ATOM      6  C   UNL     1       3.441   1.574  -0.362  1.00  0.00     0.071 C 
ATOM      7  C   UNL     1       4.782   2.234   0.087  1.00  0.00     0.044 C 
ATOM      8  C   UNL     1       3.674   0.247  -1.093  1.00  0.00     0.162 C 
ATOM      9  O   UNL     1       4.785  -0.059  -1.501  1.00  0.00    -0.294 OA
ATOM     10  C   UNL     1       2.526  -0.649  -1.370  1.00  0.00    -0.001 C 
ATOM     11  C   UNL     1       1.331  -0.377  -0.787  1.00  0.00    -0.013 C 
ATOM     12  C   UNL     1       1.107   0.668   0.349  1.00  0.00     0.062 C 
ATOM     13  C   UNL     1       0.490   0.063   1.586  1.00  0.00    -0.091 C 
ATOM     14  C   UNL     1      -2.755  -1.630  -0.996  1.00  0.00    -0.093 C 
ATOM     15  C   UNL     1      -2.149  -1.191  -2.250  1.00  0.00     0.071 C 
ATOM     16  C   UNL     1      -1.221  -2.410  -2.765  1.00  0.00     0.030 C 
ATOM     17  C   UNL     1       0.246  -1.960  -2.512  1.00  0.00     0.028 C 
ATOM     18  C   UNL     1       1.489  -2.828  -2.410  1.00  0.00     0.012 C 
ATOM     19  C   UNL     1       2.705  -1.841  -2.339  1.00  0.00     0.040 C 
ATOM     20  C   UNL     1       0.099  -1.093  -1.275  1.00  0.00     0.098 C 
ATOM     21  C   UNL     1      -1.024  -0.114  -1.814  1.00  0.00     0.020 C 
ATOM     22  C   UNL     1      -0.627   0.756  -3.067  1.00  0.00     0.016 C 
ATOM     23  C   UNL     1      -1.274   0.912  -0.666  1.00  0.00     0.014 C 
ATOM     24  C   UNL     1       0.030   1.658  -0.211  1.00  0.00     0.026 C 
ENDROOT
BRANCH   1  25
ATOM     25  O   UNL     1       6.625   2.081   1.676  1.00  0.00    -0.378 OA
BRANCH  25  26
ATOM     26  C   UNL     1       7.840   1.792   1.023  1.00  0.00     0.163 C 
BRANCH  26  27
ATOM     27  C   UNL     1       8.467   0.494   1.559  1.00  0.00     0.057 C 
BRANCH  27  28
ATOM     28  C   UNL     1       9.844   0.259   0.942  1.00  0.00     0.162 C 
BRANCH  28  29
ATOM     29  O   UNL     1       9.716   0.188  -0.463  1.00  0.00    -0.385 OA
ATOM     30  C   UNL     1      10.985   0.309  -1.061  1.00  0.00     0.194 C 
ENDBRANCH  28  29
ENDBRANCH  27  28
ENDBRANCH  26  27
ENDBRANCH  25  26
ENDBRANCH   1  25
BRANCH  13  31
ATOM     31  C   UNL     1       0.071  -0.476   2.594  1.00  0.00    -0.100 C 
ATOM     32  C   UNL     1      -0.243  -1.239   3.825  1.00  0.00     0.116 C 
BRANCH  32  33
ATOM     33  C   UNL     1      -1.604  -0.957   4.505  1.00  0.00     0.116 C 
ATOM     34  C   UNL     1      -2.674  -2.387   4.611  1.00  0.00     0.146 C 
ATOM     35  N   UNL     1      -2.619  -1.373   3.745  1.00  0.00    -0.333 N 
BRANCH  35  36
ATOM     36  C   UNL     1      -3.764  -0.640   3.505  1.00  0.00     0.244 CG0
ATOM     37  O   UNL     1      -4.111   0.240   4.283  1.00  0.00    -0.273 OA
ATOM     38  G   UNL     1      -4.297  -0.604   2.061  1.00  0.00     0.000 G0
ENDBRANCH  35  36
ENDBRANCH  32  33
ENDBRANCH  13  31
BRANCH  20  39
ATOM     39  O   UNL     1      -0.358  -1.856  -0.171  1.00  0.00    -0.385 OA
ATOM     40  H   UNL     1       0.212  -2.652  -0.036  1.00  0.00     0.211 HD
ENDBRANCH  20  39
BRANCH  15  41
ATOM     41  C   UNL     1      -3.420  -0.866  -3.214  1.00  0.00     0.107 C 
ATOM     42  C   UNL     1      -4.274  -2.162  -3.396  1.00  0.00     0.047 C 
BRANCH  41  43
ATOM     43  O   UNL     1      -2.941  -0.491  -4.488  1.00  0.00    -0.386 OA
ATOM     44  H   UNL     1      -2.570  -1.282  -4.956  1.00  0.00     0.211 HD
ENDBRANCH  41  43
BRANCH  41  45
ATOM     45  C   UNL     1      -4.436   0.304  -2.782  1.00  0.00     0.176 CG1
ATOM     46  G   UNL     1      -4.985   0.359  -1.299  1.00  0.00     0.000 G1
BRANCH  45  47
ATOM     47  O   UNL     1      -3.856   1.539  -3.141  1.00  0.00    -0.387 OA
ATOM     48  H   UNL     1      -3.562   2.035  -2.342  1.00  0.00     0.211 HD
ENDBRANCH  45  47
ENDBRANCH  41  45
ENDBRANCH  15  41
BRANCH  14  49
ATOM     49  C   UNL     1      -3.299  -1.833   0.043  1.00  0.00    -0.100 C 
ATOM     50  C   UNL     1      -3.835  -1.965   1.363  1.00  0.00     0.122 C 
BRANCH  50  51
ATOM     51  C   UNL     1      -4.297  -0.604   2.061  1.00  0.00     0.111 CG0
ATOM     52  N   UNL     1      -3.732   0.643   1.444  1.00  0.00    -0.275 NA
ATOM     53  C   UNL     1      -5.864  -0.566   1.975  1.00  0.00     0.040 C 
ATOM     54  C   UNL     1      -4.684   1.786   1.362  1.00  0.00     0.212 C 
ATOM     55  C   UNL     1      -6.403   0.025   0.625  1.00  0.00     0.033 C 
ATOM     56  C   UNL     1      -5.896   1.472   0.414  1.00  0.00     0.166 C 
ATOM     57  C   UNL     1      -6.015  -0.656  -0.723  1.00  0.00     0.052 C 
ATOM     58  O   UNL     1      -5.549   1.601  -0.964  1.00  0.00    -0.367 OA
ATOM     59  C   UNL     1      -4.985   0.359  -1.299  1.00  0.00     0.156 CG1
ATOM     60  H   UNL     1      -2.856   0.957   1.925  1.00  0.00     0.126 HD
ATOM     61  G   UNL     1      -3.764  -0.640   3.505  1.00  0.00     0.000 G0
ATOM     62  G   UNL     1      -4.436   0.304  -2.782  1.00  0.00     0.000 G1
BRANCH  54  63
ATOM     63  O   UNL     1      -4.034   2.971   0.977  1.00  0.00    -0.376 OA
ATOM     64  H   UNL     1      -3.660   2.827   0.072  1.00  0.00     0.212 HD
ENDBRANCH  54  63
BRANCH  57  65
ATOM     65  C   UNL     1      -7.255  -0.742  -1.647  1.00  0.00     0.162 C 
BRANCH  65  66
ATOM     66  O   UNL     1      -8.245  -1.559  -1.076  1.00  0.00    -0.396 OA
ATOM     67  H   UNL     1      -7.928  -2.496  -1.162  1.00  0.00     0.210 HD
ENDBRANCH  65  66
ENDBRANCH  57  65
ENDBRANCH  50  51
ENDBRANCH  14  49
TORSDOF 11
