REMARK SMILES CSC[C@H](NC(=O)Cc1c(C)c2cc3c(C)c(C)oc3cc2oc1=O)C(=O)N[C@@H](Cc1ccccc1)C(=O)O
REMARK SMILES IDX 26 1 27 2 28 3 4 5 3 6 2 7 1 8 5 9 6 10 7 11 8 13 9 14 10 15
REMARK SMILES IDX 24 16 12 17 23 18 25 19 13 20 22 21 14 22 21 23 20 24 15 25
REMARK SMILES IDX 19 26 17 27 11 28 16 29 18 30 29 31 30 32 31 33 32 34 36 35
REMARK SMILES IDX 33 36 35 37 34 38 37 39 38 40 39 41
REMARK H PARENT 28 4 5 12 39 42
ROOT
ATOM      1  C   UNL     1      -3.338  -0.316   1.137  1.00  0.00     0.244 C 
ATOM      2  O   UNL     1      -4.178  -1.194   1.013  1.00  0.00    -0.273 OA
ATOM      3  N   UNL     1      -3.583   0.936   0.633  1.00  0.00    -0.341 N 
ATOM      4  H   UNL     1      -2.874   1.676   0.728  1.00  0.00     0.164 HD
ENDROOT
BRANCH   1   5
ATOM      5  C   UNL     1      -2.029  -0.670   1.841  1.00  0.00     0.181 C 
BRANCH   5   6
ATOM      6  C   UNL     1      -2.250  -1.102   3.306  1.00  0.00     0.104 C 
BRANCH   6   7
ATOM      7  S   UNL     1      -3.404  -2.514   3.524  1.00  0.00    -0.163 SA
ATOM      8  C   UNL     1      -2.303  -3.803   2.861  1.00  0.00     0.085 C 
ENDBRANCH   6   7
ENDBRANCH   5   6
BRANCH   5   9
ATOM      9  N   UNL     1      -1.103   0.457   1.822  1.00  0.00    -0.343 N 
ATOM     10  C   UNL     1       0.082   0.438   1.151  1.00  0.00     0.225 C 
ATOM     11  O   UNL     1       0.441  -0.572   0.558  1.00  0.00    -0.275 OA
ATOM     12  H   UNL     1      -1.371   1.321   2.320  1.00  0.00     0.164 HD
BRANCH  10  13
ATOM     13  C   UNL     1       0.932   1.692   1.097  1.00  0.00     0.143 C 
BRANCH  13  14
ATOM     14  C   UNL     1       2.206   1.474   0.289  1.00  0.00     0.051 A 
ATOM     15  C   UNL     1       3.256   0.637   0.759  1.00  0.00    -0.029 A 
ATOM     16  C   UNL     1       2.350   2.090  -0.974  1.00  0.00     0.340 A 
ATOM     17  C   UNL     1       4.385   0.435  -0.071  1.00  0.00     0.022 A 
ATOM     18  O   UNL     1       3.425   1.873  -1.718  1.00  0.00    -0.422 OA
ATOM     19  O   UNL     1       1.476   2.817  -1.415  1.00  0.00    -0.246 OA
ATOM     20  C   UNL     1       5.471  -0.397   0.310  1.00  0.00     0.024 A 
ATOM     21  C   UNL     1       4.421   1.086  -1.341  1.00  0.00     0.142 A 
ATOM     22  C   UNL     1       6.524  -0.555  -0.586  1.00  0.00     0.024 A 
ATOM     23  C   UNL     1       5.508   0.898  -2.215  1.00  0.00     0.095 A 
ATOM     24  C   UNL     1       6.541   0.064  -1.805  1.00  0.00     0.138 A 
ATOM     25  C   UNL     1       7.682  -1.292  -0.504  1.00  0.00    -0.002 A 
ATOM     26  O   UNL     1       7.629  -0.250  -2.471  1.00  0.00    -0.461 OA
ATOM     27  C   UNL     1       8.338  -1.070  -1.713  1.00  0.00     0.105 A 
ATOM     28  C   UNL     1       3.194  -0.040   2.116  1.00  0.00     0.046 C 
ATOM     29  C   UNL     1       8.121  -2.144   0.646  1.00  0.00     0.049 C 
ATOM     30  C   UNL     1       9.645  -1.659  -2.130  1.00  0.00     0.088 C 
ENDBRANCH  13  14
ENDBRANCH  10  13
ENDBRANCH   5   9
ENDBRANCH   1   5
BRANCH   3  31
ATOM     31  C   UNL     1      -4.802   1.317  -0.074  1.00  0.00     0.196 C 
BRANCH  31  32
ATOM     32  C   UNL     1      -4.939   0.493  -1.382  1.00  0.00     0.072 C 
BRANCH  32  33
ATOM     33  C   UNL     1      -6.081   0.960  -2.254  1.00  0.00    -0.045 A 
ATOM     34  C   UNL     1      -7.154   0.098  -2.538  1.00  0.00     0.004 A 
ATOM     35  C   UNL     1      -6.086   2.261  -2.790  1.00  0.00     0.004 A 
ATOM     36  C   UNL     1      -8.217   0.533  -3.334  1.00  0.00     0.000 A 
ATOM     37  C   UNL     1      -7.151   2.691  -3.587  1.00  0.00     0.000 A 
ATOM     38  C   UNL     1      -8.217   1.828  -3.856  1.00  0.00     0.000 A 
ENDBRANCH  32  33
ENDBRANCH  31  32
BRANCH  31  39
ATOM     39  C   UNL     1      -6.046   1.236   0.812  1.00  0.00     0.326 C 
ATOM     40  O   UNL     1      -7.126   1.560   0.347  1.00  0.00    -0.250 OA
BRANCH  39  41
ATOM     41  O   UNL     1      -6.001   0.870   2.115  1.00  0.00    -0.480 OA
ATOM     42  H   UNL     1      -5.190   0.671   2.596  1.00  0.00     0.296 HD
ENDBRANCH  39  41
ENDBRANCH  31  39
ENDBRANCH   3  31
TORSDOF 11
