REMARK SMILES CC(=O)O[C@H]1[C@@H]2O[C@]2([C@H](C)[C@H]2CC(C)=C(C)C(=O)O2)[C@@]2(C)CC[C@H]3[C@@H](C[C@@H](O)[C@@]4(O)CC=CC(=O)[C@]34C)[C@@]12O
REMARK SMILES IDX 5 1 6 2 7 3 8 4 20 5 21 6 22 7 23 8 24 9 25 10 26 11 27 12
REMARK SMILES IDX 29 13 31 14 32 15 33 16 34 17 35 18 36 19 37 20 38 21 4 22
REMARK SMILES IDX 2 23 3 24 1 25 39 26 9 28 10 29 11 30 12 31 19 32 13 33
REMARK SMILES IDX 17 34 15 35 18 36 14 37 16 38 28 39 30 41
REMARK H PARENT 39 27 28 40 30 42
ROOT
ATOM      1  C   UNL     1       0.169   1.478   0.509  1.00  0.00     0.241 C 
ATOM      2  C   UNL     1       1.604   1.000   0.762  1.00  0.00     0.196 C 
ATOM      3  O   UNL     1       2.392   0.924  -0.407  1.00  0.00    -0.361 OA
ATOM      4  C   UNL     1       1.805  -0.280   0.049  1.00  0.00     0.113 C 
ATOM      5  C   UNL     1       0.465  -0.648  -0.651  1.00  0.00     0.033 C 
ATOM      6  C   UNL     1       0.747  -1.312  -2.024  1.00  0.00     0.018 C 
ATOM      7  C   UNL     1      -0.329  -1.626   0.248  1.00  0.00     0.013 C 
ATOM      8  C   UNL     1      -1.760  -1.838  -0.227  1.00  0.00     0.006 C 
ATOM      9  C   UNL     1      -2.550  -0.505  -0.161  1.00  0.00     0.012 C 
ATOM     10  C   UNL     1      -1.832   0.566  -1.068  1.00  0.00     0.032 C 
ATOM     11  C   UNL     1      -2.558   1.934  -0.972  1.00  0.00     0.042 C 
ATOM     12  C   UNL     1      -4.064   1.849  -1.271  1.00  0.00     0.148 C 
ATOM     13  C   UNL     1      -4.739   0.792  -0.348  1.00  0.00     0.107 C 
ATOM     14  C   UNL     1      -6.271   0.748  -0.576  1.00  0.00     0.066 C 
ATOM     15  C   UNL     1      -6.914  -0.229   0.374  1.00  0.00    -0.020 C 
ATOM     16  C   UNL     1      -6.257  -1.307   0.824  1.00  0.00     0.044 C 
ATOM     17  C   UNL     1      -4.867  -1.606   0.400  1.00  0.00     0.164 C 
ATOM     18  O   UNL     1      -4.440  -2.719   0.657  1.00  0.00    -0.294 OA
ATOM     19  C   UNL     1      -4.095  -0.648  -0.531  1.00  0.00     0.065 C 
ATOM     20  C   UNL     1      -4.277  -1.252  -1.959  1.00  0.00     0.023 C 
ATOM     21  C   UNL     1      -0.282   0.724  -0.786  1.00  0.00     0.116 C 
ENDROOT
BRANCH   1  22
ATOM     22  O   UNL     1      -0.576   1.141   1.624  1.00  0.00    -0.457 OA
BRANCH  22  23
ATOM     23  C   UNL     1      -1.182   2.025   2.463  1.00  0.00     0.303 C 
ATOM     24  O   UNL     1      -1.126   3.231   2.263  1.00  0.00    -0.253 OA
ATOM     25  C   UNL     1      -1.904   1.512   3.664  1.00  0.00     0.139 C 
ENDBRANCH  22  23
ENDBRANCH   1  22
BRANCH  21  26
ATOM     26  O   UNL     1       0.290   1.403  -1.893  1.00  0.00    -0.385 OA
ATOM     27  H   UNL     1       0.047   2.362  -1.857  1.00  0.00     0.211 HD
ENDBRANCH  21  26
BRANCH   4  28
ATOM     28  C   UNL     1       2.791  -1.324   0.682  1.00  0.00     0.063 C 
ATOM     29  C   UNL     1       2.426  -1.635   2.150  1.00  0.00     0.015 C 
BRANCH  28  30
ATOM     30  C   UNL     1       4.296  -0.952   0.611  1.00  0.00     0.186 C 
ATOM     31  C   UNL     1       4.859  -0.877  -0.820  1.00  0.00     0.077 C 
ATOM     32  O   UNL     1       4.564   0.222   1.290  1.00  0.00    -0.458 OA
ATOM     33  C   UNL     1       6.330  -0.490  -0.773  1.00  0.00    -0.059 C 
ATOM     34  C   UNL     1       5.811   0.754   1.273  1.00  0.00     0.333 C 
ATOM     35  C   UNL     1       6.784   0.313   0.232  1.00  0.00     0.033 C 
ATOM     36  O   UNL     1       6.120   1.591   2.106  1.00  0.00    -0.247 OA
ATOM     37  C   UNL     1       7.230  -0.980  -1.881  1.00  0.00     0.040 C 
ATOM     38  C   UNL     1       8.216   0.787   0.345  1.00  0.00     0.052 C 
ENDBRANCH  28  30
ENDBRANCH   4  28
BRANCH  12  39
ATOM     39  O   UNL     1      -4.292   1.568  -2.626  1.00  0.00    -0.390 OA
ATOM     40  H   UNL     1      -4.079   2.395  -3.133  1.00  0.00     0.211 HD
ENDBRANCH  12  39
BRANCH  13  41
ATOM     41  O   UNL     1      -4.525   1.184   0.998  1.00  0.00    -0.386 OA
ATOM     42  H   UNL     1      -4.927   2.081   1.139  1.00  0.00     0.211 HD
ENDBRANCH  13  41
TORSDOF 7
