REMARK SMILES CC1(C)CC[C@]2(C(=O)O[C@@H]3O[C@H](CO)[C@@H](O)[C@H](O)[C@H]3O)CC[C@]3(C)C(=CC[C@H]4[C@@]5(C)C[C@@H](O)[C@H](O)[C@](C)(CO)[C@H]5CC[C@]43C)[C@H]2[C@@H]1O
REMARK SMILES IDX 7 1 8 2 6 3 2 4 4 5 46 6 5 7 45 8 25 9 21 10 23 11 26 12
REMARK SMILES IDX 22 13 43 14 27 15 42 16 28 17 41 18 29 19 40 20 31 21 36 22
REMARK SMILES IDX 32 23 34 24 1 25 3 26 24 27 44 28 30 29 37 30 47 31 38 33
REMARK SMILES IDX 39 34 33 36 35 38 9 40 10 41 11 42 19 43 12 44 17 45 15 46
REMARK SMILES IDX 20 47 13 49 14 50 18 52 16 54
REMARK H PARENT 47 32 39 35 33 37 35 39 20 48 14 51 18 53 16 55
ROOT
ATOM      1  C   UNL     1       2.596   0.424   1.351  1.00  0.00     0.315 C 
ATOM      2  O   UNL     1       2.666   1.637   1.507  1.00  0.00    -0.252 OA
ENDROOT
BRANCH   1   3
ATOM      3  C   UNL     1       1.937  -0.466   2.426  1.00  0.00     0.077 C 
ATOM      4  C   UNL     1       2.733  -3.458   2.260  1.00  0.00    -0.009 C 
ATOM      5  C   UNL     1       2.951  -2.563   3.535  1.00  0.00     0.010 C 
ATOM      6  C   UNL     1       1.777  -2.758   1.201  1.00  0.00     0.128 C 
ATOM      7  C   UNL     1       3.177  -1.101   3.164  1.00  0.00     0.020 C 
ATOM      8  C   UNL     1       0.979  -1.594   1.853  1.00  0.00     0.062 C 
ATOM      9  C   UNL     1      -0.200  -0.972   1.087  1.00  0.00    -0.061 C 
ATOM     10  C   UNL     1       1.070   0.432   3.405  1.00  0.00     0.020 C 
ATOM     11  C   UNL     1      -1.127  -0.005   1.847  1.00  0.00    -0.006 C 
ATOM     12  C   UNL     1      -0.460  -1.237  -0.210  1.00  0.00    -0.026 C 
ATOM     13  C   UNL     1      -0.476   0.280   3.273  1.00  0.00     0.013 C 
ATOM     14  C   UNL     1      -1.435   1.298   0.902  1.00  0.00    -0.020 C 
ATOM     15  C   UNL     1      -1.668  -0.645  -0.884  1.00  0.00     0.032 C 
ATOM     16  C   UNL     1      -2.561   2.236   1.484  1.00  0.00     0.008 C 
ATOM     17  C   UNL     1      -1.741   0.877  -0.639  1.00  0.00     0.006 C 
ATOM     18  C   UNL     1      -3.982   1.846   1.066  1.00  0.00     0.005 C 
ATOM     19  C   UNL     1      -2.925   1.672  -1.359  1.00  0.00    -0.023 C 
ATOM     20  C   UNL     1      -4.262   1.804  -0.474  1.00  0.00     0.006 C 
ATOM     21  C   UNL     1      -3.225   1.186  -2.836  1.00  0.00     0.042 C 
ATOM     22  C   UNL     1      -5.529   0.868  -0.822  1.00  0.00     0.022 C 
ATOM     23  C   UNL     1      -4.346   0.155  -3.034  1.00  0.00     0.144 C 
ATOM     24  C   UNL     1      -5.649   0.666  -2.378  1.00  0.00     0.151 C 
ATOM     25  C   UNL     1       2.159  -4.805   2.765  1.00  0.00     0.014 C 
ATOM     26  C   UNL     1       4.079  -3.767   1.563  1.00  0.00     0.014 C 
ATOM     27  C   UNL     1      -2.428  -0.782   2.228  1.00  0.00     0.017 C 
ATOM     28  C   UNL     1      -0.169   2.181   0.864  1.00  0.00     0.012 C 
ATOM     29  C   UNL     1      -2.357   3.120  -1.629  1.00  0.00     0.012 C 
ATOM     30  C   UNL     1      -5.512  -0.544  -0.152  1.00  0.00     0.017 C 
BRANCH   6  31
ATOM     31  O   UNL     1       0.952  -3.708   0.564  1.00  0.00    -0.392 OA
ATOM     32  H   UNL     1       0.173  -3.885   1.154  1.00  0.00     0.211 HD
ENDBRANCH   6  31
BRANCH  22  33
ATOM     33  C   UNL     1      -6.860   1.539  -0.338  1.00  0.00     0.165 C 
BRANCH  33  34
ATOM     34  O   UNL     1      -6.911   1.695   1.057  1.00  0.00    -0.396 OA
ATOM     35  H   UNL     1      -7.470   0.959   1.420  1.00  0.00     0.210 HD
ENDBRANCH  33  34
ENDBRANCH  22  33
BRANCH  23  36
ATOM     36  O   UNL     1      -3.969  -1.109  -2.569  1.00  0.00    -0.390 OA
ATOM     37  H   UNL     1      -4.624  -1.760  -2.936  1.00  0.00     0.211 HD
ENDBRANCH  23  36
BRANCH  24  38
ATOM     38  O   UNL     1      -6.098   1.825  -3.049  1.00  0.00    -0.390 OA
ATOM     39  H   UNL     1      -5.594   2.613  -2.724  1.00  0.00     0.211 HD
ENDBRANCH  24  38
ENDBRANCH   1   3
BRANCH   1  40
ATOM     40  O   UNL     1       3.258  -0.146   0.311  1.00  0.00    -0.432 OA
BRANCH  40  41
ATOM     41  C   UNL     1       4.096   0.507  -0.581  1.00  0.00     0.342 C 
ATOM     42  O   UNL     1       3.496   0.519  -1.867  1.00  0.00    -0.332 OA
ATOM     43  C   UNL     1       5.471  -0.218  -0.621  1.00  0.00     0.214 C 
ATOM     44  C   UNL     1       4.213   1.429  -2.699  1.00  0.00     0.179 C 
ATOM     45  C   UNL     1       6.043  -0.280  -2.066  1.00  0.00     0.180 C 
ATOM     46  C   UNL     1       5.707   0.980  -2.901  1.00  0.00     0.177 C 
BRANCH  43  47
ATOM     47  O   UNL     1       6.366   0.344   0.308  1.00  0.00    -0.384 OA
ATOM     48  H   UNL     1       6.538   1.281   0.045  1.00  0.00     0.211 HD
ENDBRANCH  43  47
BRANCH  44  49
ATOM     49  C   UNL     1       3.475   1.591  -4.033  1.00  0.00     0.191 C 
BRANCH  49  50
ATOM     50  O   UNL     1       4.122   2.528  -4.852  1.00  0.00    -0.394 OA
ATOM     51  H   UNL     1       3.931   3.423  -4.468  1.00  0.00     0.210 HD
ENDBRANCH  49  50
ENDBRANCH  44  49
BRANCH  45  52
ATOM     52  O   UNL     1       5.533  -1.417  -2.731  1.00  0.00    -0.387 OA
ATOM     53  H   UNL     1       4.543  -1.411  -2.704  1.00  0.00     0.211 HD
ENDBRANCH  45  52
BRANCH  46  54
ATOM     54  O   UNL     1       6.602   2.035  -2.650  1.00  0.00    -0.387 OA
ATOM     55  H   UNL     1       6.371   2.446  -1.781  1.00  0.00     0.211 HD
ENDBRANCH  46  54
ENDBRANCH  40  41
ENDBRANCH   1  40
TORSDOF 13
