REMARK SMILES C=C1C[C@@]23C[C@H]4[C@@H]5[C@]6(C)CN4[C@H]4[C@]5(C[C@@H](OC(=O)[C@H](C)CC)[C@H]6OC(C)=O)[C@@H]2[C@H](O)[C@@H]1[C@@H](O)[C@]43OC(C)=O
REMARK SMILES IDX 16 1 15 2 1 3 2 4 3 5 31 6 4 7 29 8 32 9 5 10 28 11 34 12
REMARK SMILES IDX 6 13 13 14 12 15 7 16 11 17 14 18 8 19 10 20 23 21 9 22
REMARK SMILES IDX 30 23 33 25 35 27 36 28 38 29 37 30 24 31 25 32 27 33 26 34
REMARK SMILES IDX 17 35 18 36 19 37 20 38 21 39 22 40
REMARK H PARENT 30 24 33 26
ROOT
ATOM      1  O   UNL     1       3.192  -0.148   0.074  1.00  0.00    -0.458 OA
ENDROOT
BRANCH   1   2
ATOM      2  C   UNL     1       1.954   0.119   0.653  1.00  0.00     0.218 C 
ATOM      3  C   UNL     1      -4.703  -3.960  -0.477  1.00  0.00     0.008 C 
ATOM      4  C   UNL     1      -3.895  -2.913  -0.272  1.00  0.00    -0.068 C 
ATOM      5  C   UNL     1      -3.920  -2.139   1.022  1.00  0.00     0.042 C 
ATOM      6  C   UNL     1      -2.894  -2.439  -1.312  1.00  0.00     0.076 C 
ATOM      7  C   UNL     1      -2.856  -1.018   0.939  1.00  0.00     0.026 C 
ATOM      8  C   UNL     1      -1.520  -2.551  -0.632  1.00  0.00     0.128 C 
ATOM      9  C   UNL     1      -3.198  -0.955  -1.617  1.00  0.00     0.170 C 
ATOM     10  C   UNL     1      -2.862  -0.148   2.217  1.00  0.00     0.031 C 
ATOM     11  C   UNL     1      -1.425  -1.585   0.641  1.00  0.00     0.038 C 
ATOM     12  C   UNL     1      -3.043  -0.087  -0.299  1.00  0.00     0.161 C 
ATOM     13  C   UNL     1      -1.827   0.995   2.080  1.00  0.00     0.062 C 
ATOM     14  C   UNL     1      -0.625  -0.257   0.464  1.00  0.00     0.005 C 
ATOM     15  C   UNL     1      -1.688   0.712  -0.203  1.00  0.00     0.111 C 
ATOM     16  C   UNL     1      -0.450   0.475   1.851  1.00  0.00     0.026 C 
ATOM     17  N   UNL     1      -1.931   1.760   0.828  1.00  0.00    -0.292 NA
ATOM     18  C   UNL     1       0.803  -0.478  -0.172  1.00  0.00     0.059 C 
ATOM     19  C   UNL     1       0.348   1.816   1.636  1.00  0.00     0.026 C 
ATOM     20  C   UNL     1      -0.739   2.633   0.874  1.00  0.00     0.096 C 
ATOM     21  C   UNL     1       1.718   1.608   0.864  1.00  0.00     0.224 C 
ATOM     22  C   UNL     1       0.673   2.501   2.993  1.00  0.00     0.017 C 
BRANCH   8  23
ATOM     23  O   UNL     1      -0.471  -2.454  -1.563  1.00  0.00    -0.392 OA
ATOM     24  H   UNL     1      -0.645  -1.686  -2.163  1.00  0.00     0.210 HD
ENDBRANCH   8  23
BRANCH   9  25
ATOM     25  O   UNL     1      -4.489  -0.853  -2.183  1.00  0.00    -0.388 OA
ATOM     26  H   UNL     1      -5.165  -1.053  -1.485  1.00  0.00     0.211 HD
ENDBRANCH   9  25
BRANCH  12  27
ATOM     27  O   UNL     1      -4.149   0.742  -0.121  1.00  0.00    -0.454 OA
BRANCH  27  28
ATOM     28  C   UNL     1      -4.534   1.787  -0.899  1.00  0.00     0.303 C 
ATOM     29  O   UNL     1      -3.913   2.084  -1.911  1.00  0.00    -0.253 OA
ATOM     30  C   UNL     1      -5.729   2.589  -0.493  1.00  0.00     0.139 C 
ENDBRANCH  27  28
ENDBRANCH  12  27
BRANCH  21  31
ATOM     31  O   UNL     1       1.736   2.265  -0.359  1.00  0.00    -0.458 OA
BRANCH  31  32
ATOM     32  C   UNL     1       2.608   3.243  -0.725  1.00  0.00     0.303 C 
ATOM     33  O   UNL     1       3.498   3.613   0.027  1.00  0.00    -0.253 OA
ATOM     34  C   UNL     1       2.469   3.885  -2.067  1.00  0.00     0.139 C 
ENDBRANCH  31  32
ENDBRANCH  21  31
ENDBRANCH   1   2
BRANCH   1  35
ATOM     35  C   UNL     1       4.165  -0.892   0.688  1.00  0.00     0.309 C 
ATOM     36  O   UNL     1       3.995  -1.340   1.815  1.00  0.00    -0.252 OA
BRANCH  35  37
ATOM     37  C   UNL     1       5.472  -1.192   0.001  1.00  0.00     0.096 C 
ATOM     38  C   UNL     1       6.223   0.116  -0.272  1.00  0.00     0.020 C 
BRANCH  37  39
ATOM     39  C   UNL     1       5.216  -2.024  -1.272  1.00  0.00     0.011 C 
ATOM     40  C   UNL     1       6.506  -2.545  -1.911  1.00  0.00     0.005 C 
ENDBRANCH  37  39
ENDBRANCH  35  37
ENDBRANCH   1  35
TORSDOF 10
