REMARK SMILES CCCCCCCCCCCCCCCCCCCC(=O)O[C@@H](COC(=O)CCCCCCCCCCCCCCC)C[C@@H]1O[C@H](CN)[C@@H](O)[C@H](O)[C@H]1O
REMARK SMILES IDX 20 1 21 2 19 3 18 4 17 5 16 6 15 7 14 8 13 9 12 10 11 11
REMARK SMILES IDX 10 12 9 13 8 14 7 15 6 16 5 17 4 18 3 19 2 20 1 21 22 22
REMARK SMILES IDX 23 23 24 24 25 25 26 26 27 27 28 28 29 29 30 30 31 31 32 32
REMARK SMILES IDX 33 33 34 34 35 35 36 36 37 37 38 38 39 39 40 40 41 41 42 42
REMARK SMILES IDX 43 43 44 44 45 45 53 46 46 47 51 48 49 49 54 50 47 52 48 53
REMARK SMILES IDX 52 56 50 58
REMARK H PARENT 54 51 48 54 48 55 52 57 50 59
ROOT
ATOM      1  C   UNL     1       0.736  -1.958  -0.469  1.00  0.00     0.306 C 
ATOM      2  O   UNL     1       1.010  -2.910   0.248  1.00  0.00    -0.252 OA
ENDROOT
BRANCH   1   3
ATOM      3  C   UNL     1       1.736  -1.442  -1.467  1.00  0.00     0.123 C 
BRANCH   3   4
ATOM      4  C   UNL     1       3.083  -2.190  -1.419  1.00  0.00     0.012 C 
BRANCH   4   5
ATOM      5  C   UNL     1       3.817  -2.080  -0.060  1.00  0.00     0.001 C 
BRANCH   5   6
ATOM      6  C   UNL     1       4.196  -0.644   0.350  1.00  0.00     0.000 C 
BRANCH   6   7
ATOM      7  C   UNL     1       5.171   0.045  -0.621  1.00  0.00     0.000 C 
BRANCH   7   8
ATOM      8  C   UNL     1       6.444  -0.772  -0.902  1.00  0.00     0.000 C 
BRANCH   8   9
ATOM      9  C   UNL     1       7.238  -1.105   0.375  1.00  0.00     0.000 C 
BRANCH   9  10
ATOM     10  C   UNL     1       8.435  -2.030   0.107  1.00  0.00     0.000 C 
BRANCH  10  11
ATOM     11  C   UNL     1       9.435  -1.501  -0.927  1.00  0.00     0.000 C 
BRANCH  11  12
ATOM     12  C   UNL     1      10.026  -0.147  -0.528  1.00  0.00     0.000 C 
BRANCH  12  13
ATOM     13  C   UNL     1      11.027   0.314  -1.586  1.00  0.00    -0.000 C 
BRANCH  13  14
ATOM     14  C   UNL     1      11.625   1.693  -1.295  1.00  0.00    -0.000 C 
BRANCH  14  15
ATOM     15  C   UNL     1      12.435   1.744   0.018  1.00  0.00    -0.000 C 
BRANCH  15  16
ATOM     16  C   UNL     1      13.132   3.098   0.242  1.00  0.00    -0.000 C 
BRANCH  16  17
ATOM     17  C   UNL     1      14.222   3.361  -0.817  1.00  0.00    -0.000 C 
BRANCH  17  18
ATOM     18  C   UNL     1      14.968   4.690  -0.653  1.00  0.00    -0.000 C 
BRANCH  18  19
ATOM     19  C   UNL     1      16.241   4.724   0.223  1.00  0.00    -0.000 C 
BRANCH  19  20
ATOM     20  C   UNL     1      16.104   4.482   1.734  1.00  0.00    -0.003 C 
ATOM     21  C   UNL     1      16.216   3.010   2.147  1.00  0.00     0.004 C 
ENDBRANCH  19  20
ENDBRANCH  18  19
ENDBRANCH  17  18
ENDBRANCH  16  17
ENDBRANCH  15  16
ENDBRANCH  14  15
ENDBRANCH  13  14
ENDBRANCH  12  13
ENDBRANCH  11  12
ENDBRANCH  10  11
ENDBRANCH   9  10
ENDBRANCH   8   9
ENDBRANCH   7   8
ENDBRANCH   6   7
ENDBRANCH   5   6
ENDBRANCH   4   5
ENDBRANCH   3   4
ENDBRANCH   1   3
BRANCH   1  22
ATOM     22  O   UNL     1      -0.470  -1.349  -0.369  1.00  0.00    -0.459 OA
BRANCH  22  23
ATOM     23  C   UNL     1      -1.425  -1.682   0.575  1.00  0.00     0.216 C 
BRANCH  23  24
ATOM     24  C   UNL     1      -1.502  -0.518   1.593  1.00  0.00     0.278 C 
BRANCH  24  25
ATOM     25  O   UNL     1      -2.383  -0.759   2.641  1.00  0.00    -0.462 OA
BRANCH  25  26
ATOM     26  C   UNL     1      -3.726  -0.568   2.594  1.00  0.00     0.305 C 
ATOM     27  O   UNL     1      -4.239  -0.111   1.576  1.00  0.00    -0.252 OA
BRANCH  26  28
ATOM     28  C   UNL     1      -4.569  -0.930   3.790  1.00  0.00     0.123 C 
BRANCH  28  29
ATOM     29  C   UNL     1      -6.087  -0.755   3.587  1.00  0.00     0.012 C 
BRANCH  29  30
ATOM     30  C   UNL     1      -6.504   0.705   3.344  1.00  0.00     0.001 C 
BRANCH  30  31
ATOM     31  C   UNL     1      -8.014   0.804   3.105  1.00  0.00     0.000 C 
BRANCH  31  32
ATOM     32  C   UNL     1      -8.477   2.220   2.728  1.00  0.00     0.000 C 
BRANCH  32  33
ATOM     33  C   UNL     1      -7.886   2.692   1.379  1.00  0.00     0.000 C 
BRANCH  33  34
ATOM     34  C   UNL     1      -8.482   4.018   0.884  1.00  0.00     0.000 C 
BRANCH  34  35
ATOM     35  C   UNL     1      -9.986   4.006   0.528  1.00  0.00     0.000 C 
BRANCH  35  36
ATOM     36  C   UNL     1     -10.386   3.382  -0.831  1.00  0.00    -0.000 C 
BRANCH  36  37
ATOM     37  C   UNL     1     -10.215   1.865  -1.052  1.00  0.00    -0.000 C 
BRANCH  37  38
ATOM     38  C   UNL     1     -10.927   0.954  -0.030  1.00  0.00    -0.000 C 
BRANCH  38  39
ATOM     39  C   UNL     1     -12.433   1.212   0.139  1.00  0.00    -0.000 C 
BRANCH  39  40
ATOM     40  C   UNL     1     -13.225   1.025  -1.167  1.00  0.00    -0.000 C 
BRANCH  40  41
ATOM     41  C   UNL     1     -14.737   1.226  -0.988  1.00  0.00    -0.003 C 
ATOM     42  C   UNL     1     -15.108   2.647  -0.558  1.00  0.00     0.004 C 
ENDBRANCH  40  41
ENDBRANCH  39  40
ENDBRANCH  38  39
ENDBRANCH  37  38
ENDBRANCH  36  37
ENDBRANCH  35  36
ENDBRANCH  34  35
ENDBRANCH  33  34
ENDBRANCH  32  33
ENDBRANCH  31  32
ENDBRANCH  30  31
ENDBRANCH  29  30
ENDBRANCH  28  29
ENDBRANCH  26  28
ENDBRANCH  25  26
ENDBRANCH  24  25
ENDBRANCH  23  24
BRANCH  23  43
ATOM     43  C   UNL     1      -2.773  -1.948  -0.108  1.00  0.00     0.084 C 
BRANCH  43  44
ATOM     44  C   UNL     1      -2.916  -3.052  -1.178  1.00  0.00     0.154 C 
ATOM     45  O   UNL     1      -4.319  -3.066  -1.403  1.00  0.00    -0.368 OA
ATOM     46  C   UNL     1      -2.380  -4.427  -0.687  1.00  0.00     0.174 C 
ATOM     47  C   UNL     1      -4.845  -4.143  -2.159  1.00  0.00     0.163 C 
ATOM     48  C   UNL     1      -2.819  -5.542  -1.643  1.00  0.00     0.177 C 
ATOM     49  C   UNL     1      -4.344  -5.532  -1.690  1.00  0.00     0.176 C 
BRANCH  46  50
ATOM     50  O   UNL     1      -0.984  -4.432  -0.570  1.00  0.00    -0.388 OA
ATOM     51  H   UNL     1      -0.606  -4.292  -1.478  1.00  0.00     0.211 HD
ENDBRANCH  46  50
BRANCH  47  52
ATOM     52  C   UNL     1      -6.375  -4.039  -2.008  1.00  0.00     0.112 C 
BRANCH  52  53
ATOM     53  N   UNL     1      -6.758  -3.918  -0.598  1.00  0.00    -0.328 NA
ATOM     54  H   UNL     1      -6.549  -4.793  -0.069  1.00  0.00     0.118 HD
ATOM     55  H   UNL     1      -7.788  -3.741  -0.530  1.00  0.00     0.118 HD
ENDBRANCH  52  53
ENDBRANCH  47  52
BRANCH  48  56
ATOM     56  O   UNL     1      -2.333  -6.794  -1.222  1.00  0.00    -0.388 OA
ATOM     57  H   UNL     1      -2.654  -6.951  -0.295  1.00  0.00     0.211 HD
ENDBRANCH  48  56
BRANCH  49  58
ATOM     58  O   UNL     1      -4.832  -6.554  -2.523  1.00  0.00    -0.388 OA
ATOM     59  H   UNL     1      -4.465  -6.401  -3.434  1.00  0.00     0.211 HD
ENDBRANCH  49  58
ENDBRANCH  43  44
ENDBRANCH  23  43
ENDBRANCH  22  23
ENDBRANCH   1  22
TORSDOF 44
