REMARK SMILES COc1ccccc1C(=O)N1CCN2C(=O)N(Cc3ccccn3)C[C@H]2C1
REMARK SMILES IDX 9 1 10 2 8 3 3 4 4 5 5 6 7 7 6 8 2 9 1 10 11 11 12 12 27 13
REMARK SMILES IDX 13 14 26 15 14 16 25 17 15 18 17 19 16 20 18 21 19 22 20 23
REMARK SMILES IDX 24 24 21 25 23 26 22 27
REMARK H PARENT
ROOT
ATOM      1  C   UNL     1      -2.911  -0.965  -0.983  1.00  0.00     0.257 C 
ATOM      2  O   UNL     1      -3.595  -1.832  -1.510  1.00  0.00    -0.269 OA
ENDROOT
BRANCH   1   3
ATOM      3  C   UNL     1      -3.638   0.249  -0.475  1.00  0.00     0.082 A 
ATOM      4  C   UNL     1      -4.892   0.098   0.172  1.00  0.00     0.131 A 
ATOM      5  C   UNL     1      -5.580   1.242   0.633  1.00  0.00     0.047 A 
ATOM      6  C   UNL     1      -5.047   2.515   0.443  1.00  0.00     0.004 A 
ATOM      7  C   UNL     1      -3.133   1.551  -0.669  1.00  0.00     0.018 A 
ATOM      8  C   UNL     1      -3.830   2.669  -0.212  1.00  0.00     0.001 A 
BRANCH   4   9
ATOM      9  O   UNL     1      -5.394  -1.154   0.357  1.00  0.00    -0.496 OA
ATOM     10  C   UNL     1      -6.571  -1.469   1.005  1.00  0.00     0.278 C 
ENDBRANCH   4   9
ENDBRANCH   1   3
BRANCH   1  11
ATOM     11  N   UNL     1      -1.556  -1.185  -0.826  1.00  0.00    -0.335 N 
ATOM     12  C   UNL     1      -0.928  -2.385  -1.413  1.00  0.00     0.141 C 
ATOM     13  C   UNL     1      -0.700  -0.285  -0.026  1.00  0.00     0.147 C 
ATOM     14  C   UNL     1       0.347  -1.962  -2.169  1.00  0.00     0.143 C 
ATOM     15  C   UNL     1       0.735  -0.830   0.060  1.00  0.00     0.126 C 
ATOM     16  N   UNL     1       1.144  -1.128  -1.286  1.00  0.00    -0.316 N 
ATOM     17  C   UNL     1       1.799   0.176   0.559  1.00  0.00     0.148 C 
ATOM     18  C   UNL     1       2.256  -0.450  -1.593  1.00  0.00     0.320 C 
ATOM     19  N   UNL     1       2.693   0.324  -0.577  1.00  0.00    -0.317 N 
ATOM     20  O   UNL     1       2.793  -0.500  -2.690  1.00  0.00    -0.248 OA
BRANCH  19  21
ATOM     21  C   UNL     1       3.840   1.221  -0.640  1.00  0.00     0.177 C 
BRANCH  21  22
ATOM     22  C   UNL     1       4.907   0.875   0.365  1.00  0.00     0.060 A 
ATOM     23  C   UNL     1       4.694   1.019   1.746  1.00  0.00     0.026 A 
ATOM     24  N   UNL     1       6.121   0.448  -0.082  1.00  0.00    -0.259 NA
ATOM     25  C   UNL     1       5.723   0.703   2.636  1.00  0.00     0.004 A 
ATOM     26  C   UNL     1       7.135   0.137   0.769  1.00  0.00     0.111 A 
ATOM     27  C   UNL     1       6.952   0.257   2.148  1.00  0.00     0.020 A 
ENDBRANCH  21  22
ENDBRANCH  19  21
ENDBRANCH   1  11
TORSDOF 5
