REMARK SMILES CC(=O)c1cc2c(c(O[C@@H]3O[C@H](CO[C@@H]4OC[C@](O)(CO)[C@H]4O)[C@@H](O)[C@H](O)[C@H]3O)c1)OC(C)(C)C=C2
REMARK SMILES IDX 13 1 12 2 10 3 11 4 28 5 26 6 24 7 9 8 8 9 4 10 5 11 30 12
REMARK SMILES IDX 6 13 7 14 36 15 31 16 35 17 32 18 33 19 34 20 2 21 3 22 1 23
REMARK SMILES IDX 29 24 27 26 25 28 14 30 15 31 16 32 22 33 17 34 18 35 23 36
REMARK SMILES IDX 19 38 20 40 21 41
REMARK H PARENT 29 25 27 27 25 29 23 37 19 39 21 42
ROOT
ATOM      1  C   UNL     1       1.607   0.715   1.246  1.00  0.00     0.198 C 
ENDROOT
BRANCH   1   2
ATOM      2  C   UNL     1       1.272  -0.563   2.051  1.00  0.00     0.180 C 
ATOM      3  C   UNL     1      -0.907  -1.441   1.555  1.00  0.00     0.339 C 
ATOM      4  O   UNL     1      -0.123  -0.605   2.386  1.00  0.00    -0.332 OA
ATOM      5  C   UNL     1      -0.430  -2.927   1.586  1.00  0.00     0.214 C 
ATOM      6  C   UNL     1       1.060  -3.055   1.963  1.00  0.00     0.180 C 
ATOM      7  C   UNL     1       1.816  -1.867   1.378  1.00  0.00     0.177 C 
BRANCH   3   8
ATOM      8  O   UNL     1      -0.910  -0.921   0.264  1.00  0.00    -0.458 OA
BRANCH   8   9
ATOM      9  C   UNL     1      -1.899  -0.316  -0.469  1.00  0.00     0.166 A 
ATOM     10  C   UNL     1      -2.443   0.761  -2.611  1.00  0.00     0.022 A 
ATOM     11  C   UNL     1      -3.749   0.994  -2.155  1.00  0.00     0.024 A 
ATOM     12  C   UNL     1      -1.535   0.105  -1.758  1.00  0.00     0.062 A 
ATOM     13  C   UNL     1      -4.138   0.585  -0.879  1.00  0.00     0.021 A 
ATOM     14  C   UNL     1      -3.231  -0.065  -0.027  1.00  0.00     0.169 A 
ATOM     15  C   UNL     1      -5.508   0.837  -0.406  1.00  0.00     0.012 C 
ATOM     16  O   UNL     1      -3.658  -0.432   1.205  1.00  0.00    -0.479 OA
ATOM     17  C   UNL     1      -5.880   0.450   0.817  1.00  0.00     0.021 C 
ATOM     18  C   UNL     1      -4.921  -0.255   1.760  1.00  0.00     0.122 C 
ATOM     19  C   UNL     1      -5.489  -1.637   2.106  1.00  0.00     0.061 C 
ATOM     20  C   UNL     1      -4.769   0.582   3.035  1.00  0.00     0.061 C 
BRANCH  10  21
ATOM     21  C   UNL     1      -2.016   1.205  -3.970  1.00  0.00     0.159 C 
ATOM     22  O   UNL     1      -0.873   0.985  -4.349  1.00  0.00    -0.295 OA
ATOM     23  C   UNL     1      -2.949   1.930  -4.899  1.00  0.00     0.093 C 
ENDBRANCH  10  21
ENDBRANCH   8   9
ENDBRANCH   3   8
BRANCH   5  24
ATOM     24  O   UNL     1      -1.203  -3.713   2.460  1.00  0.00    -0.384 OA
ATOM     25  H   UNL     1      -1.161  -3.292   3.358  1.00  0.00     0.211 HD
ENDBRANCH   5  24
BRANCH   6  26
ATOM     26  O   UNL     1       1.581  -4.293   1.547  1.00  0.00    -0.387 OA
ATOM     27  H   UNL     1       1.606  -4.290   0.554  1.00  0.00     0.211 HD
ENDBRANCH   6  26
BRANCH   7  28
ATOM     28  O   UNL     1       3.204  -2.000   1.564  1.00  0.00    -0.387 OA
ATOM     29  H   UNL     1       3.375  -2.078   2.539  1.00  0.00     0.211 HD
ENDBRANCH   7  28
ENDBRANCH   1   2
BRANCH   1  30
ATOM     30  O   UNL     1       2.997   1.000   1.262  1.00  0.00    -0.347 OA
BRANCH  30  31
ATOM     31  C   UNL     1       3.669   0.529   0.106  1.00  0.00     0.281 C 
ATOM     32  O   UNL     1       4.955   0.075   0.469  1.00  0.00    -0.347 OA
ATOM     33  C   UNL     1       3.881   1.641  -0.933  1.00  0.00     0.207 C 
ATOM     34  C   UNL     1       5.640   0.054  -0.760  1.00  0.00     0.204 C 
ATOM     35  C   UNL     1       5.320   1.389  -1.432  1.00  0.00     0.142 C 
BRANCH  33  36
ATOM     36  O   UNL     1       2.900   1.608  -1.943  1.00  0.00    -0.385 OA
ATOM     37  H   UNL     1       2.952   0.723  -2.389  1.00  0.00     0.211 HD
ENDBRANCH  33  36
BRANCH  35  38
ATOM     38  O   UNL     1       5.390   1.293  -2.834  1.00  0.00    -0.382 OA
ATOM     39  H   UNL     1       6.280   0.914  -3.063  1.00  0.00     0.211 HD
ENDBRANCH  35  38
BRANCH  35  40
ATOM     40  C   UNL     1       6.285   2.502  -0.945  1.00  0.00     0.196 C 
BRANCH  40  41
ATOM     41  O   UNL     1       6.280   2.623   0.456  1.00  0.00    -0.393 OA
ATOM     42  H   UNL     1       5.834   3.482   0.677  1.00  0.00     0.210 HD
ENDBRANCH  40  41
ENDBRANCH  35  40
ENDBRANCH  30  31
ENDBRANCH   1  30
TORSDOF 13
