REMARK SMILES Cc1cc(O)c2c(c1)C(=O)c1cccc(O[C@H]3O[C@@H](COC(=O)CC(=O)O)[C@@H](O)[C@@H](O)[C@@H]3O)c1C2=O
REMARK SMILES IDX 20 1 19 2 17 3 18 4 32 5 30 6 28 7 16 8 15 9 2 10 3 11 8 12
REMARK SMILES IDX 4 13 7 14 6 15 9 16 35 17 11 18 10 19 36 20 34 21 12 22
REMARK SMILES IDX 13 23 14 24 1 25 5 26 33 28 31 30 29 32 21 34 22 35 23 36
REMARK SMILES IDX 24 37 25 38 26 39 27 40
REMARK H PARENT 5 27 33 29 31 31 29 33 27 41
ROOT
ATOM      1  C   UNL     1       3.914   0.060  -1.413  1.00  0.00     0.267 C 
ENDROOT
BRANCH   1   2
ATOM      2  C   UNL     1       3.042  -0.578  -0.325  1.00  0.00     0.191 C 
ATOM      3  C   UNL     1       0.967  -1.636   0.081  1.00  0.00     0.339 C 
ATOM      4  O   UNL     1       1.710  -0.743  -0.768  1.00  0.00    -0.331 OA
ATOM      5  C   UNL     1       1.443  -1.657   1.580  1.00  0.00     0.214 C 
ATOM      6  C   UNL     1       1.899  -0.236   1.965  1.00  0.00     0.181 C 
ATOM      7  C   UNL     1       3.076   0.197   1.035  1.00  0.00     0.178 C 
BRANCH   3   8
ATOM      8  O   UNL     1      -0.360  -1.219   0.053  1.00  0.00    -0.461 OA
BRANCH   8   9
ATOM      9  C   UNL     1      -1.487  -1.875  -0.362  1.00  0.00     0.134 A 
ATOM     10  C   UNL     1      -6.700   2.178   0.310  1.00  0.00    -0.047 A 
ATOM     11  C   UNL     1      -5.556   2.862   0.733  1.00  0.00     0.050 A 
ATOM     12  C   UNL     1      -6.584   0.864  -0.152  1.00  0.00     0.016 A 
ATOM     13  C   UNL     1      -4.298   2.242   0.698  1.00  0.00     0.127 A 
ATOM     14  C   UNL     1      -5.333   0.223  -0.196  1.00  0.00     0.038 A 
ATOM     15  C   UNL     1      -4.176   0.909   0.230  1.00  0.00     0.076 A 
ATOM     16  C   UNL     1      -5.230  -1.172  -0.689  1.00  0.00     0.194 C 
ATOM     17  C   UNL     1      -2.853   0.215   0.180  1.00  0.00     0.201 C 
ATOM     18  C   UNL     1      -3.915  -1.860  -0.735  1.00  0.00     0.037 A 
ATOM     19  O   UNL     1      -6.238  -1.760  -1.058  1.00  0.00    -0.289 OA
ATOM     20  O   UNL     1      -1.853   0.811   0.544  1.00  0.00    -0.288 OA
ATOM     21  C   UNL     1      -2.740  -1.194  -0.312  1.00  0.00     0.076 A 
ATOM     22  C   UNL     1      -3.840  -3.181  -1.202  1.00  0.00     0.013 A 
ATOM     23  C   UNL     1      -2.621  -3.844  -1.251  1.00  0.00     0.005 A 
ATOM     24  C   UNL     1      -1.456  -3.206  -0.838  1.00  0.00     0.047 A 
ATOM     25  C   UNL     1      -8.047   2.838   0.348  1.00  0.00     0.044 C 
BRANCH  13  26
ATOM     26  O   UNL     1      -3.213   2.929   1.113  1.00  0.00    -0.507 OA
ATOM     27  H   UNL     1      -3.266   3.840   1.437  1.00  0.00     0.293 HD
ENDBRANCH  13  26
ENDBRANCH   8   9
ENDBRANCH   3   8
BRANCH   5  28
ATOM     28  O   UNL     1       2.513  -2.558   1.732  1.00  0.00    -0.384 OA
ATOM     29  H   UNL     1       2.732  -2.588   2.700  1.00  0.00     0.211 HD
ENDBRANCH   5  28
BRANCH   6  30
ATOM     30  O   UNL     1       0.805   0.651   1.907  1.00  0.00    -0.387 OA
ATOM     31  H   UNL     1       0.628   0.885   0.962  1.00  0.00     0.211 HD
ENDBRANCH   6  30
BRANCH   7  32
ATOM     32  O   UNL     1       3.118   1.599   0.900  1.00  0.00    -0.387 OA
ATOM     33  H   UNL     1       2.455   1.864   0.212  1.00  0.00     0.211 HD
ENDBRANCH   7  32
ENDBRANCH   1   2
BRANCH   1  34
ATOM     34  O   UNL     1       5.219   0.134  -0.966  1.00  0.00    -0.462 OA
BRANCH  34  35
ATOM     35  C   UNL     1       6.252   0.635  -1.687  1.00  0.00     0.317 C 
ATOM     36  O   UNL     1       6.065   1.065  -2.818  1.00  0.00    -0.252 OA
BRANCH  35  37
ATOM     37  C   UNL     1       7.624   0.639  -1.050  1.00  0.00     0.244 C 
BRANCH  37  38
ATOM     38  C   UNL     1       8.761   1.204  -1.877  1.00  0.00     0.314 C 
ATOM     39  O   UNL     1       8.581   1.635  -3.005  1.00  0.00    -0.252 OA
BRANCH  38  40
ATOM     40  O   UNL     1      10.005   1.232  -1.360  1.00  0.00    -0.481 OA
ATOM     41  H   UNL     1      10.193   0.900  -0.470  1.00  0.00     0.296 HD
ENDBRANCH  38  40
ENDBRANCH  37  38
ENDBRANCH  35  37
ENDBRANCH  34  35
ENDBRANCH   1  34
TORSDOF 12
