REMARK SMILES CO[C@]1(CC[C@@H](C)CO[C@@H]2O[C@H](CO)[C@@H](O)[C@H](O)[C@H]2O)O[C@H]2C[C@H]3[C@@H]4CC[C@H]5C[C@@H](O[C@@H]6O[C@H](CO)[C@H](O[C@@H]7O[C@H](CO)[C@@H](O)[C@H](O[C@@H]8OC[C@@H](O)[C@H](O)[C@H]8O)[C@H]7O[C@@H]7OC[C@@H](O)[C@H](O)[C@H]7O)[C@H](O)[C@H]6O[C@@H]6O[C@@H](C)[C@H](O)[C@@H](O)[C@H]6O)CC[C@]5(C)[C@H]4CC[C@]3(C)[C@H]2[C@@H]1C
REMARK SMILES IDX 3 1 21 2 22 3 23 4 24 5 25 6 26 7 27 8 28 9 29 10 30 11
REMARK SMILES IDX 82 12 83 13 84 14 85 15 86 16 87 17 88 18 89 19 90 20 91 21
REMARK SMILES IDX 92 22 93 23 2 24 1 25 4 26 5 27 6 28 7 29 8 30 9 31 10 32
REMARK SMILES IDX 11 33 19 34 12 35 17 36 15 37 20 38 13 40 14 41 18 43 16 45
REMARK SMILES IDX 31 47 32 48 33 49 70 50 34 51 68 52 37 53 71 54 72 55 73 56
REMARK SMILES IDX 80 57 74 58 78 59 76 60 75 61 81 62 79 64 77 66 35 68 36 69
REMARK SMILES IDX 69 71 38 73 39 74 40 75 57 76 41 77 46 78 44 79 58 80 59 81
REMARK SMILES IDX 60 82 66 83 61 84 64 85 62 86 67 87 65 89 63 91 42 93 43 94
REMARK SMILES IDX 47 96 48 97 49 98 55 99 50 100 53 101 51 102 56 103 54 105
REMARK SMILES IDX 52 107 45 109
REMARK H PARENT 20 39 14 42 18 44 16 46 81 63 79 65 77 67 36 70 69 72 67 88
REMARK H PARENT 65 90 63 92 43 95 56 104 54 106 52 108 45 110
ROOT
ATOM      1  C   UNL     1       9.310  -1.822   1.015  1.00  0.00     0.171 C 
ATOM      2  O   UNL     1       8.759  -0.530   1.228  1.00  0.00    -0.346 OA
ATOM      3  C   UNL     1       7.429  -0.795   1.609  1.00  0.00     0.126 C 
ATOM      4  C   UNL     1       6.409   0.309   1.318  1.00  0.00     0.037 C 
ATOM      5  C   UNL     1       5.162  -0.557   1.133  1.00  0.00     0.001 C 
ATOM      6  C   UNL     1       3.813   0.086   0.759  1.00  0.00    -0.004 C 
ATOM      7  C   UNL     1       3.444   1.129   1.836  1.00  0.00     0.004 C 
ATOM      8  C   UNL     1       2.032   1.672   1.648  1.00  0.00     0.004 C 
ATOM      9  C   UNL     1       1.032   0.503   1.679  1.00  0.00    -0.002 C 
ATOM     10  C   UNL     1      -0.423   1.016   1.719  1.00  0.00     0.036 C 
ATOM     11  C   UNL     1      -1.481  -0.115   1.611  1.00  0.00     0.122 C 
ATOM     12  C   UNL     1      -0.838  -1.498   1.792  1.00  0.00     0.033 C 
ATOM     13  C   UNL     1       0.253  -1.740   0.721  1.00  0.00     0.010 C 
ATOM     14  C   UNL     1       1.280  -0.548   0.541  1.00  0.00    -0.026 C 
ATOM     15  C   UNL     1       1.071   0.095  -0.864  1.00  0.00     0.012 C 
ATOM     16  C   UNL     1       2.753  -1.075   0.713  1.00  0.00    -0.001 C 
ATOM     17  C   UNL     1       3.187  -2.162  -0.322  1.00  0.00     0.005 C 
ATOM     18  C   UNL     1       4.573  -2.748   0.050  1.00  0.00     0.008 C 
ATOM     19  C   UNL     1       5.643  -1.636   0.139  1.00  0.00    -0.024 C 
ATOM     20  C   UNL     1       5.919  -1.078  -1.300  1.00  0.00     0.012 C 
ATOM     21  C   UNL     1       6.954  -2.060   0.874  1.00  0.00     0.033 C 
ATOM     22  C   UNL     1       8.205  -2.482   0.127  1.00  0.00     0.052 C 
ATOM     23  C   UNL     1       8.240  -3.962  -0.265  1.00  0.00     0.014 C 
ENDROOT
BRANCH   1  24
ATOM     24  O   UNL     1       9.499  -2.389   2.319  1.00  0.00    -0.353 OA
ATOM     25  C   UNL     1       9.848  -3.755   2.360  1.00  0.00     0.198 C 
ENDBRANCH   1  24
BRANCH   1  26
ATOM     26  C   UNL     1      10.663  -1.667   0.257  1.00  0.00     0.066 C 
BRANCH  26  27
ATOM     27  C   UNL     1      11.527  -0.487   0.747  1.00  0.00     0.011 C 
BRANCH  27  28
ATOM     28  C   UNL     1      11.978  -0.485   2.226  1.00  0.00     0.012 C 
ATOM     29  C   UNL     1      12.951  -1.632   2.526  1.00  0.00     0.010 C 
BRANCH  28  30
ATOM     30  C   UNL     1      12.598   0.882   2.627  1.00  0.00     0.167 C 
BRANCH  30  31
ATOM     31  O   UNL     1      13.840   1.153   1.995  1.00  0.00    -0.350 OA
BRANCH  31  32
ATOM     32  C   UNL     1      13.695   1.802   0.741  1.00  0.00     0.281 C 
ATOM     33  O   UNL     1      14.402   1.031  -0.218  1.00  0.00    -0.341 OA
ATOM     34  C   UNL     1      14.289   3.225   0.811  1.00  0.00     0.202 C 
ATOM     35  C   UNL     1      14.210   1.541  -1.527  1.00  0.00     0.178 C 
ATOM     36  C   UNL     1      14.187   3.878  -0.586  1.00  0.00     0.179 C 
ATOM     37  C   UNL     1      14.834   2.955  -1.639  1.00  0.00     0.177 C 
BRANCH  34  38
ATOM     38  O   UNL     1      13.633   4.004   1.781  1.00  0.00    -0.385 OA
ATOM     39  H   UNL     1      12.675   4.064   1.523  1.00  0.00     0.211 HD
ENDBRANCH  34  38
BRANCH  35  40
ATOM     40  C   UNL     1      14.834   0.553  -2.523  1.00  0.00     0.191 C 
BRANCH  40  41
ATOM     41  O   UNL     1      16.201   0.368  -2.264  1.00  0.00    -0.394 OA
ATOM     42  H   UNL     1      16.694   1.016  -2.829  1.00  0.00     0.210 HD
ENDBRANCH  40  41
ENDBRANCH  35  40
BRANCH  36  43
ATOM     43  O   UNL     1      14.770   5.158  -0.598  1.00  0.00    -0.387 OA
ATOM     44  H   UNL     1      15.729   5.051  -0.367  1.00  0.00     0.211 HD
ENDBRANCH  36  43
BRANCH  37  45
ATOM     45  O   UNL     1      14.684   3.487  -2.932  1.00  0.00    -0.387 OA
ATOM     46  H   UNL     1      13.713   3.501  -3.139  1.00  0.00     0.211 HD
ENDBRANCH  37  45
ENDBRANCH  31  32
ENDBRANCH  30  31
ENDBRANCH  28  30
ENDBRANCH  27  28
ENDBRANCH  26  27
ENDBRANCH   1  26
BRANCH  11  47
ATOM     47  O   UNL     1      -2.093  -0.045   0.335  1.00  0.00    -0.347 OA
BRANCH  47  48
ATOM     48  C   UNL     1      -3.436  -0.506   0.339  1.00  0.00     0.282 C 
ATOM     49  O   UNL     1      -3.461  -1.794  -0.272  1.00  0.00    -0.341 OA
ATOM     50  C   UNL     1      -4.262   0.520  -0.460  1.00  0.00     0.209 C 
ATOM     51  C   UNL     1      -4.761  -2.284  -0.621  1.00  0.00     0.178 C 
ATOM     52  C   UNL     1      -5.743   0.094  -0.604  1.00  0.00     0.180 C 
ATOM     53  C   UNL     1      -5.935  -1.368  -0.174  1.00  0.00     0.184 C 
BRANCH  50  54
ATOM     54  O   UNL     1      -4.208   1.778   0.196  1.00  0.00    -0.338 OA
BRANCH  54  55
ATOM     55  C   UNL     1      -3.692   2.833  -0.598  1.00  0.00     0.282 C 
ATOM     56  O   UNL     1      -2.434   3.219  -0.084  1.00  0.00    -0.344 OA
ATOM     57  C   UNL     1      -4.699   4.017  -0.546  1.00  0.00     0.202 C 
ATOM     58  C   UNL     1      -1.793   4.238  -0.864  1.00  0.00     0.150 C 
ATOM     59  C   UNL     1      -4.019   5.361  -0.928  1.00  0.00     0.179 C 
ATOM     60  C   UNL     1      -2.757   5.084  -1.763  1.00  0.00     0.174 C 
ATOM     61  C   UNL     1      -0.648   3.639  -1.678  1.00  0.00     0.041 C 
BRANCH  57  62
ATOM     62  O   UNL     1      -5.806   3.729  -1.363  1.00  0.00    -0.385 OA
ATOM     63  H   UNL     1      -5.481   3.651  -2.297  1.00  0.00     0.211 HD
ENDBRANCH  57  62
BRANCH  59  64
ATOM     64  O   UNL     1      -4.917   6.255  -1.539  1.00  0.00    -0.387 OA
ATOM     65  H   UNL     1      -5.029   5.971  -2.484  1.00  0.00     0.211 HD
ENDBRANCH  59  64
BRANCH  60  66
ATOM     66  O   UNL     1      -2.137   6.268  -2.198  1.00  0.00    -0.388 OA
ATOM     67  H   UNL     1      -1.957   6.828  -1.398  1.00  0.00     0.211 HD
ENDBRANCH  60  66
ENDBRANCH  54  55
ENDBRANCH  50  54
BRANCH  51  68
ATOM     68  C   UNL     1      -4.778  -2.648  -2.117  1.00  0.00     0.191 C 
BRANCH  68  69
ATOM     69  O   UNL     1      -4.512  -1.533  -2.922  1.00  0.00    -0.394 OA
ATOM     70  H   UNL     1      -5.187  -1.530  -3.651  1.00  0.00     0.210 HD
ENDBRANCH  68  69
ENDBRANCH  51  68
BRANCH  52  71
ATOM     71  O   UNL     1      -6.178   0.291  -1.925  1.00  0.00    -0.387 OA
ATOM     72  H   UNL     1      -6.175   1.268  -2.086  1.00  0.00     0.211 HD
ENDBRANCH  52  71
BRANCH  53  73
ATOM     73  O   UNL     1      -7.169  -1.852  -0.672  1.00  0.00    -0.341 OA
BRANCH  73  74
ATOM     74  C   UNL     1      -8.074  -2.314   0.316  1.00  0.00     0.282 C 
ATOM     75  O   UNL     1      -8.443  -3.660   0.011  1.00  0.00    -0.341 OA
ATOM     76  C   UNL     1      -9.298  -1.385   0.392  1.00  0.00     0.209 C 
ATOM     77  C   UNL     1      -9.532  -3.817  -0.911  1.00  0.00     0.178 C 
ATOM     78  C   UNL     1      -9.991  -1.296  -0.991  1.00  0.00     0.187 C 
ATOM     79  C   UNL     1      -9.741  -2.578  -1.820  1.00  0.00     0.177 C 
BRANCH  76  80
ATOM     80  O   UNL     1     -10.204  -1.971   1.320  1.00  0.00    -0.338 OA
BRANCH  80  81
ATOM     81  C   UNL     1     -10.436  -1.201   2.497  1.00  0.00     0.282 C 
ATOM     82  O   UNL     1     -10.135  -1.997   3.628  1.00  0.00    -0.347 OA
ATOM     83  C   UNL     1     -11.914  -0.703   2.539  1.00  0.00     0.202 C 
ATOM     84  C   UNL     1     -10.922  -3.192   3.706  1.00  0.00     0.198 C 
ATOM     85  C   UNL     1     -12.880  -1.782   3.098  1.00  0.00     0.179 C 
ATOM     86  C   UNL     1     -12.266  -3.173   2.913  1.00  0.00     0.171 C 
BRANCH  83  87
ATOM     87  O   UNL     1     -12.052   0.482   3.283  1.00  0.00    -0.385 OA
ATOM     88  H   UNL     1     -11.661   0.316   4.181  1.00  0.00     0.211 HD
ENDBRANCH  83  87
BRANCH  85  89
ATOM     89  O   UNL     1     -14.161  -1.665   2.532  1.00  0.00    -0.387 OA
ATOM     90  H   UNL     1     -14.083  -1.906   1.572  1.00  0.00     0.211 HD
ENDBRANCH  85  89
BRANCH  86  91
ATOM     91  O   UNL     1     -13.121  -4.202   3.347  1.00  0.00    -0.388 OA
ATOM     92  H   UNL     1     -13.362  -4.018   4.293  1.00  0.00     0.211 HD
ENDBRANCH  86  91
ENDBRANCH  80  81
ENDBRANCH  76  80
BRANCH  77  93
ATOM     93  C   UNL     1      -9.237  -5.054  -1.773  1.00  0.00     0.191 C 
BRANCH  93  94
ATOM     94  O   UNL     1      -9.105  -6.193  -0.967  1.00  0.00    -0.394 OA
ATOM     95  H   UNL     1      -8.163  -6.218  -0.655  1.00  0.00     0.210 HD
ENDBRANCH  93  94
ENDBRANCH  77  93
BRANCH  78  96
ATOM     96  O   UNL     1      -9.457  -0.201  -1.730  1.00  0.00    -0.341 OA
BRANCH  96  97
ATOM     97  C   UNL     1     -10.409   0.796  -2.075  1.00  0.00     0.282 C 
ATOM     98  O   UNL     1     -10.388   0.976  -3.475  1.00  0.00    -0.347 OA
ATOM     99  C   UNL     1     -10.030   2.114  -1.341  1.00  0.00     0.202 C 
ATOM    100  C   UNL     1     -11.381   1.905  -3.927  1.00  0.00     0.198 C 
ATOM    101  C   UNL     1     -10.654   3.367  -2.035  1.00  0.00     0.179 C 
ATOM    102  C   UNL     1     -11.869   2.947  -2.876  1.00  0.00     0.171 C 
BRANCH  99 103
ATOM    103  O   UNL     1     -10.402   2.027   0.013  1.00  0.00    -0.385 OA
ATOM    104  H   UNL     1     -11.393   1.994   0.055  1.00  0.00     0.211 HD
ENDBRANCH  99 103
BRANCH 101 105
ATOM    105  O   UNL     1      -9.716   4.024  -2.862  1.00  0.00    -0.387 OA
ATOM    106  H   UNL     1      -9.188   3.348  -3.361  1.00  0.00     0.211 HD
ENDBRANCH 101 105
BRANCH 102 107
ATOM    107  O   UNL     1     -12.854   2.401  -2.035  1.00  0.00    -0.388 OA
ATOM    108  H   UNL     1     -13.669   2.280  -2.588  1.00  0.00     0.211 HD
ENDBRANCH 102 107
ENDBRANCH  96  97
ENDBRANCH  78  96
BRANCH  79 109
ATOM    109  O   UNL     1     -10.751  -2.755  -2.781  1.00  0.00    -0.387 OA
ATOM    110  H   UNL     1     -11.585  -2.975  -2.289  1.00  0.00     0.211 HD
ENDBRANCH  79 109
ENDBRANCH  73  74
ENDBRANCH  53  73
ENDBRANCH  47  48
ENDBRANCH  11  47
TORSDOF 37
