REMARK SMILES CCCCC/C=C/C(C)=C/[C@@H]1C[C@H](C)C/C=C/CC[C@@H](O)[C@H](OC(N)=O)CC[C@H](C)C[C@@H](O)[C@H](C)C(=O)O1
REMARK SMILES IDX 16 1 17 2 15 3 13 4 14 5 12 6 11 7 10 8 8 9 9 10 7 11 6 12
REMARK SMILES IDX 5 13 4 14 3 15 2 16 1 17 38 18 36 19 37 20 34 21 35 22 18 24
REMARK SMILES IDX 19 25 20 26 21 27 22 29 23 30 24 31 25 32 26 33 27 36 28 37
REMARK SMILES IDX 29 38 30 39 31 40 32 41 33 43
REMARK H PARENT 21 28 25 34 25 35 33 44
REMARK Flexibility Score:   84.900
ROOT
ATOM      1  C   UNL     1      -2.298  -1.696  -1.133  1.00  0.00    -0.031 C 
ATOM      2  C   UNL     1      -3.324  -2.043  -1.930  1.00  0.00    -0.031 C 
ENDROOT
BRANCH   1   3
ATOM      3  C   UNL     1      -1.013  -1.152  -1.709  1.00  0.00     0.030 C 
BRANCH   3   4
ATOM      4  C   UNL     1       0.150  -2.127  -1.470  1.00  0.00    -0.007 C 
ATOM      5  C   UNL     1       1.339  -1.782  -2.383  1.00  0.00     0.008 C 
BRANCH   4   6
ATOM      6  C   UNL     1       0.559  -2.325   0.023  1.00  0.00     0.053 C 
BRANCH   6   7
ATOM      7  C   UNL     1       1.228  -1.185   0.852  1.00  0.00     0.200 C 
BRANCH   7   8
ATOM      8  C   UNL     1       2.424  -0.520   0.186  1.00  0.00     0.021 C 
ATOM      9  C   UNL     1       3.662  -1.059   0.048  1.00  0.00    -0.052 C 
ATOM     10  C   UNL     1       3.978  -2.423   0.637  1.00  0.00     0.044 C 
BRANCH   9  11
ATOM     11  C   UNL     1       4.695  -0.244  -0.678  1.00  0.00    -0.001 C 
ATOM     12  C   UNL     1       5.956  -0.645  -0.926  1.00  0.00    -0.027 C 
BRANCH  12  13
ATOM     13  C   UNL     1       6.947   0.210  -1.668  1.00  0.00     0.027 C 
BRANCH  13  14
ATOM     14  C   UNL     1       8.148   0.495  -0.762  1.00  0.00     0.004 C 
BRANCH  14  15
ATOM     15  C   UNL     1       9.238   1.280  -1.498  1.00  0.00     0.000 C 
BRANCH  15  16
ATOM     16  C   UNL     1      10.418   1.565  -0.560  1.00  0.00    -0.003 C 
ATOM     17  C   UNL     1      11.529   2.321  -1.280  1.00  0.00     0.004 C 
ENDBRANCH  15  16
ENDBRANCH  14  15
ENDBRANCH  13  14
ENDBRANCH  12  13
ENDBRANCH   9  11
ENDBRANCH   7   8
BRANCH   7  18
ATOM     18  O   UNL     1       0.325  -0.220   1.298  1.00  0.00    -0.458 OA
BRANCH  18  19
ATOM     19  C   UNL     1       0.574   0.503   2.441  1.00  0.00     0.311 C 
ATOM     20  O   UNL     1       1.624   0.336   3.049  1.00  0.00    -0.252 OA
BRANCH  19  21
ATOM     21  C   UNL     1      -0.419   1.484   3.039  1.00  0.00     0.125 CG0
ATOM     22  C   UNL     1      -0.565   2.724   2.151  1.00  0.00     0.023 C 
ATOM     23  G   UNL     1      -1.783   0.845   3.429  1.00  0.00     0.000 G0
ENDBRANCH  19  21
ENDBRANCH  18  19
ENDBRANCH   7  18
ENDBRANCH   6   7
ENDBRANCH   4   6
ENDBRANCH   3   4
ENDBRANCH   1   3
BRANCH   2  24
ATOM     24  C   UNL     1      -4.628  -2.594  -1.410  1.00  0.00     0.030 C 
BRANCH  24  25
ATOM     25  C   UNL     1      -5.817  -1.805  -1.982  1.00  0.00     0.040 C 
BRANCH  25  26
ATOM     26  C   UNL     1      -5.889  -0.243  -1.895  1.00  0.00     0.155 C 
BRANCH  26  27
ATOM     27  O   UNL     1      -6.756   0.146  -2.935  1.00  0.00    -0.389 OA
ATOM     28  H   UNL     1      -7.661  -0.204  -2.724  1.00  0.00     0.211 HD
ENDBRANCH  26  27
BRANCH  26  29
ATOM     29  C   UNL     1      -6.395   0.456  -0.581  1.00  0.00     0.207 C 
BRANCH  29  30
ATOM     30  O   UNL     1      -6.829   1.726  -0.953  1.00  0.00    -0.444 OA
BRANCH  30  31
ATOM     31  C   UNL     1      -8.101   2.201  -0.860  1.00  0.00     0.404 C 
ATOM     32  N   UNL     1      -8.367   3.461  -1.269  1.00  0.00    -0.335 N 
ATOM     33  O   UNL     1      -9.002   1.505  -0.415  1.00  0.00    -0.225 OA
ATOM     34  H   UNL     1      -7.613   4.054  -1.647  1.00  0.00     0.163 HD
ATOM     35  H   UNL     1      -9.323   3.840  -1.210  1.00  0.00     0.163 HD
ENDBRANCH  30  31
ENDBRANCH  29  30
BRANCH  29  36
ATOM     36  C   UNL     1      -5.400   0.726   0.576  1.00  0.00     0.048 C 
BRANCH  36  37
ATOM     37  C   UNL     1      -4.904  -0.482   1.371  1.00  0.00     0.007 C 
BRANCH  37  38
ATOM     38  C   UNL     1      -4.053  -0.158   2.628  1.00  0.00    -0.012 C 
ATOM     39  C   UNL     1      -4.866   0.630   3.672  1.00  0.00     0.008 C 
BRANCH  38  40
ATOM     40  C   UNL     1      -2.720   0.536   2.236  1.00  0.00     0.036 C 
BRANCH  40  41
ATOM     41  C   UNL     1      -1.783   0.845   3.429  1.00  0.00     0.128 CG0
ATOM     42  G   UNL     1      -0.419   1.484   3.039  1.00  0.00     0.000 G0
BRANCH  41  43
ATOM     43  O   UNL     1      -1.578  -0.289   4.237  1.00  0.00    -0.392 OA
ATOM     44  H   UNL     1      -1.263  -1.025   3.650  1.00  0.00     0.210 HD
ENDBRANCH  41  43
ENDBRANCH  40  41
ENDBRANCH  38  40
ENDBRANCH  37  38
ENDBRANCH  36  37
ENDBRANCH  29  36
ENDBRANCH  26  29
ENDBRANCH  25  26
ENDBRANCH  24  25
ENDBRANCH   2  24
TORSDOF 10
