REMARK SMILES COC1(OC)CC[C@@]2(C)[C@H](C1)C(=O)C=C1[C@@H]2CC[C@]2(C)[C@@H](C(C)=O)CC[C@@H]12
REMARK SMILES IDX 3 1 6 2 7 3 8 4 9 5 10 6 11 7 12 8 13 9 14 10 15 11 16 12
REMARK SMILES IDX 17 13 18 14 19 15 20 16 21 17 25 18 26 19 27 20 2 21 1 22
REMARK SMILES IDX 4 23 5 24 22 25 24 26 23 27
REMARK H PARENT
ROOT
ATOM      1  C   UNL     1       4.362   0.327   0.220  1.00  0.00     0.168 C 
ATOM      2  C   UNL     1       3.823  -1.034  -0.351  1.00  0.00     0.066 C 
ATOM      3  C   UNL     1       2.397  -0.883  -0.919  1.00  0.00     0.013 C 
ATOM      4  C   UNL     1       1.383  -0.348   0.137  1.00  0.00    -0.016 C 
ATOM      5  C   UNL     1       1.210  -1.393   1.289  1.00  0.00     0.013 C 
ATOM      6  C   UNL     1       1.939   0.987   0.709  1.00  0.00     0.072 C 
ATOM      7  C   UNL     1       3.372   0.857   1.287  1.00  0.00     0.078 C 
ATOM      8  C   UNL     1       0.952   1.544   1.707  1.00  0.00     0.159 C 
ATOM      9  O   UNL     1       1.304   1.963   2.800  1.00  0.00    -0.295 OA
ATOM     10  C   UNL     1      -0.454   1.641   1.293  1.00  0.00     0.047 C 
ATOM     11  C   UNL     1      -0.894   0.966   0.210  1.00  0.00    -0.059 C 
ATOM     12  C   UNL     1      -0.012  -0.037  -0.571  1.00  0.00     0.022 C 
ATOM     13  C   UNL     1      -0.825  -1.344  -0.896  1.00  0.00     0.009 C 
ATOM     14  C   UNL     1      -2.251  -1.071  -1.431  1.00  0.00     0.009 C 
ATOM     15  C   UNL     1      -3.047  -0.154  -0.456  1.00  0.00    -0.016 C 
ATOM     16  C   UNL     1      -3.245  -0.848   0.930  1.00  0.00     0.013 C 
ATOM     17  C   UNL     1      -4.383   0.372  -1.042  1.00  0.00     0.062 C 
ATOM     18  C   UNL     1      -4.640   1.718  -0.316  1.00  0.00     0.012 C 
ATOM     19  C   UNL     1      -3.284   2.113   0.313  1.00  0.00     0.009 C 
ATOM     20  C   UNL     1      -2.284   1.171  -0.357  1.00  0.00     0.022 C 
ENDROOT
BRANCH   1  21
ATOM     21  O   UNL     1       4.377   1.311  -0.813  1.00  0.00    -0.353 OA
ATOM     22  C   UNL     1       5.441   1.149  -1.731  1.00  0.00     0.198 C 
ENDBRANCH   1  21
BRANCH   1  23
ATOM     23  O   UNL     1       5.668   0.254   0.808  1.00  0.00    -0.353 OA
ATOM     24  C   UNL     1       5.910  -0.911   1.573  1.00  0.00     0.198 C 
ENDBRANCH   1  23
BRANCH  17  25
ATOM     25  C   UNL     1      -5.583  -0.554  -1.118  1.00  0.00     0.133 C 
ATOM     26  O   UNL     1      -5.981  -0.915  -2.215  1.00  0.00    -0.300 OA
ATOM     27  C   UNL     1      -6.342  -1.019   0.096  1.00  0.00     0.088 C 
ENDBRANCH  17  25
TORSDOF 3
