REMARK SMILES CC1(C)CCc2c(c(O)cc3c2[C@@H]2Oc4cc5c(cc4[C@@H]2CO3)OCO5)O1
REMARK SMILES IDX 1 1 2 2 3 3 4 4 5 5 6 6 7 7 27 8 8 9 10 10 11 11 12 12 13 13
REMARK SMILES IDX 14 14 15 15 16 16 17 17 18 18 19 19 20 20 21 21 22 22 23 23
REMARK SMILES IDX 24 24 25 25 26 26 9 27
REMARK H PARENT 9 28
ROOT
ATOM      1  C   UNL     1      -5.187  -1.222  -1.890  1.00  0.00     0.056 C 
ATOM      2  C   UNL     1      -4.101  -0.438  -1.138  1.00  0.00     0.104 C 
ATOM      3  C   UNL     1      -4.755   0.785  -0.458  1.00  0.00     0.056 C 
ATOM      4  C   UNL     1      -2.986  -0.019  -2.111  1.00  0.00     0.053 C 
ATOM      5  C   UNL     1      -1.839   0.689  -1.368  1.00  0.00     0.044 C 
ATOM      6  C   UNL     1      -1.485  -0.009  -0.063  1.00  0.00     0.009 A 
ATOM      7  C   UNL     1      -2.367  -0.992   0.455  1.00  0.00     0.165 A 
ATOM      8  O   UNL     1      -3.538  -1.269  -0.180  1.00  0.00    -0.484 OA
ATOM      9  C   UNL     1      -2.050  -1.673   1.641  1.00  0.00     0.161 A 
ATOM     10  C   UNL     1      -0.884  -1.351   2.335  1.00  0.00     0.097 A 
ATOM     11  C   UNL     1      -0.035  -0.345   1.873  1.00  0.00     0.130 A 
ATOM     12  C   UNL     1      -0.314   0.331   0.663  1.00  0.00     0.042 A 
ATOM     13  C   UNL     1       0.666   1.383   0.146  1.00  0.00     0.218 C 
ATOM     14  O   UNL     1       1.235   0.873  -1.015  1.00  0.00    -0.484 OA
ATOM     15  C   UNL     1       2.523   0.557  -0.823  1.00  0.00     0.128 A 
ATOM     16  C   UNL     1       3.367  -0.089  -1.742  1.00  0.00     0.097 A 
ATOM     17  C   UNL     1       4.688  -0.294  -1.323  1.00  0.00     0.169 A 
ATOM     18  C   UNL     1       5.135   0.110  -0.104  1.00  0.00     0.166 A 
ATOM     19  C   UNL     1       4.307   0.757   0.820  1.00  0.00     0.058 A 
ATOM     20  C   UNL     1       2.974   0.952   0.418  1.00  0.00     0.009 A 
ATOM     21  C   UNL     1       1.874   1.662   1.105  1.00  0.00     0.106 C 
ATOM     22  C   UNL     1       1.595   1.243   2.549  1.00  0.00     0.242 C 
ATOM     23  O   UNL     1       1.058  -0.025   2.601  1.00  0.00    -0.492 OA
ATOM     24  O   UNL     1       6.429  -0.198   0.013  1.00  0.00    -0.454 OA
ATOM     25  C   UNL     1       6.822  -0.821  -1.170  1.00  0.00     0.468 C 
ATOM     26  O   UNL     1       5.694  -0.866  -1.989  1.00  0.00    -0.453 OA
ENDROOT
BRANCH   9  27
ATOM     27  O   UNL     1      -2.866  -2.624   2.143  1.00  0.00    -0.504 OA
ATOM     28  H   UNL     1      -3.693  -2.885   1.713  1.00  0.00     0.293 HD
ENDBRANCH   9  27
TORSDOF 1
