REMARK SMILES COc1cc([C@]2(COC(C)=O)CO2)c(OC(=O)C(C)C)cc1C
REMARK SMILES IDX 3 1 4 2 5 3 14 4 21 5 22 6 23 7 2 8 1 9 6 10 12 11 13 12
REMARK SMILES IDX 7 13 8 14 9 15 11 16 10 17 15 18 16 19 17 20 18 21 19 22
REMARK SMILES IDX 20 23
REMARK H PARENT
ROOT
ATOM      1  C   UNL     1       0.119   3.090   0.339  1.00  0.00     0.122 A 
ATOM      2  C   UNL     1       0.940   1.990   0.026  1.00  0.00     0.057 A 
ATOM      3  C   UNL     1       0.387   0.725  -0.216  1.00  0.00     0.036 A 
ATOM      4  C   UNL     1      -1.007   0.545  -0.133  1.00  0.00     0.137 A 
ATOM      5  C   UNL     1      -1.828   1.641   0.177  1.00  0.00     0.054 A 
ATOM      6  C   UNL     1      -1.276   2.911   0.406  1.00  0.00    -0.005 A 
ATOM      7  C   UNL     1      -2.173   4.074   0.726  1.00  0.00     0.048 C 
ENDROOT
BRANCH   1   8
ATOM      8  O   UNL     1       0.633   4.326   0.586  1.00  0.00    -0.496 OA
ATOM      9  C   UNL     1       1.973   4.654   0.613  1.00  0.00     0.278 C 
ENDBRANCH   1   8
BRANCH   3  10
ATOM     10  C   UNL     1       1.314  -0.424  -0.512  1.00  0.00     0.154 C 
ATOM     11  C   UNL     1       2.238  -0.345  -1.690  1.00  0.00     0.206 C 
ATOM     12  O   UNL     1       0.987  -0.951  -1.785  1.00  0.00    -0.361 OA
BRANCH  10  13
ATOM     13  C   UNL     1       1.350  -1.595   0.491  1.00  0.00     0.275 C 
BRANCH  13  14
ATOM     14  O   UNL     1       2.543  -2.294   0.452  1.00  0.00    -0.462 OA
BRANCH  14  15
ATOM     15  C   UNL     1       3.742  -1.777   0.834  1.00  0.00     0.302 C 
ATOM     16  O   UNL     1       3.828  -0.630   1.253  1.00  0.00    -0.253 OA
ATOM     17  C   UNL     1       4.971  -2.621   0.753  1.00  0.00     0.139 C 
ENDBRANCH  14  15
ENDBRANCH  13  14
ENDBRANCH  10  13
ENDBRANCH   3  10
BRANCH   4  18
ATOM     18  O   UNL     1      -1.539  -0.682  -0.359  1.00  0.00    -0.426 OA
BRANCH  18  19
ATOM     19  C   UNL     1      -2.519  -1.261   0.384  1.00  0.00     0.313 C 
ATOM     20  O   UNL     1      -2.772  -0.851   1.508  1.00  0.00    -0.252 OA
BRANCH  19  21
ATOM     21  C   UNL     1      -3.255  -2.464  -0.148  1.00  0.00     0.093 C 
ATOM     22  C   UNL     1      -2.265  -3.558  -0.566  1.00  0.00     0.019 C 
ATOM     23  C   UNL     1      -4.140  -2.053  -1.326  1.00  0.00     0.019 C 
ENDBRANCH  19  21
ENDBRANCH  18  19
ENDBRANCH   4  18
TORSDOF 8
