REMARK SMILES OC[C@@H]1O[C@H](O[C@H]2[C@H](O)[C@@H](O)[C@H](CO)O[C@@H]2O)[C@@H](O)[C@H](O)[C@H]1O
REMARK SMILES IDX 6 1 5 2 3 3 4 4 22 5 20 6 18 7 2 8 1 9 23 11 21 13 19 15
REMARK SMILES IDX 7 17 8 18 16 19 10 20 15 21 12 22 9 23 17 25 11 27 13 29
REMARK SMILES IDX 14 30
REMARK H PARENT 1 10 23 12 21 14 19 16 9 24 17 26 11 28 14 31
ROOT
ATOM      1  O   UNL     1      -0.325  -0.086   0.158  1.00  0.00    -0.338 OA
ENDROOT
BRANCH   1   2
ATOM      2  C   UNL     1      -1.229  -1.169   0.363  1.00  0.00     0.282 C 
ATOM      3  C   UNL     1      -3.338  -0.205   1.099  1.00  0.00     0.178 C 
ATOM      4  O   UNL     1      -2.105  -0.851   1.451  1.00  0.00    -0.341 OA
ATOM      5  C   UNL     1      -3.239   0.602  -0.220  1.00  0.00     0.177 C 
ATOM      6  C   UNL     1      -2.876  -0.323  -1.402  1.00  0.00     0.179 C 
ATOM      7  C   UNL     1      -1.984  -1.506  -0.950  1.00  0.00     0.202 C 
BRANCH   3   8
ATOM      8  C   UNL     1      -3.756   0.699   2.269  1.00  0.00     0.191 C 
BRANCH   8   9
ATOM      9  O   UNL     1      -2.798   1.701   2.479  1.00  0.00    -0.394 OA
ATOM     10  H   UNL     1      -3.189   2.317   3.152  1.00  0.00     0.210 HD
ENDBRANCH   8   9
ENDBRANCH   3   8
BRANCH   5  11
ATOM     11  O   UNL     1      -4.403   1.335  -0.508  1.00  0.00    -0.387 OA
ATOM     12  H   UNL     1      -5.159   0.692  -0.528  1.00  0.00     0.211 HD
ENDBRANCH   5  11
BRANCH   6  13
ATOM     13  O   UNL     1      -2.278   0.427  -2.430  1.00  0.00    -0.387 OA
ATOM     14  H   UNL     1      -1.387   0.724  -2.110  1.00  0.00     0.211 HD
ENDBRANCH   6  13
BRANCH   7  15
ATOM     15  O   UNL     1      -2.768  -2.674  -0.800  1.00  0.00    -0.385 OA
ATOM     16  H   UNL     1      -3.084  -2.762   0.134  1.00  0.00     0.211 HD
ENDBRANCH   7  15
ENDBRANCH   1   2
BRANCH   1  17
ATOM     17  C   UNL     1       1.045  -0.450   0.295  1.00  0.00     0.209 C 
ATOM     18  C   UNL     1       1.668  -0.549  -1.119  1.00  0.00     0.180 C 
ATOM     19  C   UNL     1       1.793   0.606   1.178  1.00  0.00     0.279 C 
ATOM     20  C   UNL     1       3.175  -0.304  -1.034  1.00  0.00     0.177 C 
ATOM     21  O   UNL     1       2.416   1.628   0.419  1.00  0.00    -0.342 OA
ATOM     22  C   UNL     1       3.387   1.157  -0.525  1.00  0.00     0.178 C 
BRANCH  18  23
ATOM     23  O   UNL     1       1.354  -1.774  -1.730  1.00  0.00    -0.387 OA
ATOM     24  H   UNL     1       1.791  -2.491  -1.200  1.00  0.00     0.211 HD
ENDBRANCH  18  23
BRANCH  19  25
ATOM     25  O   UNL     1       2.714   0.059   2.096  1.00  0.00    -0.366 OA
ATOM     26  H   UNL     1       3.124  -0.759   1.724  1.00  0.00     0.213 HD
ENDBRANCH  19  25
BRANCH  20  27
ATOM     27  O   UNL     1       3.820  -0.503  -2.268  1.00  0.00    -0.387 OA
ATOM     28  H   UNL     1       3.367   0.065  -2.945  1.00  0.00     0.211 HD
ENDBRANCH  20  27
BRANCH  22  29
ATOM     29  C   UNL     1       4.817   1.361  -0.004  1.00  0.00     0.191 C 
BRANCH  29  30
ATOM     30  O   UNL     1       5.019   2.695   0.377  1.00  0.00    -0.394 OA
ATOM     31  H   UNL     1       5.171   3.208  -0.461  1.00  0.00     0.210 HD
ENDBRANCH  29  30
ENDBRANCH  22  29
ENDBRANCH   1  17
TORSDOF 12
