REMARK SMILES Cc1c(CC(=O)NCc2ccccc2)c(=O)oc2cc3c(cc12)CCC(C)(C)O3
REMARK SMILES IDX 5 1 6 2 7 3 4 5 3 6 2 7 23 8 15 9 22 10 18 11 16 12 17 13
REMARK SMILES IDX 21 14 19 15 20 16 24 17 29 18 25 19 26 20 1 21 27 22 28 23
REMARK SMILES IDX 8 24 9 25 10 26 14 27 11 28 13 29 12 30
REMARK H PARENT 7 4
ROOT
ATOM      1  C   UNL     1       3.293  -0.091   1.040  1.00  0.00     0.224 C 
ATOM      2  O   UNL     1       2.918   0.723   0.206  1.00  0.00    -0.275 OA
ATOM      3  N   UNL     1       4.450   0.114   1.728  1.00  0.00    -0.352 N 
ATOM      4  H   UNL     1       4.718  -0.546   2.474  1.00  0.00     0.163 HD
ENDROOT
BRANCH   1   5
ATOM      5  C   UNL     1       2.469  -1.327   1.316  1.00  0.00     0.143 C 
BRANCH   5   6
ATOM      6  C   UNL     1       1.097  -1.295   0.652  1.00  0.00     0.051 A 
ATOM      7  C   UNL     1       0.067  -0.418   1.099  1.00  0.00    -0.029 A 
ATOM      8  C   UNL     1      -1.197  -0.469   0.458  1.00  0.00     0.021 A 
ATOM      9  C   UNL     1       0.810  -2.167  -0.421  1.00  0.00     0.340 A 
ATOM     10  C   UNL     1      -2.288   0.338   0.853  1.00  0.00     0.019 A 
ATOM     11  C   UNL     1      -1.375  -1.374  -0.613  1.00  0.00     0.142 A 
ATOM     12  O   UNL     1       1.659  -2.935  -0.839  1.00  0.00    -0.246 OA
ATOM     13  O   UNL     1      -0.383  -2.163  -0.999  1.00  0.00    -0.422 OA
ATOM     14  C   UNL     1      -3.522   0.236   0.198  1.00  0.00    -0.005 A 
ATOM     15  C   UNL     1      -2.609  -1.466  -1.266  1.00  0.00     0.094 A 
ATOM     16  C   UNL     1      -3.686  -0.676  -0.859  1.00  0.00     0.127 A 
ATOM     17  C   UNL     1      -4.703   1.071   0.615  1.00  0.00     0.043 C 
ATOM     18  O   UNL     1      -4.894  -0.819  -1.467  1.00  0.00    -0.487 OA
ATOM     19  C   UNL     1      -5.958   0.209   0.476  1.00  0.00     0.053 C 
ATOM     20  C   UNL     1      -6.103  -0.309  -0.990  1.00  0.00     0.104 C 
ATOM     21  C   UNL     1       0.280   0.541   2.256  1.00  0.00     0.046 C 
ATOM     22  C   UNL     1      -6.567   0.815  -1.935  1.00  0.00     0.056 C 
ATOM     23  C   UNL     1      -7.148  -1.434  -1.012  1.00  0.00     0.056 C 
ENDBRANCH   5   6
ENDBRANCH   1   5
BRANCH   3  24
ATOM     24  C   UNL     1       5.306   1.260   1.480  1.00  0.00     0.151 C 
BRANCH  24  25
ATOM     25  C   UNL     1       6.039   1.082   0.177  1.00  0.00    -0.029 A 
ATOM     26  C   UNL     1       6.979   0.044   0.052  1.00  0.00     0.005 A 
ATOM     27  C   UNL     1       5.811   1.938  -0.913  1.00  0.00     0.005 A 
ATOM     28  C   UNL     1       7.682  -0.134  -1.143  1.00  0.00     0.000 A 
ATOM     29  C   UNL     1       6.510   1.750  -2.111  1.00  0.00     0.000 A 
ATOM     30  C   UNL     1       7.446   0.718  -2.225  1.00  0.00     0.000 A 
ENDBRANCH  24  25
ENDBRANCH   3  24
TORSDOF 4
