REMARK SMILES CC(C)=CCC[C@@]1(C)[C@@H](CC=C(C)C)C[C@]2(CC=C(C)C)C(=O)[C@@]1(C(=O)c1ccccc1)C(=O)C1=C2O[C@@H](C(C)(C)O)[C@H]1O
REMARK SMILES IDX 7 1 8 2 9 3 15 4 16 5 22 6 23 7 24 8 33 9 34 10 35 11 36 12
REMARK SMILES IDX 37 13 38 14 43 15 6 16 5 17 4 18 2 19 1 20 3 21 10 22 11 23
REMARK SMILES IDX 12 24 13 25 14 26 25 27 26 28 27 29 28 30 32 31 29 32 31 33
REMARK SMILES IDX 30 34 17 35 18 36 19 37 20 38 21 39 44 40 39 42 40 43 41 44
REMARK SMILES IDX 42 45
REMARK H PARENT 44 41 42 46
ROOT
ATOM      1  C   UNL     1       1.369   1.138   0.733  1.00  0.00    -0.002 C 
ATOM      2  C   UNL     1       1.633   1.968   2.047  1.00  0.00     0.014 C 
ATOM      3  C   UNL     1       0.525   2.105  -0.229  1.00  0.00     0.002 C 
ATOM      4  C   UNL     1      -0.904   2.389   0.353  1.00  0.00     0.028 C 
ATOM      5  C   UNL     1      -1.712   1.175   0.901  1.00  0.00     0.092 C 
ATOM      6  C   UNL     1      -0.773   0.367   1.780  1.00  0.00     0.169 C 
ATOM      7  O   UNL     1      -1.033   0.135   2.954  1.00  0.00    -0.297 OA
ATOM      8  C   UNL     1       0.497  -0.179   1.105  1.00  0.00     0.161 C 
ATOM      9  C   UNL     1       0.016  -0.957  -0.151  1.00  0.00     0.187 C 
ATOM     10  O   UNL     1       0.676  -1.856  -0.645  1.00  0.00    -0.293 OA
ATOM     11  C   UNL     1      -1.358  -0.738  -0.668  1.00  0.00     0.068 C 
ATOM     12  C   UNL     1      -2.138   0.230  -0.207  1.00  0.00     0.120 C 
ATOM     13  O   UNL     1      -3.356   0.221  -0.790  1.00  0.00    -0.487 OA
ATOM     14  C   UNL     1      -3.526  -0.965  -1.475  1.00  0.00     0.237 C 
ATOM     15  C   UNL     1      -2.085  -1.470  -1.754  1.00  0.00     0.195 C 
ENDROOT
BRANCH   1  16
ATOM     16  C   UNL     1       2.833   0.884   0.189  1.00  0.00     0.013 C 
BRANCH  16  17
ATOM     17  C   UNL     1       3.067  -0.251  -0.809  1.00  0.00     0.028 C 
BRANCH  17  18
ATOM     18  C   UNL     1       4.505  -0.240  -1.279  1.00  0.00    -0.028 C 
ATOM     19  C   UNL     1       5.383  -1.257  -1.113  1.00  0.00    -0.080 C 
ATOM     20  C   UNL     1       5.001  -2.551  -0.433  1.00  0.00     0.039 C 
ATOM     21  C   UNL     1       6.789  -1.083  -1.629  1.00  0.00     0.039 C 
ENDBRANCH  17  18
ENDBRANCH  16  17
ENDBRANCH   1  16
BRANCH   3  22
ATOM     22  C   UNL     1       0.486   1.829  -1.771  1.00  0.00     0.031 C 
BRANCH  22  23
ATOM     23  C   UNL     1       1.730   2.349  -2.483  1.00  0.00    -0.028 C 
ATOM     24  C   UNL     1       2.405   1.783  -3.514  1.00  0.00    -0.080 C 
ATOM     25  C   UNL     1       3.614   2.493  -4.075  1.00  0.00     0.039 C 
ATOM     26  C   UNL     1       2.026   0.486  -4.186  1.00  0.00     0.039 C 
ENDBRANCH  22  23
ENDBRANCH   3  22
BRANCH   8  27
ATOM     27  C   UNL     1       1.203  -1.174   2.061  1.00  0.00     0.184 C 
ATOM     28  O   UNL     1       2.355  -0.954   2.398  1.00  0.00    -0.293 OA
BRANCH  27  29
ATOM     29  C   UNL     1       0.562  -2.429   2.599  1.00  0.00     0.019 A 
ATOM     30  C   UNL     1      -0.763  -2.811   2.290  1.00  0.00     0.012 A 
ATOM     31  C   UNL     1       1.308  -3.268   3.456  1.00  0.00     0.012 A 
ATOM     32  C   UNL     1      -1.312  -3.984   2.818  1.00  0.00     0.001 A 
ATOM     33  C   UNL     1       0.753  -4.438   3.981  1.00  0.00     0.001 A 
ATOM     34  C   UNL     1      -0.556  -4.796   3.663  1.00  0.00     0.000 A 
ENDBRANCH  27  29
ENDBRANCH   8  27
BRANCH   5  35
ATOM     35  C   UNL     1      -3.000   1.638   1.662  1.00  0.00     0.050 C 
BRANCH  35  36
ATOM     36  C   UNL     1      -2.745   2.619   2.796  1.00  0.00    -0.027 C 
ATOM     37  C   UNL     1      -2.987   2.438   4.118  1.00  0.00    -0.080 C 
ATOM     38  C   UNL     1      -2.669   3.559   5.079  1.00  0.00     0.039 C 
ATOM     39  C   UNL     1      -3.555   1.181   4.734  1.00  0.00     0.039 C 
ENDBRANCH  35  36
ENDBRANCH   5  35
BRANCH  15  40
ATOM     40  O   UNL     1      -1.574  -1.107  -3.012  1.00  0.00    -0.384 OA
ATOM     41  H   UNL     1      -1.569  -0.117  -3.070  1.00  0.00     0.211 HD
ENDBRANCH  15  40
BRANCH  14  42
ATOM     42  C   UNL     1      -4.615  -0.907  -2.591  1.00  0.00     0.099 C 
ATOM     43  C   UNL     1      -4.342   0.170  -3.659  1.00  0.00     0.046 C 
ATOM     44  C   UNL     1      -4.728  -2.279  -3.276  1.00  0.00     0.046 C 
BRANCH  42  45
ATOM     45  O   UNL     1      -5.861  -0.636  -1.990  1.00  0.00    -0.386 OA
ATOM     46  H   UNL     1      -5.809   0.254  -1.552  1.00  0.00     0.211 HD
ENDBRANCH  42  45
ENDBRANCH  14  42
TORSDOF 12
