REMARK SMILES CC1=C[C@H]2C(=CC1)[C@@H](C)CC[C@@H]2C(C)C
REMARK SMILES IDX 1 1 2 2 3 3 4 4 5 5 6 6 7 7 8 8 9 9 10 10 11 11 12 12 13 13
REMARK SMILES IDX 14 14 15 15
REMARK H PARENT
ROOT
ATOM      1  C   UNL     1      -2.155  -3.548   0.252  1.00  0.00     0.039 C 
ATOM      2  C   UNL     1      -1.842  -2.092   0.017  1.00  0.00    -0.073 C 
ATOM      3  C   UNL     1      -0.592  -1.708  -0.296  1.00  0.00    -0.020 C 
ATOM      4  C   UNL     1      -0.184  -0.260  -0.549  1.00  0.00     0.041 C 
ATOM      5  C   UNL     1      -1.350   0.725  -0.420  1.00  0.00    -0.064 C 
ATOM      6  C   UNL     1      -2.603   0.310  -0.136  1.00  0.00    -0.022 C 
ATOM      7  C   UNL     1      -2.978  -1.116   0.128  1.00  0.00     0.057 C 
ATOM      8  C   UNL     1      -1.060   2.215  -0.653  1.00  0.00     0.012 C 
ATOM      9  C   UNL     1      -1.741   3.120   0.405  1.00  0.00     0.012 C 
ATOM     10  C   UNL     1       0.470   2.468  -0.633  1.00  0.00     0.008 C 
ATOM     11  C   UNL     1       1.085   1.705   0.554  1.00  0.00     0.005 C 
ATOM     12  C   UNL     1       1.087   0.160   0.294  1.00  0.00     0.002 C 
ENDROOT
BRANCH  12  13
ATOM     13  C   UNL     1       2.453  -0.251  -0.405  1.00  0.00    -0.013 C 
ATOM     14  C   UNL     1       2.518  -1.701  -0.911  1.00  0.00     0.007 C 
ATOM     15  C   UNL     1       3.667  -0.062   0.536  1.00  0.00     0.007 C 
ENDBRANCH  12  13
TORSDOF 1
