REMARK SMILES COC(=O)c1c(OC)ccc(OC)c1C(=O)OC
REMARK SMILES IDX 5 1 6 2 9 3 10 4 11 5 14 6 3 7 4 8 2 9 1 10 7 11 8 12 15 13
REMARK SMILES IDX 16 14 17 15 18 16 12 17 13 18
REMARK H PARENT
ROOT
ATOM      1  C   UNL     1      -0.734   0.288  -0.051  1.00  0.00     0.120 A 
ATOM      2  C   UNL     1      -1.391  -0.959   0.221  1.00  0.00     0.134 A 
ATOM      3  C   UNL     1      -0.646  -2.115   0.464  1.00  0.00     0.051 A 
ATOM      4  C   UNL     1       0.727  -2.094   0.450  1.00  0.00     0.051 A 
ATOM      5  C   UNL     1       1.431  -0.915   0.191  1.00  0.00     0.134 A 
ATOM      6  C   UNL     1       0.731   0.310  -0.068  1.00  0.00     0.120 A 
ENDROOT
BRANCH   1   7
ATOM      7  C   UNL     1      -1.648   1.488  -0.298  1.00  0.00     0.342 C 
ATOM      8  O   UNL     1      -1.211   2.599  -0.522  1.00  0.00    -0.246 OA
BRANCH   7   9
ATOM      9  O   UNL     1      -3.000   1.342  -0.267  1.00  0.00    -0.465 OA
ATOM     10  C   UNL     1      -3.900   2.366  -0.479  1.00  0.00     0.282 C 
ENDBRANCH   7   9
ENDBRANCH   1   7
BRANCH   2  11
ATOM     11  O   UNL     1      -2.752  -1.025   0.246  1.00  0.00    -0.496 OA
ATOM     12  C   UNL     1      -3.529  -2.140   0.490  1.00  0.00     0.278 C 
ENDBRANCH   2  11
BRANCH   6  13
ATOM     13  C   UNL     1       1.602   1.535  -0.342  1.00  0.00     0.342 C 
ATOM     14  O   UNL     1       1.127   2.625  -0.593  1.00  0.00    -0.246 OA
BRANCH  13  15
ATOM     15  O   UNL     1       2.958   1.434  -0.319  1.00  0.00    -0.465 OA
ATOM     16  C   UNL     1       3.823   2.484  -0.552  1.00  0.00     0.282 C 
ENDBRANCH  13  15
ENDBRANCH   6  13
BRANCH   5  17
ATOM     17  O   UNL     1       2.793  -0.940   0.186  1.00  0.00    -0.496 OA
ATOM     18  C   UNL     1       3.610  -2.029   0.417  1.00  0.00     0.278 C 
ENDBRANCH   5  17
TORSDOF 6
