REMARK SMILES CO[C@H]1C[C@H](O[C@H]2[C@@H](O)C[C@H](O[C@@H]3[C@H](C)O[C@@H](O[C@H]4[C@@H](OC)C[C@H](O[C@@H]5CC6=CC[C@H]7C(=O)[C@H](c8ccoc8C)CC[C@@H]7[C@@]6(C)C[C@H]5O)O[C@@H]4C)C[C@H]3OC)O[C@@H]2C)O[C@H](C)[C@H]1O[C@H]1C[C@@H](OC)[C@@H](O[C@@H]2O[C@H](CO)[C@@H](O)[C@H](O)[C@H]2O)[C@H](C)O1
REMARK SMILES IDX 7 1 8 2 10 3 11 4 56 5 57 6 58 7 6 8 5 9 3 10 4 11 62 12
REMARK SMILES IDX 60 13 59 14 61 15 2 16 1 17 63 18 64 19 65 20 84 21 66 22
REMARK SMILES IDX 82 23 69 24 83 25 67 26 68 27 70 28 71 29 72 30 80 31 73 32
REMARK SMILES IDX 78 33 76 34 81 35 74 37 75 38 79 40 77 42 9 44 12 46 13 47
REMARK SMILES IDX 14 48 53 49 16 50 52 51 17 52 15 53 54 54 55 55 18 56 19 57
REMARK SMILES IDX 20 58 50 59 23 60 49 61 24 62 51 63 21 64 22 65 25 66 26 67
REMARK SMILES IDX 27 68 47 69 28 70 46 71 29 72 44 73 30 74 43 75 31 76 42 77
REMARK SMILES IDX 32 78 41 79 33 80 34 81 45 82 48 83 35 85 39 86 36 87 38 88
REMARK SMILES IDX 37 89 40 90
REMARK H PARENT 81 36 75 39 79 41 77 43 9 45 48 84
ROOT
ATOM      1  C   UNL     1       3.552  -0.935  -1.000  1.00  0.00     0.179 C 
ATOM      2  C   UNL     1       3.116  -1.463   0.399  1.00  0.00     0.151 C 
ATOM      3  C   UNL     1       1.597  -1.298   0.594  1.00  0.00     0.096 C 
ATOM      4  C   UNL     1       1.254   0.170   0.321  1.00  0.00     0.253 C 
ATOM      5  O   UNL     1       1.498   0.432  -1.048  1.00  0.00    -0.347 OA
ATOM      6  C   UNL     1       2.890   0.447  -1.306  1.00  0.00     0.150 C 
ATOM      7  C   UNL     1       3.071   0.822  -2.778  1.00  0.00     0.041 C 
ENDROOT
BRANCH   1   8
ATOM      8  O   UNL     1       4.955  -0.752  -0.959  1.00  0.00    -0.344 OA
BRANCH   8   9
ATOM      9  C   UNL     1       5.721  -1.376  -1.969  1.00  0.00     0.253 C 
ATOM     10  C   UNL     1       7.536   0.268  -1.352  1.00  0.00     0.154 C 
ATOM     11  C   UNL     1       6.711  -0.335  -2.516  1.00  0.00     0.097 C 
ATOM     12  C   UNL     1       7.755  -0.788  -0.234  1.00  0.00     0.179 C 
ATOM     13  C   UNL     1       7.714  -2.210  -0.845  1.00  0.00     0.150 C 
ATOM     14  O   UNL     1       6.423  -2.503  -1.417  1.00  0.00    -0.347 OA
ATOM     15  C   UNL     1       8.006  -3.264   0.225  1.00  0.00     0.041 C 
BRANCH  10  16
ATOM     16  O   UNL     1       8.775   0.732  -1.863  1.00  0.00    -0.378 OA
ATOM     17  C   UNL     1       8.655   2.079  -2.278  1.00  0.00     0.195 C 
ENDBRANCH  10  16
BRANCH  12  18
ATOM     18  O   UNL     1       8.944  -0.533   0.507  1.00  0.00    -0.344 OA
BRANCH  18  19
ATOM     19  C   UNL     1       8.704   0.327   1.623  1.00  0.00     0.253 C 
ATOM     20  C   UNL     1       9.518  -0.123   2.864  1.00  0.00     0.097 C 
ATOM     21  O   UNL     1       8.965   1.670   1.266  1.00  0.00    -0.347 OA
ATOM     22  C   UNL     1      10.851   0.632   3.010  1.00  0.00     0.154 C 
ATOM     23  C   UNL     1      10.336   1.934   0.939  1.00  0.00     0.150 C 
ATOM     24  C   UNL     1      11.382   0.993   1.628  1.00  0.00     0.179 C 
ATOM     25  C   UNL     1      10.593   3.398   1.329  1.00  0.00     0.041 C 
BRANCH  22  26
ATOM     26  O   UNL     1      11.778  -0.182   3.710  1.00  0.00    -0.378 OA
ATOM     27  C   UNL     1      12.268   0.481   4.853  1.00  0.00     0.195 C 
ENDBRANCH  22  26
BRANCH  24  28
ATOM     28  O   UNL     1      11.549  -0.207   0.881  1.00  0.00    -0.341 OA
BRANCH  28  29
ATOM     29  C   UNL     1      12.889  -0.406   0.466  1.00  0.00     0.282 C 
ATOM     30  O   UNL     1      13.064   0.206  -0.802  1.00  0.00    -0.341 OA
ATOM     31  C   UNL     1      13.143  -1.922   0.365  1.00  0.00     0.202 C 
ATOM     32  C   UNL     1      14.413   0.111  -1.238  1.00  0.00     0.178 C 
ATOM     33  C   UNL     1      14.583  -2.156  -0.128  1.00  0.00     0.179 C 
ATOM     34  C   UNL     1      14.805  -1.381  -1.442  1.00  0.00     0.177 C 
BRANCH  31  35
ATOM     35  O   UNL     1      12.922  -2.561   1.599  1.00  0.00    -0.385 OA
ATOM     36  H   UNL     1      13.537  -2.152   2.265  1.00  0.00     0.211 HD
ENDBRANCH  31  35
BRANCH  32  37
ATOM     37  C   UNL     1      14.534   0.908  -2.547  1.00  0.00     0.191 C 
BRANCH  37  38
ATOM     38  O   UNL     1      15.851   0.918  -3.028  1.00  0.00    -0.394 OA
ATOM     39  H   UNL     1      16.352   1.570  -2.470  1.00  0.00     0.210 HD
ENDBRANCH  37  38
ENDBRANCH  32  37
BRANCH  33  40
ATOM     40  O   UNL     1      14.856  -3.525  -0.287  1.00  0.00    -0.387 OA
ATOM     41  H   UNL     1      14.222  -3.880  -0.966  1.00  0.00     0.211 HD
ENDBRANCH  33  40
BRANCH  34  42
ATOM     42  O   UNL     1      16.136  -1.522  -1.875  1.00  0.00    -0.387 OA
ATOM     43  H   UNL     1      16.719  -1.101  -1.191  1.00  0.00     0.211 HD
ENDBRANCH  34  42
ENDBRANCH  28  29
ENDBRANCH  24  28
ENDBRANCH  18  19
ENDBRANCH  12  18
ENDBRANCH   8   9
ENDBRANCH   1   8
BRANCH   2  44
ATOM     44  O   UNL     1       3.800  -0.825   1.459  1.00  0.00    -0.390 OA
ATOM     45  H   UNL     1       4.021   0.108   1.210  1.00  0.00     0.211 HD
ENDBRANCH   2  44
BRANCH   4  46
ATOM     46  O   UNL     1      -0.105   0.446   0.612  1.00  0.00    -0.344 OA
BRANCH  46  47
ATOM     47  C   UNL     1      -0.296   1.846   0.851  1.00  0.00     0.179 C 
ATOM     48  C   UNL     1      -0.944   2.021   2.245  1.00  0.00     0.150 C 
ATOM     49  C   UNL     1      -1.200   2.448  -0.253  1.00  0.00     0.154 C 
ATOM     50  O   UNL     1      -2.202   1.354   2.332  1.00  0.00    -0.347 OA
ATOM     51  C   UNL     1      -2.632   2.646   0.253  1.00  0.00     0.097 C 
ATOM     52  C   UNL     1      -3.046   1.493   1.186  1.00  0.00     0.253 C 
ATOM     53  C   UNL     1      -0.027   1.465   3.337  1.00  0.00     0.041 C 
BRANCH  49  54
ATOM     54  O   UNL     1      -0.716   3.724  -0.648  1.00  0.00    -0.378 OA
ATOM     55  C   UNL     1      -0.159   3.674  -1.941  1.00  0.00     0.195 C 
ENDBRANCH  49  54
BRANCH  52  56
ATOM     56  O   UNL     1      -4.363   1.749   1.656  1.00  0.00    -0.344 OA
BRANCH  56  57
ATOM     57  C   UNL     1      -5.374   1.074   0.915  1.00  0.00     0.179 C 
ATOM     58  C   UNL     1      -6.273   0.305   1.895  1.00  0.00     0.154 C 
ATOM     59  C   UNL     1      -6.207   2.111   0.122  1.00  0.00     0.150 C 
ATOM     60  C   UNL     1      -6.968   1.329   2.788  1.00  0.00     0.097 C 
ATOM     61  O   UNL     1      -6.997   2.978   0.945  1.00  0.00    -0.347 OA
ATOM     62  C   UNL     1      -7.780   2.322   1.946  1.00  0.00     0.253 C 
ATOM     63  C   UNL     1      -7.004   1.474  -1.021  1.00  0.00     0.041 C 
BRANCH  58  64
ATOM     64  O   UNL     1      -5.489  -0.546   2.714  1.00  0.00    -0.378 OA
ATOM     65  C   UNL     1      -5.461  -1.855   2.193  1.00  0.00     0.195 C 
ENDBRANCH  58  64
BRANCH  62  66
ATOM     66  O   UNL     1      -8.922   1.682   1.385  1.00  0.00    -0.346 OA
BRANCH  66  67
ATOM     67  C   UNL     1     -10.057   2.538   1.262  1.00  0.00     0.154 C 
ATOM     68  C   UNL     1     -11.235   1.931   2.052  1.00  0.00     0.066 C 
ATOM     69  C   UNL     1     -10.399   2.752  -0.239  1.00  0.00     0.144 C 
ATOM     70  C   UNL     1     -11.951   0.767   1.357  1.00  0.00    -0.065 C 
ATOM     71  C   UNL     1     -11.485   1.810  -0.823  1.00  0.00     0.046 C 
ATOM     72  C   UNL     1     -12.974   0.190   2.036  1.00  0.00    -0.026 C 
ATOM     73  C   UNL     1     -11.660   0.429  -0.121  1.00  0.00    -0.005 C 
ATOM     74  C   UNL     1     -13.885  -0.877   1.473  1.00  0.00     0.039 C 
ATOM     75  C   UNL     1     -12.916  -0.278  -0.778  1.00  0.00     0.010 C 
ATOM     76  C   UNL     1     -13.393  -1.436   0.130  1.00  0.00     0.064 C 
ATOM     77  C   UNL     1     -12.708  -0.732  -2.267  1.00  0.00     0.006 C 
ATOM     78  C   UNL     1     -14.400  -2.300  -0.592  1.00  0.00     0.144 C 
ATOM     79  C   UNL     1     -12.677  -2.262  -2.422  1.00  0.00     0.017 C 
ATOM     80  O   UNL     1     -15.499  -2.533  -0.106  1.00  0.00    -0.299 OA
ATOM     81  C   UNL     1     -14.044  -2.843  -1.966  1.00  0.00     0.090 C 
ATOM     82  C   UNL     1     -10.413  -0.490  -0.249  1.00  0.00     0.016 C 
BRANCH  69  83
ATOM     83  O   UNL     1     -10.754   4.087  -0.498  1.00  0.00    -0.390 OA
ATOM     84  H   UNL     1     -11.521   4.312   0.092  1.00  0.00     0.211 HD
ENDBRANCH  69  83
BRANCH  81  85
ATOM     85  C   UNL     1     -14.035  -4.359  -2.012  1.00  0.00     0.004 A 
ATOM     86  C   UNL     1     -13.929  -5.176  -3.132  1.00  0.00     0.104 A 
ATOM     87  C   UNL     1     -14.138  -5.221  -0.935  1.00  0.00     0.046 A 
ATOM     88  O   UNL     1     -13.952  -6.437  -2.762  1.00  0.00    -0.469 OA
ATOM     89  C   UNL     1     -14.077  -6.496  -1.456  1.00  0.00     0.195 A 
ATOM     90  C   UNL     1     -13.831  -4.767  -4.569  1.00  0.00     0.088 C 
ENDBRANCH  81  85
ENDBRANCH  66  67
ENDBRANCH  62  66
ENDBRANCH  56  57
ENDBRANCH  52  56
ENDBRANCH  46  47
ENDBRANCH   4  46
TORSDOF 24
