REMARK SMILES CCCCCc1cc(C)c(CCCCCCCCCCC(=O)OC[C@@H](CO[P@@](=O)(O)OC[C@@H](N)C(=O)O)OC(=O)CCCCCCCCCCc2oc(CCCCC)c(C)c2C)o1
REMARK SMILES IDX 24 1 23 2 21 3 22 4 20 5 19 6 18 7 17 8 16 9 15 10 14 11
REMARK SMILES IDX 13 12 12 13 11 14 10 15 6 16 7 17 63 18 8 19 9 20 5 21 4 22
REMARK SMILES IDX 3 23 2 24 1 25 25 26 26 27 27 28 28 29 29 30 30 31 31 33
REMARK SMILES IDX 32 34 33 35 34 36 35 39 36 40 37 41 38 43 39 44 40 45 41 46
REMARK SMILES IDX 42 47 43 48 44 49 45 50 46 51 47 52 48 53 49 54 50 55 51 56
REMARK SMILES IDX 61 57 52 58 59 59 53 60 62 61 60 62 54 63 55 64 56 65 57 66
REMARK SMILES IDX 58 67
REMARK H PARENT 30 32 34 37 34 38 37 42
ROOT
ATOM      1  C   UNL     1      -0.023   2.288  -1.175  1.00  0.00     0.280 C 
ENDROOT
BRANCH   1   2
ATOM      2  O   UNL     1      -1.402   2.288  -1.043  1.00  0.00    -0.462 OA
BRANCH   2   3
ATOM      3  C   UNL     1      -2.077   2.883  -0.023  1.00  0.00     0.305 C 
ATOM      4  O   UNL     1      -1.479   3.556   0.805  1.00  0.00    -0.252 OA
BRANCH   3   5
ATOM      5  C   UNL     1      -3.577   2.777   0.091  1.00  0.00     0.123 C 
BRANCH   5   6
ATOM      6  C   UNL     1      -4.261   1.883  -0.958  1.00  0.00     0.012 C 
BRANCH   6   7
ATOM      7  C   UNL     1      -3.875   0.401  -0.799  1.00  0.00     0.001 C 
BRANCH   7   8
ATOM      8  C   UNL     1      -4.622  -0.547  -1.755  1.00  0.00     0.000 C 
BRANCH   8   9
ATOM      9  C   UNL     1      -6.156  -0.549  -1.613  1.00  0.00     0.000 C 
BRANCH   9  10
ATOM     10  C   UNL     1      -6.622  -0.851  -0.177  1.00  0.00     0.000 C 
BRANCH  10  11
ATOM     11  C   UNL     1      -8.144  -1.007  -0.036  1.00  0.00     0.000 C 
BRANCH  11  12
ATOM     12  C   UNL     1      -8.937   0.230  -0.501  1.00  0.00     0.000 C 
BRANCH  12  13
ATOM     13  C   UNL     1     -10.448   0.069  -0.265  1.00  0.00     0.008 C 
BRANCH  13  14
ATOM     14  C   UNL     1     -10.821   0.210   1.218  1.00  0.00     0.076 C 
BRANCH  14  15
ATOM     15  C   UNL     1     -12.286  -0.009   1.451  1.00  0.00     0.107 A 
ATOM     16  C   UNL     1     -14.320   0.430   1.938  1.00  0.00     0.104 A 
ATOM     17  C   UNL     1     -14.261  -0.942   1.792  1.00  0.00     0.049 A 
ATOM     18  O   UNL     1     -13.128   0.957   1.741  1.00  0.00    -0.466 OA
ATOM     19  C   UNL     1     -12.954  -1.224   1.460  1.00  0.00    -0.009 A 
ATOM     20  C   UNL     1     -12.382  -2.584   1.206  1.00  0.00     0.048 C 
BRANCH  16  21
ATOM     21  C   UNL     1     -15.525   1.239   2.311  1.00  0.00     0.075 C 
BRANCH  21  22
ATOM     22  C   UNL     1     -15.965   2.214   1.203  1.00  0.00     0.008 C 
BRANCH  22  23
ATOM     23  C   UNL     1     -16.831   1.583   0.089  1.00  0.00     0.000 C 
BRANCH  23  24
ATOM     24  C   UNL     1     -16.144   0.504  -0.756  1.00  0.00    -0.003 C 
ATOM     25  C   UNL     1     -17.094  -0.028  -1.828  1.00  0.00     0.004 C 
ENDBRANCH  23  24
ENDBRANCH  22  23
ENDBRANCH  21  22
ENDBRANCH  16  21
ENDBRANCH  14  15
ENDBRANCH  13  14
ENDBRANCH  12  13
ENDBRANCH  11  12
ENDBRANCH  10  11
ENDBRANCH   9  10
ENDBRANCH   8   9
ENDBRANCH   7   8
ENDBRANCH   6   7
ENDBRANCH   5   6
ENDBRANCH   3   5
ENDBRANCH   2   3
ENDBRANCH   1   2
BRANCH   1  26
ATOM     26  C   UNL     1       0.658   1.393  -0.123  1.00  0.00     0.240 C 
BRANCH  26  27
ATOM     27  C   UNL     1       0.244  -0.074  -0.277  1.00  0.00     0.222 C 
BRANCH  27  28
ATOM     28  O   UNL     1       0.991  -0.848   0.628  1.00  0.00    -0.283 OA
BRANCH  28  29
ATOM     29  P   UNL     1       0.315  -2.464   0.730  1.00  0.00     0.472 P 
ATOM     30  O   UNL     1      -0.711  -2.683  -0.419  1.00  0.00    -0.228 OA
BRANCH  29  31
ATOM     31  O   UNL     1       1.552  -3.666   0.529  1.00  0.00    -0.302 OA
ATOM     32  H   UNL     1       1.915  -3.501  -0.378  1.00  0.00     0.223 HD
ENDBRANCH  29  31
BRANCH  29  33
ATOM     33  O   UNL     1      -0.547  -2.711   2.230  1.00  0.00    -0.285 OA
BRANCH  33  34
ATOM     34  C   UNL     1       0.045  -1.892   3.208  1.00  0.00     0.204 C 
BRANCH  34  35
ATOM     35  C   UNL     1      -0.689  -2.036   4.556  1.00  0.00     0.188 C 
BRANCH  35  36
ATOM     36  N   UNL     1      -0.003  -1.239   5.580  1.00  0.00    -0.316 NA
ATOM     37  H   UNL     1       0.045  -0.235   5.287  1.00  0.00     0.119 HD
ATOM     38  H   UNL     1       0.973  -1.593   5.706  1.00  0.00     0.119 HD
ENDBRANCH  35  36
BRANCH  35  39
ATOM     39  C   UNL     1      -2.145  -1.613   4.450  1.00  0.00     0.322 C 
ATOM     40  O   UNL     1      -2.561  -0.668   5.103  1.00  0.00    -0.250 OA
BRANCH  39  41
ATOM     41  O   UNL     1      -3.013  -2.287   3.664  1.00  0.00    -0.480 OA
ATOM     42  H   UNL     1      -2.761  -3.080   3.173  1.00  0.00     0.296 HD
ENDBRANCH  39  41
ENDBRANCH  35  39
ENDBRANCH  34  35
ENDBRANCH  33  34
ENDBRANCH  29  33
ENDBRANCH  28  29
ENDBRANCH  27  28
ENDBRANCH  26  27
BRANCH  26  43
ATOM     43  O   UNL     1       2.032   1.477  -0.279  1.00  0.00    -0.456 OA
BRANCH  43  44
ATOM     44  C   UNL     1       2.913   1.801   0.704  1.00  0.00     0.306 C 
ATOM     45  O   UNL     1       2.524   2.098   1.826  1.00  0.00    -0.252 OA
BRANCH  44  46
ATOM     46  C   UNL     1       4.389   1.789   0.422  1.00  0.00     0.123 C 
BRANCH  46  47
ATOM     47  C   UNL     1       4.923   0.396   0.037  1.00  0.00     0.012 C 
BRANCH  47  48
ATOM     48  C   UNL     1       4.368  -0.207  -1.274  1.00  0.00     0.001 C 
BRANCH  48  49
ATOM     49  C   UNL     1       4.551   0.683  -2.520  1.00  0.00     0.000 C 
BRANCH  49  50
ATOM     50  C   UNL     1       5.992   1.080  -2.917  1.00  0.00     0.000 C 
BRANCH  50  51
ATOM     51  C   UNL     1       6.827   0.014  -3.664  1.00  0.00     0.000 C 
BRANCH  51  52
ATOM     52  C   UNL     1       7.376  -1.182  -2.865  1.00  0.00     0.000 C 
BRANCH  52  53
ATOM     53  C   UNL     1       8.373  -0.761  -1.776  1.00  0.00     0.000 C 
BRANCH  53  54
ATOM     54  C   UNL     1       8.966  -1.984  -1.059  1.00  0.00     0.008 C 
BRANCH  54  55
ATOM     55  C   UNL     1       9.965  -1.632   0.062  1.00  0.00     0.076 C 
BRANCH  55  56
ATOM     56  C   UNL     1      11.175  -0.904  -0.456  1.00  0.00     0.107 A 
ATOM     57  C   UNL     1      11.316   0.464  -0.661  1.00  0.00    -0.006 A 
ATOM     58  O   UNL     1      12.281  -1.520  -0.820  1.00  0.00    -0.466 OA
ATOM     59  C   UNL     1      12.571   0.635  -1.209  1.00  0.00    -0.006 A 
ATOM     60  C   UNL     1      13.134  -0.629  -1.279  1.00  0.00     0.107 A 
ATOM     61  C   UNL     1      10.331   1.554  -0.354  1.00  0.00     0.048 C 
ATOM     62  C   UNL     1      13.215   1.923  -1.625  1.00  0.00     0.048 C 
BRANCH  60  63
ATOM     63  C   UNL     1      14.488  -0.977  -1.824  1.00  0.00     0.076 C 
BRANCH  63  64
ATOM     64  C   UNL     1      15.463  -1.559  -0.784  1.00  0.00     0.008 C 
BRANCH  64  65
ATOM     65  C   UNL     1      16.024  -0.530   0.221  1.00  0.00     0.000 C 
BRANCH  65  66
ATOM     66  C   UNL     1      15.033  -0.065   1.297  1.00  0.00    -0.003 C 
ATOM     67  C   UNL     1      15.684   0.957   2.226  1.00  0.00     0.004 C 
ENDBRANCH  65  66
ENDBRANCH  64  65
ENDBRANCH  63  64
ENDBRANCH  60  63
ENDBRANCH  55  56
ENDBRANCH  54  55
ENDBRANCH  53  54
ENDBRANCH  52  53
ENDBRANCH  51  52
ENDBRANCH  50  51
ENDBRANCH  49  50
ENDBRANCH  48  49
ENDBRANCH  47  48
ENDBRANCH  46  47
ENDBRANCH  44  46
ENDBRANCH  43  44
ENDBRANCH  26  43
ENDBRANCH   1  26
TORSDOF 45
