REMARK SMILES C[C@H]1C[C@@H]2O[C@]23[C@H]1[C@@H]1[C@@H](CC(=O)[C@]3(C)O)C1(C)C
REMARK SMILES IDX 1 1 2 2 3 3 4 4 5 5 6 6 7 7 8 8 9 9 16 10 17 11 18 12 10 13
REMARK SMILES IDX 13 15 14 16 11 17 12 18 15 20
REMARK H PARENT 15 21
REMARK Flexibility Score:    7.900
ROOT
ATOM      1  C   UNL     1      -1.278   2.243  -1.063  1.00  0.00     0.008 C 
ATOM      2  C   UNL     1      -0.911   2.040   0.426  1.00  0.00    -0.005 C 
ATOM      3  C   UNL     1      -2.186   1.838   1.253  1.00  0.00     0.039 C 
ATOM      4  C   UNL     1      -2.547   0.376   0.983  1.00  0.00     0.155 C 
ATOM      5  O   UNL     1      -1.871  -0.468   1.911  1.00  0.00    -0.362 OA
ATOM      6  C   UNL     1      -1.267  -0.345   0.663  1.00  0.00     0.133 C 
ATOM      7  C   UNL     1      -0.157   0.731   0.687  1.00  0.00     0.034 C 
ENDROOT
BRANCH   7   8
ATOM      8  C   UNL     1       0.993   0.435  -0.280  1.00  0.00     0.005 C 
ATOM      9  C   UNL     1       1.723  -0.799   0.345  1.00  0.00     0.006 C 
ATOM     10  C   UNL     1       2.498   0.439  -0.057  1.00  0.00    -0.028 C 
ATOM     11  C   UNL     1       2.994   1.374   1.053  1.00  0.00     0.012 C 
ATOM     12  C   UNL     1       3.370   0.354  -1.315  1.00  0.00     0.012 C 
BRANCH   9  13
ATOM     13  C   UNL     1       1.331  -2.026  -0.472  1.00  0.00     0.083 CG0
ATOM     14  G   UNL     1      -0.057  -2.489  -0.072  1.00  0.00     0.000 G0
ENDBRANCH   9  13
ENDBRANCH   7   8
BRANCH   6  15
ATOM     15  C   UNL     1      -1.311  -1.611  -0.271  1.00  0.00     0.151 C 
ATOM     16  C   UNL     1      -2.591  -2.449  -0.002  1.00  0.00     0.054 C 
BRANCH  15  17
ATOM     17  C   UNL     1      -0.057  -2.489  -0.072  1.00  0.00     0.167 CG0
ATOM     18  O   UNL     1      -0.172  -3.623   0.374  1.00  0.00    -0.296 OA
ATOM     19  G   UNL     1       1.331  -2.026  -0.472  1.00  0.00     0.000 G0
ENDBRANCH  15  17
BRANCH  15  20
ATOM     20  O   UNL     1      -1.356  -1.168  -1.606  1.00  0.00    -0.379 OA
ATOM     21  H   UNL     1      -1.331  -1.964  -2.199  1.00  0.00     0.212 HD
ENDBRANCH  15  20
ENDBRANCH   6  15
TORSDOF 1
