REMARK SMILES C=C1[C@H]2C(=C(COC(C)=O)CC[C@H]3C(=C)C(=O)O[C@H]23)C[C@@H]1OC(=O)/C(C)=C\C
REMARK SMILES IDX 1 1 2 2 3 3 4 4 5 5 20 6 21 7 19 8 18 9 13 10 16 11 14 12
REMARK SMILES IDX 17 13 15 14 12 15 22 17 23 18 24 19 25 20 27 21 26 22 28 23
REMARK SMILES IDX 6 24 7 25 8 26 10 27 9 28 11 29
REMARK H PARENT
REMARK Flexibility Score:   12.900
ROOT
ATOM      1  C   UNL     1       1.931  -1.752  -0.699  1.00  0.00     0.012 C 
ATOM      2  C   UNL     1       1.281  -0.860   0.065  1.00  0.00    -0.026 C 
ATOM      3  C   UNL     1      -0.026  -1.009   0.800  1.00  0.00     0.086 C 
ATOM      4  C   UNL     1      -0.706   0.298   0.352  1.00  0.00    -0.053 C 
ATOM      5  C   UNL     1      -2.059   0.569   0.271  1.00  0.00    -0.033 C 
ATOM      6  C   UNL     1       0.373   1.248  -0.161  1.00  0.00     0.082 C 
ATOM      7  C   UNL     1       1.664   0.559   0.250  1.00  0.00     0.207 C 
ENDROOT
BRANCH   3   8
ATOM      8  C   UNL     1      -0.902  -2.227   0.517  1.00  0.00     0.196 C 
ATOM      9  O   UNL     1      -0.311  -3.478   0.427  1.00  0.00    -0.457 OA
ATOM     10  C   UNL     1      -1.922  -2.414   1.644  1.00  0.00     0.068 C 
ATOM     11  C   UNL     1      -1.286  -4.394   0.642  1.00  0.00     0.334 C 
ATOM     12  C   UNL     1      -2.442  -3.757   1.270  1.00  0.00     0.037 C 
ATOM     13  O   UNL     1      -1.198  -5.569   0.323  1.00  0.00    -0.247 OA
ATOM     14  C   UNL     1      -3.654  -4.281   1.480  1.00  0.00     0.021 C 
BRANCH  10  15
ATOM     15  C   UNL     1      -2.827  -1.226   1.964  1.00  0.00     0.017 CG0
ATOM     16  G   UNL     1      -3.183  -0.364   0.761  1.00  0.00     0.000 G0
ENDBRANCH  10  15
ENDBRANCH   3   8
BRANCH   7  17
ATOM     17  O   UNL     1       2.779   0.986  -0.463  1.00  0.00    -0.454 OA
BRANCH  17  18
ATOM     18  C   UNL     1       3.878   1.548   0.119  1.00  0.00     0.333 C 
ATOM     19  O   UNL     1       3.884   1.727   1.329  1.00  0.00    -0.247 OA
BRANCH  18  20
ATOM     20  C   UNL     1       5.063   1.942  -0.708  1.00  0.00     0.030 C 
ATOM     21  C   UNL     1       6.201   2.514  -0.231  1.00  0.00    -0.020 C 
ATOM     22  C   UNL     1       5.012   1.694  -2.197  1.00  0.00     0.052 C 
ATOM     23  C   UNL     1       6.557   2.884   1.193  1.00  0.00     0.036 C 
ENDBRANCH  18  20
ENDBRANCH  17  18
ENDBRANCH   7  17
BRANCH   5  24
ATOM     24  C   UNL     1      -2.551   1.890  -0.321  1.00  0.00     0.264 C 
BRANCH  24  25
ATOM     25  O   UNL     1      -3.257   1.681  -1.495  1.00  0.00    -0.461 OA
BRANCH  25  26
ATOM     26  C   UNL     1      -4.591   1.437  -1.602  1.00  0.00     0.302 C 
ATOM     27  O   UNL     1      -5.300   1.337  -0.612  1.00  0.00    -0.253 OA
ATOM     28  C   UNL     1      -5.207   1.300  -2.957  1.00  0.00     0.139 C 
ENDBRANCH  25  26
ENDBRANCH  24  25
ENDBRANCH   5  24
BRANCH   5  29
ATOM     29  C   UNL     1      -3.183  -0.364   0.761  1.00  0.00     0.035 CG0
ATOM     30  G   UNL     1      -2.827  -1.226   1.964  1.00  0.00     0.000 G0
ENDBRANCH   5  29
TORSDOF 6
