REMARK SMILES C=C1C[C@H](C)/C(O)=N\[C@@H](C)C(=O)N(C)[C@@H](Cc2c(Br)[nH]c3ccccc23)/C(O)=N/[C@H](c2ccc(O)cc2)CC(=O)O[C@@H](C)C[C@@H](C)C1=O
REMARK SMILES IDX 11 1 12 2 9 3 10 4 8 5 6 6 4 7 5 8 3 9 2 10 1 11 47 12 48 13
REMARK SMILES IDX 45 14 46 15 44 16 7 18 13 20 14 21 15 22 16 23 17 24 18 25
REMARK SMILES IDX 26 26 20 27 25 28 21 29 24 30 22 31 23 32 19 33 27 35 29 36
REMARK SMILES IDX 28 37 30 39 31 40 32 41 37 42 33 43 36 44 34 45 35 46 38 48
REMARK SMILES IDX 39 49 40 50 41 51 42 52 43 53
REMARK H PARENT 7 19 20 34 28 38 35 47
REMARK Flexibility Score:  133.900
ROOT
ATOM      1  C   UNL     1      -0.526  -2.321  -0.392  1.00  0.00     0.247 C 
ATOM      2  O   UNL     1      -1.035  -2.446  -1.501  1.00  0.00    -0.272 OA
ENDROOT
BRANCH   1   3
ATOM      3  C   UNL     1       0.418  -3.469   0.017  1.00  0.00     0.195 C 
ATOM      4  C   UNL     1      -0.268  -4.811  -0.284  1.00  0.00     0.044 C 
BRANCH   3   5
ATOM      5  N   UNL     1       0.728  -3.510   1.428  1.00  0.00    -0.242 NA
ATOM      6  C   UNL     1       1.872  -3.547   2.041  1.00  0.00     0.184 C 
BRANCH   6   7
ATOM      7  C   UNL     1       3.259  -3.558   1.380  1.00  0.00     0.076 C 
ATOM      8  C   UNL     1       3.461  -4.814   0.500  1.00  0.00     0.018 C 
BRANCH   7   9
ATOM      9  C   UNL     1       3.665  -2.209   0.685  1.00  0.00     0.051 C 
BRANCH   9  10
ATOM     10  C   UNL     1       5.182  -1.977   0.506  1.00  0.00    -0.011 C 
ATOM     11  C   UNL     1       6.093  -2.896   0.934  1.00  0.00     0.016 C 
BRANCH  10  12
ATOM     12  C   UNL     1       5.762  -0.715  -0.109  1.00  0.00     0.161 C 
ATOM     13  O   UNL     1       6.983  -0.607  -0.054  1.00  0.00    -0.294 OA
BRANCH  12  14
ATOM     14  C   UNL     1       5.015   0.423  -0.845  1.00  0.00     0.061 C 
ATOM     15  C   UNL     1       6.081   1.337  -1.515  1.00  0.00     0.016 C 
BRANCH  14  16
ATOM     16  C   UNL     1       3.988   1.219   0.045  1.00  0.00     0.056 CG0
ATOM     17  G   UNL     1       3.532   2.592  -0.562  1.00  0.00     0.000 G0
ENDBRANCH  14  16
ENDBRANCH  12  14
ENDBRANCH  10  12
ENDBRANCH   9  10
ENDBRANCH   7   9
ENDBRANCH   6   7
BRANCH   6  18
ATOM     18  O   UNL     1       1.817  -3.596   3.393  1.00  0.00    -0.496 OA
ATOM     19  H   UNL     1       2.602  -3.627   3.958  1.00  0.00     0.294 HD
ENDBRANCH   6  18
ENDBRANCH   3   5
ENDBRANCH   1   3
BRANCH   1  20
ATOM     20  N   UNL     1      -0.843  -1.197   0.350  1.00  0.00    -0.332 N 
ATOM     21  C   UNL     1      -0.148  -0.801   1.585  1.00  0.00     0.147 C 
BRANCH  20  22
ATOM     22  C   UNL     1      -1.870  -0.258  -0.143  1.00  0.00     0.175 C 
BRANCH  22  23
ATOM     23  C   UNL     1      -3.043  -0.114   0.864  1.00  0.00     0.074 C 
BRANCH  23  24
ATOM     24  C   UNL     1      -3.959  -1.304   0.815  1.00  0.00    -0.005 A 
ATOM     25  C   UNL     1      -4.052  -2.368   1.709  1.00  0.00     0.086 A 
ATOM     26  C   UNL     1      -4.932  -1.534  -0.140  1.00  0.00     0.004 A 
ATOM     27  N   UNL     1      -5.027  -3.223   1.321  1.00  0.00    -0.349 N 
ATOM     28  C   UNL     1      -5.318  -0.791  -1.258  1.00  0.00     0.010 A 
ATOM     29  C   UNL     1      -5.561  -2.704   0.200  1.00  0.00     0.047 A 
ATOM     30  C   UNL     1      -6.384  -1.282  -2.037  1.00  0.00     0.001 A 
ATOM     31  C   UNL     1      -6.614  -3.216  -0.556  1.00  0.00     0.027 A 
ATOM     32  C   UNL     1      -7.027  -2.489  -1.687  1.00  0.00     0.002 A 
ATOM     33  Br  UNL     1      -2.986  -2.643   3.268  1.00  0.00    -0.031 Br
ATOM     34  H   UNL     1      -5.313  -4.104   1.800  1.00  0.00     0.167 HD
ENDBRANCH  23  24
ENDBRANCH  22  23
BRANCH  22  35
ATOM     35  C   UNL     1      -1.208   1.057  -0.460  1.00  0.00     0.205 C 
ATOM     36  N   UNL     1      -1.370   2.047   0.351  1.00  0.00    -0.245 NA
BRANCH  35  37
ATOM     37  O   UNL     1      -0.450   1.144  -1.566  1.00  0.00    -0.495 OA
ATOM     38  H   UNL     1      -0.306   0.387  -2.151  1.00  0.00     0.295 HD
ENDBRANCH  35  37
BRANCH  36  39
ATOM     39  C   UNL     1      -0.900   3.422   0.340  1.00  0.00     0.150 C 
BRANCH  39  40
ATOM     40  C   UNL     1      -2.157   4.263   0.418  1.00  0.00    -0.023 A 
ATOM     41  C   UNL     1      -3.114   4.182  -0.613  1.00  0.00     0.010 A 
ATOM     42  C   UNL     1      -2.420   5.084   1.528  1.00  0.00     0.010 A 
ATOM     43  C   UNL     1      -4.306   4.902  -0.537  1.00  0.00     0.046 A 
ATOM     44  C   UNL     1      -3.619   5.806   1.601  1.00  0.00     0.046 A 
ATOM     45  C   UNL     1      -4.565   5.715   0.573  1.00  0.00     0.115 A 
BRANCH  45  46
ATOM     46  O   UNL     1      -5.720   6.404   0.665  1.00  0.00    -0.508 OA
ATOM     47  H   UNL     1      -6.403   6.354  -0.019  1.00  0.00     0.293 HD
ENDBRANCH  45  46
ENDBRANCH  39  40
BRANCH  39  48
ATOM     48  C   UNL     1      -0.031   3.899  -0.853  1.00  0.00     0.155 C 
BRANCH  48  49
ATOM     49  C   UNL     1       1.251   3.152  -1.150  1.00  0.00     0.308 C 
ATOM     50  O   UNL     1       1.425   2.788  -2.307  1.00  0.00    -0.252 OA
BRANCH  49  51
ATOM     51  O   UNL     1       2.227   2.946  -0.212  1.00  0.00    -0.463 OA
BRANCH  51  52
ATOM     52  C   UNL     1       3.532   2.592  -0.562  1.00  0.00     0.174 CG0
ATOM     53  C   UNL     1       4.438   3.750  -0.111  1.00  0.00     0.053 C 
ATOM     54  G   UNL     1       3.988   1.219   0.045  1.00  0.00     0.000 G0
ENDBRANCH  51  52
ENDBRANCH  49  51
ENDBRANCH  48  49
ENDBRANCH  39  48
ENDBRANCH  36  39
ENDBRANCH  22  35
ENDBRANCH  20  22
ENDBRANCH   1  20
TORSDOF 6
