REMARK SMILES O=C1C[C@@H]2OCC=C3CN4CC[C@@]56c7ccccc7N1[C@H]5[C@@H]2[C@@H]3C[C@@H]46
REMARK SMILES IDX 5 1 4 2 1 3 2 4 3 5 20 6 19 7 21 8 22 9 18 10 14 11 13 12
REMARK SMILES IDX 23 13 17 14 15 15 12 16 25 17 24 18 8 19 16 20 11 21 10 22
REMARK SMILES IDX 7 23 9 24 6 26
REMARK H PARENT
REMARK Flexibility Score:   22.900
ROOT
ATOM      1  O   UNL     1      -1.788   6.040   0.171  1.00  0.00    -0.373 OA
ENDROOT
BRANCH   1   2
ATOM      2  C   UNL     1      -2.660   4.951   0.462  1.00  0.00     0.133 C 
ATOM      3  O   UNL     1      -6.143   4.242   1.437  1.00  0.00    -0.274 OA
ATOM      4  C   UNL     1      -5.082   4.151   0.838  1.00  0.00     0.229 C 
ATOM      5  C   UNL     1      -4.127   5.367   0.791  1.00  0.00     0.133 C 
ATOM      6  N   UNL     1      -4.738   2.982   0.214  1.00  0.00    -0.308 N 
ATOM      7  C   UNL     1      -5.337   1.699   0.137  1.00  0.00     0.048 A 
ATOM      8  C   UNL     1      -3.582   2.828  -0.583  1.00  0.00     0.109 C 
ATOM      9  C   UNL     1      -2.696   4.082  -0.792  1.00  0.00     0.050 C 
ATOM     10  C   UNL     1      -6.660   1.344   0.393  1.00  0.00     0.026 A 
ATOM     11  C   UNL     1      -4.379   0.740  -0.266  1.00  0.00    -0.014 A 
ATOM     12  C   UNL     1      -2.989   1.394  -0.265  1.00  0.00     0.035 C 
ATOM     13  C   UNL     1      -1.322   3.632  -1.326  1.00  0.00     0.025 C 
ATOM     14  C   UNL     1      -7.025  -0.003   0.224  1.00  0.00     0.002 A 
ATOM     15  C   UNL     1      -4.734  -0.601  -0.406  1.00  0.00     0.006 A 
ATOM     16  C   UNL     1      -2.429   0.945   1.099  1.00  0.00     0.031 C 
ATOM     17  C   UNL     1      -1.691   1.145  -1.190  1.00  0.00     0.070 C 
ATOM     18  C   UNL     1      -1.489   2.334  -2.209  1.00  0.00     0.028 C 
ATOM     19  C   UNL     1      -0.061   3.567  -0.506  1.00  0.00    -0.054 C 
ATOM     20  C   UNL     1      -6.072  -0.965  -0.175  1.00  0.00     0.000 A 
ATOM     21  C   UNL     1      -0.968   1.269   1.125  1.00  0.00     0.086 C 
ATOM     22  N   UNL     1      -0.469   1.114  -0.261  1.00  0.00    -0.295 NA
ATOM     23  C   UNL     1       0.322   4.566   0.354  1.00  0.00     0.002 CG0
ATOM     24  C   UNL     1       0.609   2.159  -0.509  1.00  0.00     0.116 C 
ATOM     25  G   UNL     1      -0.466   5.853   0.699  1.00  0.00     0.000 G0
ENDBRANCH   1   2
BRANCH   1  26
ATOM     26  C   UNL     1      -0.466   5.853   0.699  1.00  0.00     0.188 CG0
ATOM     27  G   UNL     1       0.322   4.566   0.354  1.00  0.00     0.000 G0
ENDBRANCH   1  26
TORSDOF 0
