REMARK SMILES O=C[C@@H](O[C@@H]1O[C@H](CO)[C@H](O)[C@@H](O)[C@@H]1O)[C@H](O[C@@H]1O[C@H](CO)[C@H](O)[C@@H](O)[C@@H]1O)[C@H](O[C@H]1O[C@@H](CO)[C@@H](O)[C@H](O)[C@@H]1O)[C@H](CO[C@H]1O[C@H](CO)[C@H](O)[C@@H](O)[C@H]1O)O[C@@H]1O[C@H](CO)[C@@H](O)[C@H](O)[C@H]1O
REMARK SMILES IDX 29 1 16 2 3 3 2 4 1 5 4 6 5 7 6 8 14 9 7 10 12 11 10 12
REMARK SMILES IDX 15 13 8 15 9 16 13 18 11 20 17 22 18 23 19 24 27 25 20 26
REMARK SMILES IDX 25 27 23 28 28 29 21 31 22 32 26 34 24 36 30 38 31 39 32 40
REMARK SMILES IDX 40 41 33 42 38 43 36 44 41 45 34 47 35 48 39 50 37 52 42 54
REMARK SMILES IDX 43 55 44 56 45 57 46 58 54 59 47 60 52 61 50 62 55 63 48 65
REMARK SMILES IDX 49 66 53 68 51 70 56 72 57 73 58 74 66 75 59 76 64 77 62 78
REMARK SMILES IDX 67 79 60 81 61 82 65 84 63 86
REMARK H PARENT 15 14 9 17 13 19 11 21 28 30 22 33 26 35 24 37 41 46 35 49
REMARK H PARENT 39 51 37 53 55 64 49 67 53 69 51 71 67 80 61 83 65 85 63 87
ROOT
ATOM      1  C   UNL     1       5.374  -2.768   0.000  1.00  0.00     0.185 C 
ENDROOT
BRANCH   1   2
ATOM      2  C   UNL     1       3.897  -3.029   0.000  1.00  0.00     0.189 C 
BRANCH   2   3
ATOM      3  C   UNL     1       2.420  -3.289   0.000  1.00  0.00     0.216 C 
BRANCH   3   4
ATOM      4  C   UNL     1       0.943  -3.550   0.000  1.00  0.00     0.259 C 
ATOM      5  O   UNL     1       0.471  -4.292   0.850  1.00  0.00    -0.300 OA
ENDBRANCH   3   4
BRANCH   3   6
ATOM      6  O   UNL     1       2.338  -2.585   1.258  1.00  0.00    -0.336 OA
BRANCH   6   7
ATOM      7  C   UNL     1       1.841  -1.233   1.210  1.00  0.00     0.282 C 
ATOM      8  O   UNL     1       2.850  -0.319   1.586  1.00  0.00    -0.341 OA
ATOM      9  C   UNL     1       0.617  -1.097   2.161  1.00  0.00     0.202 C 
ATOM     10  C   UNL     1       2.464   1.045   1.333  1.00  0.00     0.178 C 
ATOM     11  C   UNL     1       0.320   0.394   2.486  1.00  0.00     0.179 C 
ATOM     12  C   UNL     1       0.908   1.290   1.382  1.00  0.00     0.177 C 
BRANCH   9  13
ATOM     13  O   UNL     1       0.838  -1.796   3.359  1.00  0.00    -0.385 OA
ATOM     14  H   UNL     1      -0.056  -1.963   3.758  1.00  0.00     0.211 HD
ENDBRANCH   9  13
BRANCH  10  15
ATOM     15  C   UNL     1       3.221   1.919   2.346  1.00  0.00     0.191 C 
BRANCH  15  16
ATOM     16  O   UNL     1       4.599   1.705   2.204  1.00  0.00    -0.394 OA
ATOM     17  H   UNL     1       5.043   2.355   2.807  1.00  0.00     0.210 HD
ENDBRANCH  15  16
ENDBRANCH  10  15
BRANCH  11  18
ATOM     18  O   UNL     1      -1.054   0.603   2.688  1.00  0.00    -0.387 OA
ATOM     19  H   UNL     1      -1.508   0.454   1.817  1.00  0.00     0.211 HD
ENDBRANCH  11  18
BRANCH  12  20
ATOM     20  O   UNL     1       0.583   2.652   1.526  1.00  0.00    -0.387 OA
ATOM     21  H   UNL     1       0.626   2.881   2.490  1.00  0.00     0.211 HD
ENDBRANCH  12  20
ENDBRANCH   6   7
ENDBRANCH   3   6
ENDBRANCH   2   3
BRANCH   2  22
ATOM     22  O   UNL     1       3.948  -4.403  -0.555  1.00  0.00    -0.341 OA
BRANCH  22  23
ATOM     23  C   UNL     1       4.532  -5.481   0.188  1.00  0.00     0.282 C 
ATOM     24  O   UNL     1       4.417  -6.831  -0.425  1.00  0.00    -0.341 OA
ATOM     25  C   UNL     1       4.144  -5.504   1.665  1.00  0.00     0.202 C 
ATOM     26  C   UNL     1       5.567  -7.617  -0.000  1.00  0.00     0.178 C 
ATOM     27  C   UNL     1       5.250  -6.294   2.355  1.00  0.00     0.179 C 
ATOM     28  C   UNL     1       5.436  -7.632   1.635  1.00  0.00     0.177 C 
BRANCH  25  29
ATOM     29  O   UNL     1       2.881  -6.101   1.817  1.00  0.00    -0.385 OA
ATOM     30  H   UNL     1       2.415  -5.623   2.551  1.00  0.00     0.211 HD
ENDBRANCH  25  29
BRANCH  26  31
ATOM     31  C   UNL     1       5.828  -9.094   0.000  1.00  0.00     0.191 C 
BRANCH  31  32
ATOM     32  O   UNL     1       6.088 -10.572  -0.000  1.00  0.00    -0.394 OA
ATOM     33  H   UNL     1       5.750 -10.889   0.876  1.00  0.00     0.210 HD
ENDBRANCH  31  32
ENDBRANCH  26  31
BRANCH  27  34
ATOM     34  O   UNL     1       6.449  -5.562   2.323  1.00  0.00    -0.387 OA
ATOM     35  H   UNL     1       7.026  -5.927   3.044  1.00  0.00     0.211 HD
ENDBRANCH  27  34
BRANCH  28  36
ATOM     36  O   UNL     1       4.313  -8.418   1.991  1.00  0.00    -0.387 OA
ATOM     37  H   UNL     1       4.591  -9.034   2.720  1.00  0.00     0.211 HD
ENDBRANCH  28  36
ENDBRANCH  22  23
ENDBRANCH   2  22
ENDBRANCH   1   2
BRANCH   1  38
ATOM     38  O   UNL     1       5.404  -1.310   0.090  1.00  0.00    -0.341 OA
BRANCH  38  39
ATOM     39  C   UNL     1       4.825  -0.486  -0.978  1.00  0.00     0.282 C 
ATOM     40  O   UNL     1       5.312   0.857  -0.816  1.00  0.00    -0.341 OA
ATOM     41  C   UNL     1       4.951  -0.988  -2.504  1.00  0.00     0.202 C 
ATOM     42  C   UNL     1       4.943   1.665  -1.922  1.00  0.00     0.178 C 
ATOM     43  C   UNL     1       6.085  -0.227  -3.192  1.00  0.00     0.179 C 
ATOM     44  C   UNL     1       5.793   1.291  -3.170  1.00  0.00     0.177 C 
BRANCH  41  45
ATOM     45  O   UNL     1       3.744  -0.717  -3.180  1.00  0.00    -0.385 OA
ATOM     46  H   UNL     1       3.733  -1.270  -4.006  1.00  0.00     0.211 HD
ENDBRANCH  41  45
BRANCH  42  47
ATOM     47  C   UNL     1       5.024   3.158  -1.589  1.00  0.00     0.191 C 
BRANCH  47  48
ATOM     48  O   UNL     1       4.165   3.453  -0.523  1.00  0.00    -0.394 OA
ATOM     49  H   UNL     1       4.088   4.441  -0.494  1.00  0.00     0.210 HD
ENDBRANCH  47  48
ENDBRANCH  42  47
BRANCH  43  50
ATOM     50  O   UNL     1       6.277  -0.678  -4.507  1.00  0.00    -0.387 OA
ATOM     51  H   UNL     1       7.187  -0.389  -4.778  1.00  0.00     0.211 HD
ENDBRANCH  43  50
BRANCH  44  52
ATOM     52  O   UNL     1       7.022   1.974  -3.197  1.00  0.00    -0.387 OA
ATOM     53  H   UNL     1       6.938   2.711  -3.857  1.00  0.00     0.211 HD
ENDBRANCH  44  52
ENDBRANCH  38  39
ENDBRANCH   1  38
BRANCH   1  54
ATOM     54  C   UNL     1       6.864  -2.973  -0.638  1.00  0.00     0.179 C 
BRANCH  54  55
ATOM     55  C   UNL     1       7.506  -4.359  -0.892  1.00  0.00     0.198 C 
BRANCH  55  56
ATOM     56  O   UNL     1       8.799  -4.215  -1.479  1.00  0.00    -0.347 OA
BRANCH  56  57
ATOM     57  C   UNL     1       9.985  -4.444  -0.687  1.00  0.00     0.282 C 
ATOM     58  O   UNL     1      10.659  -3.201  -0.505  1.00  0.00    -0.341 OA
ATOM     59  C   UNL     1       9.871  -5.201   0.671  1.00  0.00     0.202 C 
ATOM     60  C   UNL     1      11.987  -3.322   0.004  1.00  0.00     0.178 C 
ATOM     61  C   UNL     1      11.304  -5.457   1.195  1.00  0.00     0.179 C 
ATOM     62  C   UNL     1      12.012  -4.101   1.342  1.00  0.00     0.177 C 
BRANCH  59  63
ATOM     63  O   UNL     1       9.163  -4.414   1.599  1.00  0.00    -0.385 OA
ATOM     64  H   UNL     1       9.049  -4.962   2.417  1.00  0.00     0.211 HD
ENDBRANCH  59  63
BRANCH  60  65
ATOM     65  C   UNL     1      12.978  -3.837  -1.063  1.00  0.00     0.191 C 
BRANCH  65  66
ATOM     66  O   UNL     1      12.917  -3.035  -2.211  1.00  0.00    -0.394 OA
ATOM     67  H   UNL     1      13.438  -2.215  -2.011  1.00  0.00     0.210 HD
ENDBRANCH  65  66
ENDBRANCH  60  65
BRANCH  61  68
ATOM     68  O   UNL     1      11.275  -6.109   2.436  1.00  0.00    -0.387 OA
ATOM     69  H   UNL     1      11.050  -7.060   2.254  1.00  0.00     0.211 HD
ENDBRANCH  61  68
BRANCH  62  70
ATOM     70  O   UNL     1      13.322  -4.228   1.848  1.00  0.00    -0.387 OA
ATOM     71  H   UNL     1      13.770  -4.972   1.368  1.00  0.00     0.211 HD
ENDBRANCH  62  70
ENDBRANCH  56  57
ENDBRANCH  55  56
ENDBRANCH  54  55
BRANCH  54  72
ATOM     72  O   UNL     1       7.780  -2.340   0.263  1.00  0.00    -0.341 OA
BRANCH  72  73
ATOM     73  C   UNL     1       8.278  -1.072  -0.152  1.00  0.00     0.282 C 
ATOM     74  O   UNL     1       9.186  -1.230  -1.232  1.00  0.00    -0.341 OA
ATOM     75  C   UNL     1       8.986  -0.436   1.061  1.00  0.00     0.202 C 
ATOM     76  C   UNL     1       9.684   0.024  -1.680  1.00  0.00     0.178 C 
ATOM     77  C   UNL     1       9.567   0.924   0.651  1.00  0.00     0.179 C 
ATOM     78  C   UNL     1      10.487   0.727  -0.560  1.00  0.00     0.177 C 
BRANCH  75  79
ATOM     79  O   UNL     1       8.062  -0.274   2.106  1.00  0.00    -0.385 OA
ATOM     80  H   UNL     1       8.588  -0.187   2.943  1.00  0.00     0.211 HD
ENDBRANCH  75  79
BRANCH  76  81
ATOM     81  C   UNL     1      10.558  -0.220  -2.913  1.00  0.00     0.191 C 
BRANCH  81  82
ATOM     82  O   UNL     1       9.803  -0.862  -3.902  1.00  0.00    -0.394 OA
ATOM     83  H   UNL     1      10.432  -1.057  -4.645  1.00  0.00     0.210 HD
ENDBRANCH  81  82
ENDBRANCH  76  81
BRANCH  77  84
ATOM     84  O   UNL     1      10.282   1.479   1.724  1.00  0.00    -0.387 OA
ATOM     85  H   UNL     1      10.299   2.462   1.582  1.00  0.00     0.211 HD
ENDBRANCH  77  84
BRANCH  78  86
ATOM     86  O   UNL     1      10.950   1.981  -0.995  1.00  0.00    -0.387 OA
ATOM     87  H   UNL     1      11.886   1.857  -1.302  1.00  0.00     0.211 HD
ENDBRANCH  78  86
ENDBRANCH  72  73
ENDBRANCH  54  72
ENDBRANCH   1  54
TORSDOF 40
