REMARK SMILES CC1=C(O)C(=O)[C@@H]2CC(=O)[C@@]34C(=O)N[C@@H](Cc5c[nH]c6ccccc56)[C@@H]3C(C)=C(C)[C@@H](O)[C@@H]4/C=C/C[C@H](C)[C@@H]12
REMARK SMILES IDX 11 1 12 2 13 3 14 4 15 5 26 6 27 7 28 8 29 9 30 10 31 11
REMARK SMILES IDX 33 12 9 14 10 15 8 16 7 17 2 18 3 19 39 20 5 21 6 22 1 23
REMARK SMILES IDX 4 25 34 27 35 28 36 29 37 30 38 31 16 33 17 34 18 35 25 36
REMARK SMILES IDX 19 37 24 38 20 39 23 40 21 41 22 42 32 44
REMARK H PARENT 14 13 4 26 19 43 32 45
REMARK Flexibility Score:   54.900
ROOT
ATOM      1  C   UNL     1       0.242  -1.080   1.056  1.00  0.00     0.125 C 
ATOM      2  C   UNL     1       0.897  -0.806  -0.276  1.00  0.00     0.235 C 
ATOM      3  O   UNL     1       0.331  -0.839  -1.357  1.00  0.00    -0.274 OA
ATOM      4  N   UNL     1       2.176  -0.408  -0.145  1.00  0.00    -0.351 N 
ATOM      5  C   UNL     1       2.555  -0.318   1.240  1.00  0.00     0.095 C 
ATOM      6  C   UNL     1       1.511  -1.231   1.950  1.00  0.00     0.061 C 
ATOM      7  C   UNL     1       2.080  -2.674   1.979  1.00  0.00    -0.065 C 
ATOM      8  C   UNL     1       3.345  -2.876   2.794  1.00  0.00     0.040 C 
ATOM      9  C   UNL     1       1.497  -3.736   1.334  1.00  0.00    -0.045 C 
ATOM     10  C   UNL     1       2.116  -5.126   1.326  1.00  0.00     0.042 C 
ATOM     11  C   UNL     1       0.190  -3.582   0.569  1.00  0.00     0.148 C 
ATOM     12  C   UNL     1      -0.610  -2.375   1.091  1.00  0.00     0.068 C 
ATOM     13  H   UNL     1       2.764  -0.102  -0.933  1.00  0.00     0.163 HD
ENDROOT
BRANCH   1  14
ATOM     14  C   UNL     1      -0.652   0.092   1.493  1.00  0.00     0.150 C 
ATOM     15  O   UNL     1      -1.084   0.081   2.637  1.00  0.00    -0.298 OA
BRANCH  14  16
ATOM     16  C   UNL     1      -1.136   1.213   0.582  1.00  0.00     0.089 C 
BRANCH  16  17
ATOM     17  C   UNL     1      -2.697   1.208   0.376  1.00  0.00     0.079 C 
ATOM     18  C   UNL     1      -3.842   1.886  -1.703  1.00  0.00    -0.024 C 
ATOM     19  C   UNL     1      -3.792   2.955  -0.904  1.00  0.00     0.158 C 
ATOM     20  C   UNL     1      -3.232   0.636  -1.021  1.00  0.00     0.033 CG0
ATOM     21  C   UNL     1      -3.159   2.624   0.335  1.00  0.00     0.201 C 
ATOM     22  O   UNL     1      -3.006   3.423   1.247  1.00  0.00    -0.290 OA
ATOM     23  C   UNL     1      -4.353   1.949  -3.132  1.00  0.00     0.044 C 
ATOM     24  G   UNL     1      -4.191  -0.646  -0.870  1.00  0.00     0.000 G0
BRANCH  19  25
ATOM     25  O   UNL     1      -4.236   4.207  -1.175  1.00  0.00    -0.504 OA
ATOM     26  H   UNL     1      -4.696   4.469  -1.981  1.00  0.00     0.293 HD
ENDBRANCH  19  25
ENDBRANCH  16  17
ENDBRANCH  14  16
ENDBRANCH   1  14
BRANCH  12  27
ATOM     27  C   UNL     1      -1.914  -2.084   0.388  1.00  0.00    -0.023 C 
ATOM     28  C   UNL     1      -2.295  -2.486  -0.821  1.00  0.00    -0.031 C 
BRANCH  28  29
ATOM     29  C   UNL     1      -3.558  -1.962  -1.457  1.00  0.00     0.031 C 
BRANCH  29  30
ATOM     30  C   UNL     1      -4.191  -0.646  -0.870  1.00  0.00    -0.002 CG0
ATOM     31  C   UNL     1      -5.573  -0.516  -1.529  1.00  0.00     0.008 C 
ATOM     32  G   UNL     1      -3.232   0.636  -1.021  1.00  0.00     0.000 G0
ENDBRANCH  29  30
ENDBRANCH  28  29
ENDBRANCH  12  27
BRANCH   5  33
ATOM     33  C   UNL     1       2.516   1.138   1.764  1.00  0.00     0.063 C 
BRANCH  33  34
ATOM     34  C   UNL     1       3.532   2.040   1.115  1.00  0.00    -0.021 A 
ATOM     35  C   UNL     1       4.700   2.502   1.716  1.00  0.00     0.087 A 
ATOM     36  C   UNL     1       3.514   2.603  -0.151  1.00  0.00     0.003 A 
ATOM     37  N   UNL     1       5.387   3.291   0.862  1.00  0.00    -0.361 N 
ATOM     38  C   UNL     1       2.583   2.538  -1.190  1.00  0.00     0.010 A 
ATOM     39  C   UNL     1       4.662   3.348  -0.268  1.00  0.00     0.046 A 
ATOM     40  C   UNL     1       2.865   3.240  -2.376  1.00  0.00     0.001 A 
ATOM     41  C   UNL     1       4.966   4.055  -1.430  1.00  0.00     0.026 A 
ATOM     42  C   UNL     1       4.053   3.992  -2.497  1.00  0.00     0.002 A 
ATOM     43  H   UNL     1       6.298   3.767   1.048  1.00  0.00     0.166 HD
ENDBRANCH  33  34
ENDBRANCH   5  33
BRANCH  11  44
ATOM     44  O   UNL     1      -0.599  -4.745   0.672  1.00  0.00    -0.388 OA
ATOM     45  H   UNL     1      -0.813  -4.884   1.633  1.00  0.00     0.211 HD
ENDBRANCH  11  44
TORSDOF 4
