REMARK SMILES CC/C=C\C/C=C\C/C=C\C/C=C\C/C=C\CCCC(=O)O[C@H](COC(=O)C[C]CC[C]/C=C\[C]/C=C\[C]/C=C\[C]/C=C\[C]CCCC)COC(=O)CCC/C=C\C/C=C\C/C=C\CCCCCCCC
REMARK SMILES IDX 23 1 22 2 20 3 21 4 19 5 18 6 17 7 16 8 15 9 14 10 13 11
REMARK SMILES IDX 12 12 11 13 10 14 9 15 8 16 7 17 6 18 5 19 4 20 3 21 2 22
REMARK SMILES IDX 1 23 49 24 50 25 51 26 52 27 53 28 54 29 55 30 56 31 57 32
REMARK SMILES IDX 58 33 59 34 60 35 61 36 62 37 63 38 64 39 65 40 66 41 67 42
REMARK SMILES IDX 68 43 69 44 70 45 71 46 24 47 25 48 26 49 27 50 28 51 29 52
REMARK SMILES IDX 30 53 31 54 32 55 33 56 34 57 35 58 36 59 37 60 38 61 39 62
REMARK SMILES IDX 40 63 41 64 42 65 43 66 44 67 45 68 46 69 47 70 48 71
REMARK H PARENT
ROOT
ATOM      1  C   UNL     1      17.765  -8.223  -0.276  1.00  0.00     0.251 C 
ENDROOT
BRANCH   1   2
ATOM      2  O   UNL     1      16.875  -7.170  -0.068  1.00  0.00    -0.455 OA
BRANCH   2   3
ATOM      3  C   UNL     1      16.757  -6.020  -0.786  1.00  0.00     0.306 C 
ATOM      4  O   UNL     1      17.225  -5.925  -1.911  1.00  0.00    -0.252 OA
BRANCH   3   5
ATOM      5  C   UNL     1      16.149  -4.805  -0.135  1.00  0.00     0.123 C 
BRANCH   5   6
ATOM      6  C   UNL     1      15.018  -4.201  -0.973  1.00  0.00     0.016 C 
BRANCH   6   7
ATOM      7  C   UNL     1      14.530  -2.873  -0.369  1.00  0.00     0.027 C 
BRANCH   7   8
ATOM      8  C   UNL     1      13.571  -2.205  -1.323  1.00  0.00    -0.031 C 
ATOM      9  C   UNL     1      12.317  -1.791  -1.068  1.00  0.00    -0.027 C 
BRANCH   9  10
ATOM     10  C   UNL     1      11.575  -1.865   0.239  1.00  0.00     0.054 C 
BRANCH  10  11
ATOM     11  C   UNL     1      10.368  -2.746   0.056  1.00  0.00    -0.027 C 
ATOM     12  C   UNL     1       9.079  -2.355   0.025  1.00  0.00    -0.027 C 
BRANCH  12  13
ATOM     13  C   UNL     1       8.556  -0.945   0.126  1.00  0.00     0.054 C 
BRANCH  13  14
ATOM     14  C   UNL     1       7.603  -0.835   1.291  1.00  0.00    -0.027 C 
ATOM     15  C   UNL     1       6.271  -0.623   1.222  1.00  0.00    -0.027 C 
BRANCH  15  16
ATOM     16  C   UNL     1       5.443  -0.492  -0.035  1.00  0.00     0.054 C 
BRANCH  16  17
ATOM     17  C   UNL     1       4.427  -1.607  -0.062  1.00  0.00    -0.027 C 
ATOM     18  C   UNL     1       3.091  -1.446  -0.141  1.00  0.00    -0.027 C 
BRANCH  18  19
ATOM     19  C   UNL     1       2.433  -0.099  -0.245  1.00  0.00     0.054 C 
BRANCH  19  20
ATOM     20  C   UNL     1       0.926   0.117  -0.354  1.00  0.00    -0.027 C 
ATOM     21  C   UNL     1      -0.243  -0.581  -0.278  1.00  0.00    -0.031 C 
BRANCH  21  22
ATOM     22  C   UNL     1      -0.720  -2.001  -0.011  1.00  0.00     0.023 C 
ATOM     23  C   UNL     1       0.248  -3.131   0.253  1.00  0.00     0.008 C 
ENDBRANCH  21  22
ENDBRANCH  19  20
ENDBRANCH  18  19
ENDBRANCH  16  17
ENDBRANCH  15  16
ENDBRANCH  13  14
ENDBRANCH  12  13
ENDBRANCH  10  11
ENDBRANCH   9  10
ENDBRANCH   7   8
ENDBRANCH   6   7
ENDBRANCH   5   6
ENDBRANCH   3   5
ENDBRANCH   2   3
ENDBRANCH   1   2
BRANCH   1  24
ATOM     24  C   UNL     1      17.518  -8.993  -1.593  1.00  0.00     0.281 C 
BRANCH  24  25
ATOM     25  O   UNL     1      18.377 -10.081  -1.734  1.00  0.00    -0.462 OA
BRANCH  25  26
ATOM     26  C   UNL     1      18.397 -11.197  -0.951  1.00  0.00     0.305 C 
ATOM     27  O   UNL     1      17.615 -11.319  -0.018  1.00  0.00    -0.252 OA
BRANCH  26  28
ATOM     28  C   UNL     1      19.332 -12.338  -1.280  1.00  0.00     0.123 C 
BRANCH  28  29
ATOM     29  C   UNL     1      20.281 -12.683  -0.113  1.00  0.00     0.016 C 
BRANCH  29  30
ATOM     30  C   UNL     1      21.102 -13.957  -0.410  1.00  0.00     0.027 C 
BRANCH  30  31
ATOM     31  C   UNL     1      21.921 -14.378   0.796  1.00  0.00    -0.031 C 
ATOM     32  C   UNL     1      23.224 -14.747   0.833  1.00  0.00    -0.027 C 
BRANCH  32  33
ATOM     33  C   UNL     1      24.193 -14.851  -0.326  1.00  0.00     0.054 C 
BRANCH  33  34
ATOM     34  C   UNL     1      25.489 -14.098  -0.043  1.00  0.00    -0.027 C 
ATOM     35  C   UNL     1      26.722 -14.666   0.073  1.00  0.00    -0.027 C 
BRANCH  35  36
ATOM     36  C   UNL     1      26.935 -16.157  -0.031  1.00  0.00     0.054 C 
BRANCH  36  37
ATOM     37  C   UNL     1      28.270 -16.895   0.116  1.00  0.00    -0.027 C 
ATOM     38  C   UNL     1      29.614 -16.683   0.244  1.00  0.00    -0.031 C 
BRANCH  38  39
ATOM     39  C   UNL     1      30.615 -15.535   0.291  1.00  0.00     0.027 C 
BRANCH  39  40
ATOM     40  C   UNL     1      30.153 -14.100   0.161  1.00  0.00     0.004 C 
BRANCH  40  41
ATOM     41  C   UNL     1      31.348 -13.095   0.140  1.00  0.00     0.000 C 
BRANCH  41  42
ATOM     42  C   UNL     1      30.750 -11.691   0.000  1.00  0.00     0.000 C 
BRANCH  42  43
ATOM     43  C   UNL     1      31.500 -10.392   0.000  1.00  0.00    -0.000 C 
BRANCH  43  44
ATOM     44  C   UNL     1      32.250  -9.093   0.000  1.00  0.00    -0.000 C 
BRANCH  44  45
ATOM     45  C   UNL     1      31.777  -8.175   1.141  1.00  0.00    -0.003 C 
ATOM     46  C   UNL     1      32.495  -6.829   1.099  1.00  0.00     0.004 C 
ENDBRANCH  44  45
ENDBRANCH  43  44
ENDBRANCH  42  43
ENDBRANCH  41  42
ENDBRANCH  40  41
ENDBRANCH  39  40
ENDBRANCH  38  39
ENDBRANCH  36  37
ENDBRANCH  35  36
ENDBRANCH  33  34
ENDBRANCH  32  33
ENDBRANCH  30  31
ENDBRANCH  29  30
ENDBRANCH  28  29
ENDBRANCH  26  28
ENDBRANCH  25  26
ENDBRANCH  24  25
ENDBRANCH   1  24
BRANCH   1  47
ATOM     47  C   UNL     1      19.217  -7.738  -0.139  1.00  0.00     0.281 C 
BRANCH  47  48
ATOM     48  O   UNL     1      19.579  -6.847  -1.143  1.00  0.00    -0.462 OA
BRANCH  48  49
ATOM     49  C   UNL     1      20.763  -6.172  -1.164  1.00  0.00     0.306 C 
ATOM     50  O   UNL     1      21.040  -5.460  -2.115  1.00  0.00    -0.252 OA
BRANCH  49  51
ATOM     51  C   UNL     1      21.696  -6.294   0.000  1.00  0.00     0.131 C 
BRANCH  51  52
ATOM     52  C   UNL     1      22.995  -5.544   0.000  1.00  0.00    -0.006 C 
BRANCH  52  53
ATOM     53  C   UNL     1      24.294  -4.794   0.000  1.00  0.00     0.010 C 
BRANCH  53  54
ATOM     54  C   UNL     1      25.593  -4.044   0.000  1.00  0.00     0.013 C 
BRANCH  54  55
ATOM     55  C   UNL     1      26.892  -3.294   0.000  1.00  0.00     0.008 C 
BRANCH  55  56
ATOM     56  C   UNL     1      28.191  -2.544   0.000  1.00  0.00    -0.022 C 
ATOM     57  C   UNL     1      28.191  -1.044   0.000  1.00  0.00    -0.017 C 
BRANCH  57  58
ATOM     58  C   UNL     1      26.892  -0.294   0.000  1.00  0.00     0.034 C 
BRANCH  58  59
ATOM     59  C   UNL     1      25.593   0.456   0.000  1.00  0.00    -0.017 C 
ATOM     60  C   UNL     1      25.593   1.956   0.000  1.00  0.00    -0.017 C 
BRANCH  60  61
ATOM     61  C   UNL     1      26.892   2.706   0.000  1.00  0.00     0.034 C 
BRANCH  61  62
ATOM     62  C   UNL     1      28.191   3.456   0.000  1.00  0.00    -0.017 C 
ATOM     63  C   UNL     1      28.191   4.956   0.000  1.00  0.00    -0.017 C 
BRANCH  63  64
ATOM     64  C   UNL     1      26.892   5.706   0.000  1.00  0.00     0.034 C 
BRANCH  64  65
ATOM     65  C   UNL     1      25.593   6.456   0.000  1.00  0.00    -0.017 C 
ATOM     66  C   UNL     1      25.593   7.956   0.000  1.00  0.00    -0.022 C 
BRANCH  66  67
ATOM     67  C   UNL     1      26.892   8.706   0.000  1.00  0.00     0.008 C 
BRANCH  67  68
ATOM     68  C   UNL     1      28.191   9.456   0.000  1.00  0.00     0.013 C 
BRANCH  68  69
ATOM     69  C   UNL     1      29.914   9.475   0.011  1.00  0.00     0.001 C 
BRANCH  69  70
ATOM     70  C   UNL     1      30.789  10.956   0.000  1.00  0.00    -0.003 C 
ATOM     71  C   UNL     1      32.089  11.706   0.000  1.00  0.00     0.004 C 
ENDBRANCH  69  70
ENDBRANCH  68  69
ENDBRANCH  67  68
ENDBRANCH  66  67
ENDBRANCH  64  65
ENDBRANCH  63  64
ENDBRANCH  61  62
ENDBRANCH  60  61
ENDBRANCH  58  59
ENDBRANCH  57  58
ENDBRANCH  55  56
ENDBRANCH  54  55
ENDBRANCH  53  54
ENDBRANCH  52  53
ENDBRANCH  51  52
ENDBRANCH  49  51
ENDBRANCH  48  49
ENDBRANCH  47  48
ENDBRANCH   1  47
TORSDOF 52
