REMARK SMILES CC(C)=CC=CC(C)=CC=CC(C)=CC=CC(C)=CC=CC=C(C)C=CC=C(C)C=CC1=C(C)CCCC1(C)C
REMARK SMILES IDX 17 1 18 2 19 3 16 4 15 5 14 6 12 7 13 8 11 9 10 10 9 11 7 12
REMARK SMILES IDX 8 13 6 14 5 15 4 16 2 17 1 18 3 19 20 20 21 21 22 22 23 23
REMARK SMILES IDX 24 24 25 25 26 26 27 27 28 28 29 29 30 30 31 31 32 32 33 33
REMARK SMILES IDX 38 34 35 35 37 36 36 37 34 38 39 39 40 40
REMARK H PARENT
ROOT
ATOM      1  C   UNL     1       2.175  -1.061  -2.208  1.00  0.00    -0.051 C 
ATOM      2  C   UNL     1       2.318   0.032  -1.162  1.00  0.00     0.044 C 
ATOM      3  C   UNL     1       1.023  -1.771  -2.304  1.00  0.00     0.003 C 
ENDROOT
BRANCH   1   4
ATOM      4  C   UNL     1       3.246  -1.346  -3.209  1.00  0.00     0.003 C 
ATOM      5  C   UNL     1       4.578  -1.144  -3.103  1.00  0.00     0.001 C 
BRANCH   5   6
ATOM      6  C   UNL     1       5.321  -0.700  -1.883  1.00  0.00     0.003 C 
ATOM      7  C   UNL     1       6.637  -0.383  -1.883  1.00  0.00    -0.051 C 
ATOM      8  C   UNL     1       7.424  -0.429  -3.181  1.00  0.00     0.044 C 
BRANCH   7   9
ATOM      9  C   UNL     1       7.256   0.012  -0.567  1.00  0.00     0.003 C 
ATOM     10  C   UNL     1       8.557   0.302  -0.392  1.00  0.00     0.001 C 
BRANCH  10  11
ATOM     11  C   UNL     1       9.102   0.664   0.946  1.00  0.00     0.003 C 
ATOM     12  C   UNL     1      10.408   0.937   1.219  1.00  0.00    -0.051 C 
ATOM     13  C   UNL     1      10.736   1.260   2.662  1.00  0.00     0.044 C 
BRANCH  12  14
ATOM     14  C   UNL     1      11.463   0.914   0.144  1.00  0.00     0.003 C 
ATOM     15  C   UNL     1      12.787   1.055   0.331  1.00  0.00     0.000 C 
BRANCH  15  16
ATOM     16  C   UNL     1      13.699   0.997  -0.844  1.00  0.00    -0.001 C 
ATOM     17  C   UNL     1      15.043   1.079  -0.771  1.00  0.00    -0.076 C 
ATOM     18  C   UNL     1      15.833   1.001  -2.053  1.00  0.00     0.039 C 
ATOM     19  C   UNL     1      15.764   1.241   0.544  1.00  0.00     0.039 C 
ENDBRANCH  15  16
ENDBRANCH  12  14
ENDBRANCH  10  11
ENDBRANCH   7   9
ENDBRANCH   5   6
ENDBRANCH   1   4
BRANCH   3  20
ATOM     20  C   UNL     1      -0.121  -1.561  -1.391  1.00  0.00     0.000 C 
ATOM     21  C   UNL     1      -1.280  -2.235  -1.477  1.00  0.00     0.000 C 
BRANCH  21  22
ATOM     22  C   UNL     1      -2.333  -1.883  -0.496  1.00  0.00     0.003 C 
ATOM     23  C   UNL     1      -3.593  -2.371  -0.381  1.00  0.00    -0.051 C 
ATOM     24  C   UNL     1      -4.166  -3.429  -1.290  1.00  0.00     0.044 C 
BRANCH  23  25
ATOM     25  C   UNL     1      -4.396  -1.721   0.698  1.00  0.00     0.003 C 
ATOM     26  C   UNL     1      -5.678  -1.858   1.053  1.00  0.00     0.001 C 
BRANCH  26  27
ATOM     27  C   UNL     1      -6.743  -2.776   0.564  1.00  0.00     0.003 C 
ATOM     28  C   UNL     1      -8.052  -2.410   0.635  1.00  0.00    -0.051 C 
ATOM     29  C   UNL     1      -9.138  -3.408   0.314  1.00  0.00     0.044 C 
BRANCH  28  30
ATOM     30  C   UNL     1      -8.402  -0.981   0.943  1.00  0.00     0.004 C 
ATOM     31  C   UNL     1      -9.604  -0.488   1.267  1.00  0.00     0.004 C 
BRANCH  31  32
ATOM     32  C   UNL     1      -9.962   0.985   1.487  1.00  0.00    -0.043 C 
ATOM     33  C   UNL     1      -9.182   2.073   1.081  1.00  0.00    -0.070 C 
ATOM     34  C   UNL     1     -11.326   1.246   2.193  1.00  0.00    -0.010 C 
ATOM     35  C   UNL     1      -9.589   3.518   1.332  1.00  0.00     0.031 C 
ATOM     36  C   UNL     1     -11.807   2.719   2.019  1.00  0.00     0.011 C 
ATOM     37  C   UNL     1     -10.705   3.699   2.342  1.00  0.00     0.005 C 
ATOM     38  C   UNL     1      -7.878   1.999   0.313  1.00  0.00     0.040 C 
ATOM     39  C   UNL     1     -11.155   0.899   3.690  1.00  0.00     0.016 C 
ATOM     40  C   UNL     1     -12.482   0.381   1.623  1.00  0.00     0.016 C 
ENDBRANCH  31  32
ENDBRANCH  28  30
ENDBRANCH  26  27
ENDBRANCH  23  25
ENDBRANCH  21  22
ENDBRANCH   3  20
TORSDOF 12
