REMARK SMILES CC(C)C(=O)N1CC2(CN(C(=O)c3cccc(C(=O)O)c3)C[C@@H]3C[C@@H](O)CN32)C1
REMARK SMILES IDX 13 1 14 2 15 3 16 4 17 5 21 6 11 7 12 8 10 9 4 10 5 11 6 12
REMARK SMILES IDX 7 13 29 14 8 15 9 16 28 17 27 18 23 19 22 20 25 21 24 22
REMARK SMILES IDX 2 23 1 24 3 25 26 26 18 28 19 29 20 30
REMARK H PARENT 26 27 20 31
ROOT
ATOM      1  C   UNL     1      -3.685   0.990   0.112  1.00  0.00     0.040 A 
ATOM      2  C   UNL     1      -3.423   1.531  -1.171  1.00  0.00     0.014 A 
ATOM      3  C   UNL     1      -4.419   2.189  -1.894  1.00  0.00     0.002 A 
ATOM      4  C   UNL     1      -5.700   2.333  -1.372  1.00  0.00     0.016 A 
ATOM      5  C   UNL     1      -6.015   1.821  -0.107  1.00  0.00     0.060 A 
ATOM      6  C   UNL     1      -5.004   1.158   0.617  1.00  0.00     0.029 A 
ENDROOT
BRANCH   1   7
ATOM      7  C   UNL     1      -2.697   0.236   1.002  1.00  0.00     0.253 C 
ATOM      8  O   UNL     1      -3.142  -0.101   2.093  1.00  0.00    -0.269 OA
BRANCH   7   9
ATOM      9  N   UNL     1      -1.386  -0.116   0.715  1.00  0.00    -0.335 N 
ATOM     10  C   UNL     1       3.785   0.923  -1.382  1.00  0.00     0.225 C 
ATOM     11  O   UNL     1       4.141   0.899  -2.552  1.00  0.00    -0.275 OA
ATOM     12  N   UNL     1       2.572   0.397  -1.061  1.00  0.00    -0.338 N 
ATOM     13  C   UNL     1       1.548  -0.196  -1.879  1.00  0.00     0.145 C 
ATOM     14  C   UNL     1       1.815   0.306   0.154  1.00  0.00     0.145 C 
ATOM     15  C   UNL     1       0.705  -0.460  -0.612  1.00  0.00     0.074 C 
ATOM     16  C   UNL     1      -0.700   0.194  -0.548  1.00  0.00     0.146 C 
ATOM     17  N   UNL     1       0.598  -1.907  -0.275  1.00  0.00    -0.285 NA
ATOM     18  C   UNL     1       1.808  -2.759  -0.281  1.00  0.00     0.117 C 
ATOM     19  C   UNL     1      -0.099  -2.172   1.005  1.00  0.00     0.079 C 
ATOM     20  C   UNL     1      -0.621  -0.901   1.696  1.00  0.00     0.139 C 
ATOM     21  C   UNL     1       1.538  -3.836   0.782  1.00  0.00     0.130 C 
ATOM     22  C   UNL     1       0.881  -2.983   1.851  1.00  0.00     0.054 C 
BRANCH  10  23
ATOM     23  C   UNL     1       4.690   1.565  -0.331  1.00  0.00     0.072 C 
ATOM     24  C   UNL     1       5.920   2.229  -0.976  1.00  0.00     0.018 C 
ATOM     25  C   UNL     1       5.182   0.546   0.710  1.00  0.00     0.018 C 
ENDBRANCH  10  23
BRANCH  21  26
ATOM     26  O   UNL     1       0.628  -4.829   0.350  1.00  0.00    -0.392 OA
ATOM     27  H   UNL     1       0.267  -4.601  -0.545  1.00  0.00     0.211 HD
ENDBRANCH  21  26
ENDBRANCH   7   9
ENDBRANCH   1   7
BRANCH   5  28
ATOM     28  C   UNL     1      -7.404   1.989   0.432  1.00  0.00     0.335 C 
ATOM     29  O   UNL     1      -8.240   2.569  -0.245  1.00  0.00    -0.246 OA
BRANCH  28  30
ATOM     30  O   UNL     1      -7.786   1.524   1.644  1.00  0.00    -0.478 OA
ATOM     31  H   UNL     1      -7.214   1.054   2.263  1.00  0.00     0.297 HD
ENDBRANCH  28  30
ENDBRANCH   5  28
TORSDOF 6
