REMARK SMILES CCCCCCCCCCCCCCC[C@@H](CC(=O)OC(CO)CO)OC(C)=O
REMARK SMILES IDX 12 1 11 2 10 3 9 4 8 5 7 6 6 7 5 8 4 9 3 10 2 11 1 12 13 13
REMARK SMILES IDX 14 14 15 15 16 16 17 17 18 18 19 19 20 20 21 21 22 22 23 23
REMARK SMILES IDX 24 25 25 26 26 28 27 29 29 30 28 31
REMARK H PARENT 23 24 25 27
ROOT
ATOM      1  C   UNL     1       0.137   0.574   0.317  1.00  0.00     0.000 C 
ENDROOT
BRANCH   1   2
ATOM      2  C   UNL     1       1.065   0.851   1.504  1.00  0.00     0.000 C 
BRANCH   2   3
ATOM      3  C   UNL     1       1.889   2.128   1.292  1.00  0.00     0.000 C 
BRANCH   3   4
ATOM      4  C   UNL     1       2.875   2.394   2.451  1.00  0.00     0.000 C 
BRANCH   4   5
ATOM      5  C   UNL     1       3.882   1.253   2.715  1.00  0.00    -0.000 C 
BRANCH   5   6
ATOM      6  C   UNL     1       4.745   0.936   1.486  1.00  0.00    -0.000 C 
BRANCH   6   7
ATOM      7  C   UNL     1       5.673  -0.260   1.737  1.00  0.00    -0.000 C 
BRANCH   7   8
ATOM      8  C   UNL     1       6.613  -0.533   0.549  1.00  0.00    -0.000 C 
BRANCH   8   9
ATOM      9  C   UNL     1       5.867  -0.861  -0.758  1.00  0.00    -0.000 C 
BRANCH   9  10
ATOM     10  C   UNL     1       6.749  -1.316  -1.939  1.00  0.00    -0.000 C 
BRANCH  10  11
ATOM     11  C   UNL     1       7.618  -0.252  -2.643  1.00  0.00    -0.003 C 
ATOM     12  C   UNL     1       8.870   0.199  -1.890  1.00  0.00     0.004 C 
ENDBRANCH  10  11
ENDBRANCH   9  10
ENDBRANCH   8   9
ENDBRANCH   7   8
ENDBRANCH   6   7
ENDBRANCH   5   6
ENDBRANCH   4   5
ENDBRANCH   3   4
ENDBRANCH   2   3
ENDBRANCH   1   2
BRANCH   1  13
ATOM     13  C   UNL     1      -0.666  -0.728   0.502  1.00  0.00     0.000 C 
BRANCH  13  14
ATOM     14  C   UNL     1      -1.621  -0.728   1.716  1.00  0.00     0.004 C 
BRANCH  14  15
ATOM     15  C   UNL     1      -2.641   0.431   1.722  1.00  0.00     0.046 C 
BRANCH  15  16
ATOM     16  C   UNL     1      -3.552   0.502   0.479  1.00  0.00     0.187 C 
BRANCH  16  17
ATOM     17  C   UNL     1      -4.464  -0.738   0.371  1.00  0.00     0.167 C 
BRANCH  17  18
ATOM     18  C   UNL     1      -5.353  -0.745  -0.844  1.00  0.00     0.309 C 
ATOM     19  O   UNL     1      -5.316   0.169  -1.658  1.00  0.00    -0.252 OA
BRANCH  18  20
ATOM     20  O   UNL     1      -6.182  -1.805  -1.022  1.00  0.00    -0.457 OA
BRANCH  20  21
ATOM     21  C   UNL     1      -7.049  -1.987  -2.085  1.00  0.00     0.227 C 
BRANCH  21  22
ATOM     22  C   UNL     1      -8.480  -2.063  -1.531  1.00  0.00     0.203 C 
BRANCH  22  23
ATOM     23  O   UNL     1      -9.425  -2.206  -2.558  1.00  0.00    -0.392 OA
ATOM     24  H   UNL     1      -9.505  -1.318  -2.994  1.00  0.00     0.210 HD
ENDBRANCH  22  23
ENDBRANCH  21  22
BRANCH  21  25
ATOM     25  C   UNL     1      -6.636  -3.266  -2.827  1.00  0.00     0.203 C 
BRANCH  25  26
ATOM     26  O   UNL     1      -7.428  -3.470  -3.968  1.00  0.00    -0.392 OA
ATOM     27  H   UNL     1      -8.085  -4.180  -3.745  1.00  0.00     0.210 HD
ENDBRANCH  25  26
ENDBRANCH  21  25
ENDBRANCH  20  21
ENDBRANCH  18  20
ENDBRANCH  17  18
ENDBRANCH  16  17
BRANCH  16  28
ATOM     28  O   UNL     1      -4.332   1.645   0.579  1.00  0.00    -0.462 OA
BRANCH  28  29
ATOM     29  C   UNL     1      -4.282   2.710  -0.269  1.00  0.00     0.302 C 
ATOM     30  O   UNL     1      -3.494   2.739  -1.203  1.00  0.00    -0.253 OA
ATOM     31  C   UNL     1      -5.201   3.866  -0.054  1.00  0.00     0.139 C 
ENDBRANCH  28  29
ENDBRANCH  16  28
ENDBRANCH  15  16
ENDBRANCH  14  15
ENDBRANCH  13  14
ENDBRANCH   1  13
TORSDOF 24
