REMARK SMILES CC(C)(O)[C@H]1CC[C@@](C)([C@H]2CC[C@]3(C)[C@@H]2[C@H](O)C[C@@H]2[C@]4(C)CC[C@@H](O)C(C)(C)[C@H]4[C@@H](O[C@@H]4O[C@H](CO)[C@@H](O)[C@H](O)[C@H]4O)C[C@]23C)O1
REMARK SMILES IDX 10 1 11 2 12 3 13 4 14 5 15 6 16 7 18 8 19 9 20 10 21 11
REMARK SMILES IDX 22 12 23 13 24 14 26 15 27 16 28 17 29 18 30 19 43 20 44 21
REMARK SMILES IDX 45 22 8 23 5 24 6 25 46 26 7 27 9 28 2 29 1 30 3 31 4 32
REMARK SMILES IDX 17 34 31 36 32 37 33 38 41 39 34 40 39 41 37 42 42 43 35 45
REMARK SMILES IDX 36 46 40 48 38 50 25 52
REMARK H PARENT 4 33 17 35 42 44 36 47 40 49 38 51 25 53
ROOT
ATOM      1  C   UNL     1       3.827  -0.338   0.100  1.00  0.00     0.027 C 
ATOM      2  C   UNL     1       3.324   1.034   0.655  1.00  0.00     0.007 C 
ATOM      3  C   UNL     1       1.802   1.067   0.460  1.00  0.00     0.008 C 
ATOM      4  C   UNL     1       1.397  -0.405   0.460  1.00  0.00    -0.021 C 
ATOM      5  C   UNL     1       1.540  -0.895   1.969  1.00  0.00     0.012 C 
ATOM      6  C   UNL     1       2.515  -0.977  -0.489  1.00  0.00     0.030 C 
ATOM      7  C   UNL     1       2.325  -2.530  -0.615  1.00  0.00     0.118 C 
ATOM      8  C   UNL     1       0.875  -2.928  -1.064  1.00  0.00     0.036 C 
ATOM      9  C   UNL     1      -0.223  -2.299  -0.161  1.00  0.00     0.004 C 
ATOM     10  C   UNL     1      -1.732  -2.907  -0.172  1.00  0.00    -0.023 C 
ATOM     11  C   UNL     1      -1.964  -3.535   1.245  1.00  0.00     0.012 C 
ATOM     12  C   UNL     1      -1.877  -4.047  -1.268  1.00  0.00     0.010 C 
ATOM     13  C   UNL     1      -3.240  -4.127  -2.008  1.00  0.00     0.033 C 
ATOM     14  C   UNL     1      -4.410  -3.883  -1.071  1.00  0.00     0.120 C 
ATOM     15  C   UNL     1      -4.367  -2.401  -0.495  1.00  0.00    -0.004 C 
ATOM     16  C   UNL     1      -5.167  -2.394   0.844  1.00  0.00     0.014 C 
ATOM     17  C   UNL     1      -5.155  -1.479  -1.464  1.00  0.00     0.014 C 
ATOM     18  C   UNL     1      -2.854  -1.832  -0.434  1.00  0.00     0.033 C 
ATOM     19  C   UNL     1      -2.626  -0.386   0.184  1.00  0.00     0.126 C 
ATOM     20  C   UNL     1      -1.202  -0.169   0.760  1.00  0.00     0.040 C 
ATOM     21  C   UNL     1      -0.070  -0.729  -0.138  1.00  0.00    -0.021 C 
ATOM     22  C   UNL     1      -0.230  -0.090  -1.570  1.00  0.00     0.012 C 
ENDROOT
BRANCH   1  23
ATOM     23  C   UNL     1       5.184  -0.177  -0.706  1.00  0.00     0.069 C 
ATOM     24  C   UNL     1       6.394   1.339  -1.934  1.00  0.00     0.150 C 
ATOM     25  C   UNL     1       7.289   0.883  -0.760  1.00  0.00     0.038 C 
ATOM     26  O   UNL     1       5.083   0.787  -1.745  1.00  0.00    -0.369 OA
ATOM     27  C   UNL     1       6.272   0.388   0.223  1.00  0.00     0.038 C 
ATOM     28  C   UNL     1       5.624  -1.524  -1.321  1.00  0.00     0.042 C 
BRANCH  24  29
ATOM     29  C   UNL     1       6.356   2.880  -2.199  1.00  0.00     0.085 C 
ATOM     30  C   UNL     1       5.854   3.691  -0.988  1.00  0.00     0.044 C 
ATOM     31  C   UNL     1       7.769   3.378  -2.586  1.00  0.00     0.044 C 
BRANCH  29  32
ATOM     32  O   UNL     1       5.489   3.094  -3.289  1.00  0.00    -0.388 OA
ATOM     33  H   UNL     1       5.471   4.067  -3.491  1.00  0.00     0.211 HD
ENDBRANCH  29  32
ENDBRANCH  24  29
ENDBRANCH   1  23
BRANCH   7  34
ATOM     34  O   UNL     1       3.238  -3.127  -1.490  1.00  0.00    -0.393 OA
ATOM     35  H   UNL     1       2.998  -2.841  -2.411  1.00  0.00     0.210 HD
ENDBRANCH   7  34
BRANCH  19  36
ATOM     36  O   UNL     1      -3.575  -0.046   1.186  1.00  0.00    -0.346 OA
BRANCH  36  37
ATOM     37  C   UNL     1      -4.015   1.311   1.097  1.00  0.00     0.282 C 
ATOM     38  O   UNL     1      -3.123   2.158   1.794  1.00  0.00    -0.341 OA
ATOM     39  C   UNL     1      -5.446   1.435   1.690  1.00  0.00     0.202 C 
ATOM     40  C   UNL     1      -3.365   3.534   1.469  1.00  0.00     0.178 C 
ATOM     41  C   UNL     1      -5.692   2.856   2.291  1.00  0.00     0.179 C 
ATOM     42  C   UNL     1      -4.900   3.924   1.512  1.00  0.00     0.177 C 
BRANCH  39  43
ATOM     43  O   UNL     1      -6.408   1.090   0.721  1.00  0.00    -0.385 OA
ATOM     44  H   UNL     1      -6.413   1.791   0.020  1.00  0.00     0.211 HD
ENDBRANCH  39  43
BRANCH  40  45
ATOM     45  C   UNL     1      -2.524   4.412   2.410  1.00  0.00     0.191 C 
BRANCH  45  46
ATOM     46  O   UNL     1      -2.880   4.228   3.754  1.00  0.00    -0.394 OA
ATOM     47  H   UNL     1      -3.387   5.034   4.037  1.00  0.00     0.210 HD
ENDBRANCH  45  46
ENDBRANCH  40  45
BRANCH  41  48
ATOM     48  O   UNL     1      -5.323   2.909   3.652  1.00  0.00    -0.387 OA
ATOM     49  H   UNL     1      -4.561   2.297   3.818  1.00  0.00     0.211 HD
ENDBRANCH  41  48
BRANCH  42  50
ATOM     50  O   UNL     1      -5.464   4.094   0.229  1.00  0.00    -0.387 OA
ATOM     51  H   UNL     1      -4.943   3.599  -0.450  1.00  0.00     0.211 HD
ENDBRANCH  42  50
ENDBRANCH  36  37
ENDBRANCH  19  36
BRANCH  14  52
ATOM     52  O   UNL     1      -4.383  -4.883  -0.083  1.00  0.00    -0.393 OA
ATOM     53  H   UNL     1      -5.321  -5.093   0.164  1.00  0.00     0.210 HD
ENDBRANCH  14  52
TORSDOF 12
