REMARK SMILES CCCO[P@](C)(=O)OC[C@@H]1CCCN2CCCC[C@H]12
REMARK SMILES IDX 5 1 6 2 7 3 4 4 3 5 2 6 1 7 8 8 9 9 10 10 11 11 19 12 12 13
REMARK SMILES IDX 18 14 14 15 13 16 17 17 15 18 16 19
REMARK H PARENT
ROOT
ATOM      1  P   UNL     1       2.681   1.124   0.712  1.00  0.00     0.327 P 
ATOM      2  C   UNL     1       2.732   2.980   0.734  1.00  0.00     0.146 C 
ATOM      3  O   UNL     1       2.399   0.580   2.142  1.00  0.00    -0.260 OA
ENDROOT
BRANCH   1   4
ATOM      4  O   UNL     1       4.217   0.424   0.236  1.00  0.00    -0.309 OA
BRANCH   4   5
ATOM      5  C   UNL     1       4.236  -0.937   0.595  1.00  0.00     0.170 C 
BRANCH   5   6
ATOM      6  C   UNL     1       5.468  -1.612  -0.013  1.00  0.00     0.026 C 
ATOM      7  C   UNL     1       6.769  -0.975   0.473  1.00  0.00     0.006 C 
ENDBRANCH   5   6
ENDBRANCH   4   5
ENDBRANCH   1   4
BRANCH   1   8
ATOM      8  O   UNL     1       1.464   0.454  -0.358  1.00  0.00    -0.308 OA
BRANCH   8   9
ATOM      9  C   UNL     1       0.263   0.251   0.349  1.00  0.00     0.176 C 
BRANCH   9  10
ATOM     10  C   UNL     1      -0.845  -0.110  -0.655  1.00  0.00     0.033 C 
ATOM     11  C   UNL     1      -1.125   1.045  -1.637  1.00  0.00     0.009 C 
ATOM     12  C   UNL     1      -2.164  -0.564   0.027  1.00  0.00     0.062 C 
ATOM     13  C   UNL     1      -2.187   0.607  -2.649  1.00  0.00     0.016 C 
ATOM     14  C   UNL     1      -2.760   0.447   1.060  1.00  0.00     0.019 C 
ATOM     15  N   UNL     1      -3.164  -0.954  -0.995  1.00  0.00    -0.300 NA
ATOM     16  C   UNL     1      -3.464   0.156  -1.931  1.00  0.00     0.085 C 
ATOM     17  C   UNL     1      -4.234   0.133   1.407  1.00  0.00     0.003 C 
ATOM     18  C   UNL     1      -4.394  -1.562  -0.404  1.00  0.00     0.085 C 
ATOM     19  C   UNL     1      -4.544  -1.332   1.123  1.00  0.00     0.016 C 
ENDBRANCH   9  10
ENDBRANCH   8   9
ENDBRANCH   1   8
TORSDOF 6
