REMARK SMILES Cc1cc(O)c(/C(=C\C(=O)O)C[P@@](=O)(O)CCc2ccccc2)cc1C
REMARK SMILES IDX 12 1 7 2 8 3 6 4 2 5 3 6 25 7 4 8 24 9 1 10 26 11 5 12 9 14
REMARK SMILES IDX 10 15 11 16 13 18 14 19 15 20 16 22 17 23 18 24 19 25 23 26
REMARK SMILES IDX 20 27 22 28 21 29
REMARK H PARENT 5 13 11 17 15 21
ROOT
ATOM      1  C   UNL     1      -0.126   0.841  -0.696  1.00  0.00     0.135 C 
ENDROOT
BRANCH   1   2
ATOM      2  C   UNL     1       1.015   1.096   0.294  1.00  0.00    -0.020 C 
ATOM      3  C   UNL     1       0.987   2.143   1.168  1.00  0.00     0.098 C 
BRANCH   2   4
ATOM      4  C   UNL     1       2.175   0.152   0.168  1.00  0.00     0.021 A 
ATOM      5  C   UNL     1       4.330  -1.662  -0.130  1.00  0.00    -0.044 A 
ATOM      6  C   UNL     1       4.562  -0.281  -0.089  1.00  0.00     0.050 A 
ATOM      7  C   UNL     1       3.008  -2.146  -0.033  1.00  0.00    -0.047 A 
ATOM      8  C   UNL     1       3.502   0.626   0.054  1.00  0.00     0.123 A 
ATOM      9  C   UNL     1       1.947  -1.236   0.103  1.00  0.00     0.016 A 
ATOM     10  C   UNL     1       5.496  -2.604  -0.285  1.00  0.00     0.045 C 
ATOM     11  C   UNL     1       2.712  -3.623  -0.071  1.00  0.00     0.044 C 
BRANCH   8  12
ATOM     12  O   UNL     1       3.755   1.952   0.051  1.00  0.00    -0.507 OA
ATOM     13  H   UNL     1       4.650   2.309  -0.039  1.00  0.00     0.293 HD
ENDBRANCH   8  12
ENDBRANCH   2   4
BRANCH   3  14
ATOM     14  C   UNL     1       1.961   2.481   2.250  1.00  0.00     0.328 C 
ATOM     15  O   UNL     1       1.880   3.583   2.769  1.00  0.00    -0.247 OA
BRANCH  14  16
ATOM     16  O   UNL     1       2.855   1.604   2.759  1.00  0.00    -0.478 OA
ATOM     17  H   UNL     1       2.870   0.664   2.547  1.00  0.00     0.297 HD
ENDBRANCH  14  16
ENDBRANCH   3  14
ENDBRANCH   1   2
BRANCH   1  18
ATOM     18  P   UNL     1      -1.610   1.990  -0.692  1.00  0.00     0.205 P 
ATOM     19  O   UNL     1      -2.255   1.926   0.719  1.00  0.00    -0.293 OA
BRANCH  18  20
ATOM     20  O   UNL     1      -1.125   3.652  -0.829  1.00  0.00    -0.344 OA
ATOM     21  H   UNL     1      -0.409   3.650  -1.513  1.00  0.00     0.219 HD
ENDBRANCH  18  20
BRANCH  18  22
ATOM     22  C   UNL     1      -2.945   1.634  -1.951  1.00  0.00     0.104 C 
BRANCH  22  23
ATOM     23  C   UNL     1      -3.426   0.179  -1.875  1.00  0.00     0.045 C 
BRANCH  23  24
ATOM     24  C   UNL     1      -4.124  -0.142  -0.578  1.00  0.00    -0.047 A 
ATOM     25  C   UNL     1      -5.328   0.503  -0.242  1.00  0.00     0.004 A 
ATOM     26  C   UNL     1      -3.588  -1.097   0.303  1.00  0.00     0.004 A 
ATOM     27  C   UNL     1      -5.981   0.198   0.956  1.00  0.00     0.000 A 
ATOM     28  C   UNL     1      -4.242  -1.395   1.503  1.00  0.00     0.000 A 
ATOM     29  C   UNL     1      -5.438  -0.750   1.828  1.00  0.00     0.000 A 
ENDBRANCH  23  24
ENDBRANCH  22  23
ENDBRANCH  18  22
ENDBRANCH   1  18
TORSDOF 10
