REMARK SMILES CC(=CCc1cc2ccc(=O)oc2cc1O)CC=CC(C)(C)O
REMARK SMILES IDX 1 1 2 2 3 3 17 4 18 5 19 6 20 7 21 8 22 9 23 10 4 12 5 13
REMARK SMILES IDX 6 14 15 15 7 16 14 17 13 18 8 19 12 20 9 21 10 22 11 23
REMARK SMILES IDX 16 24
REMARK H PARENT 23 11 16 25
ROOT
ATOM      1  C   UNL     1      -1.259   1.118  -1.426  1.00  0.00     0.039 C 
ATOM      2  C   UNL     1      -0.843   0.075  -0.406  1.00  0.00    -0.073 C 
ATOM      3  C   UNL     1       0.301   0.122   0.324  1.00  0.00    -0.023 C 
ENDROOT
BRANCH   2   4
ATOM      4  C   UNL     1      -1.796  -1.085  -0.215  1.00  0.00     0.057 C 
BRANCH   4   5
ATOM      5  C   UNL     1      -3.088  -0.581   0.369  1.00  0.00    -0.024 C 
ATOM      6  C   UNL     1      -4.243  -0.608  -0.318  1.00  0.00     0.003 C 
BRANCH   6   7
ATOM      7  C   UNL     1      -5.552  -0.077   0.249  1.00  0.00     0.077 C 
ATOM      8  C   UNL     1      -5.416   1.398   0.683  1.00  0.00     0.046 C 
ATOM      9  C   UNL     1      -5.980  -0.929   1.453  1.00  0.00     0.046 C 
BRANCH   7  10
ATOM     10  O   UNL     1      -6.559  -0.186  -0.729  1.00  0.00    -0.386 OA
ATOM     11  H   UNL     1      -6.304   0.395  -1.495  1.00  0.00     0.211 HD
ENDBRANCH   7  10
ENDBRANCH   6   7
ENDBRANCH   4   5
ENDBRANCH   2   4
BRANCH   3  12
ATOM     12  C   UNL     1       1.357   1.206   0.287  1.00  0.00     0.066 C 
BRANCH  12  13
ATOM     13  C   UNL     1       2.710   0.631  -0.052  1.00  0.00    -0.002 A 
ATOM     14  C   UNL     1       3.750   0.715   0.890  1.00  0.00     0.019 A 
ATOM     15  C   UNL     1       2.955   0.025  -1.304  1.00  0.00     0.122 A 
ATOM     16  C   UNL     1       5.019   0.203   0.593  1.00  0.00     0.018 A 
ATOM     17  C   UNL     1       4.228  -0.491  -1.595  1.00  0.00     0.094 A 
ATOM     18  C   UNL     1       5.259  -0.404  -0.656  1.00  0.00     0.142 A 
ATOM     19  C   UNL     1       6.070   0.279   1.512  1.00  0.00     0.019 A 
ATOM     20  O   UNL     1       6.464  -0.892  -0.943  1.00  0.00    -0.423 OA
ATOM     21  C   UNL     1       7.317  -0.244   1.171  1.00  0.00     0.094 A 
ATOM     22  C   UNL     1       7.483  -0.832  -0.088  1.00  0.00     0.336 A 
ATOM     23  O   UNL     1       8.564  -1.294  -0.405  1.00  0.00    -0.246 OA
BRANCH  15  24
ATOM     24  O   UNL     1       1.967  -0.055  -2.220  1.00  0.00    -0.508 OA
ATOM     25  H   UNL     1       2.100  -0.463  -3.088  1.00  0.00     0.293 HD
ENDBRANCH  15  24
ENDBRANCH  12  13
ENDBRANCH   3  12
TORSDOF 7
