REMARK SMILES Cn1nc(-c2ccco2)cc1[C@H]1CN2CC[C@H]1C[C@@H]2CNC(=O)Nc1ccccc1
REMARK SMILES IDX 12 1 13 2 14 3 15 4 16 5 17 6 18 7 19 8 11 9 2 10 3 11 4 12
REMARK SMILES IDX 10 13 1 14 5 15 6 16 9 17 7 18 8 19 20 20 21 21 22 22 23 23
REMARK SMILES IDX 24 24 25 27 26 28 30 29 27 30 29 31 28 32
REMARK H PARENT 21 25 24 26
ROOT
ATOM      1  C   UNL     1      -1.947  -0.877  -0.759  1.00  0.00     0.055 C 
ATOM      2  C   UNL     1      -0.931   0.220  -1.195  1.00  0.00     0.095 C 
ATOM      3  N   UNL     1       0.469  -0.235  -0.917  1.00  0.00    -0.298 NA
ATOM      4  C   UNL     1       0.609  -1.654  -1.350  1.00  0.00     0.085 C 
ATOM      5  C   UNL     1      -0.184  -2.591  -0.380  1.00  0.00     0.020 C 
ATOM      6  C   UNL     1      -1.254  -1.726   0.349  1.00  0.00     0.002 C 
ATOM      7  C   UNL     1      -0.485  -0.776   1.329  1.00  0.00     0.025 C 
ATOM      8  C   UNL     1       0.733  -0.186   0.552  1.00  0.00     0.076 C 
ENDROOT
BRANCH   1   9
ATOM      9  C   UNL     1      -3.330  -0.347  -0.419  1.00  0.00     0.043 A 
ATOM     10  N   UNL     1      -4.458  -0.657  -1.106  1.00  0.00    -0.272 N 
ATOM     11  N   UNL     1      -5.504  -0.069  -0.549  1.00  0.00    -0.170 NA
ATOM     12  C   UNL     1      -5.061   0.633   0.509  1.00  0.00     0.128 A 
ATOM     13  C   UNL     1      -3.692   0.496   0.621  1.00  0.00     0.058 A 
ATOM     14  C   UNL     1      -4.569  -1.506  -2.289  1.00  0.00     0.174 C 
BRANCH  12  15
ATOM     15  C   UNL     1      -5.951   1.390   1.399  1.00  0.00     0.154 A 
ATOM     16  C   UNL     1      -5.580   2.100   2.523  1.00  0.00     0.052 A 
ATOM     17  O   UNL     1      -7.253   1.461   1.235  1.00  0.00    -0.463 OA
ATOM     18  C   UNL     1      -6.747   2.615   3.040  1.00  0.00     0.043 A 
ATOM     19  C   UNL     1      -7.758   2.190   2.203  1.00  0.00     0.196 A 
ENDBRANCH  12  15
ENDBRANCH   1   9
BRANCH   8  20
ATOM     20  C   UNL     1       1.196   1.219   0.997  1.00  0.00     0.136 C 
BRANCH  20  21
ATOM     21  N   UNL     1       2.352   1.594   0.199  1.00  0.00    -0.336 N 
ATOM     22  C   UNL     1       3.561   0.973   0.323  1.00  0.00     0.319 C 
ATOM     23  O   UNL     1       3.738   0.171   1.230  1.00  0.00    -0.249 OA
ATOM     24  N   UNL     1       4.537   1.195  -0.607  1.00  0.00    -0.308 N 
ATOM     25  H   UNL     1       2.222   2.312  -0.530  1.00  0.00     0.165 HD
ATOM     26  H   UNL     1       4.289   1.772  -1.426  1.00  0.00     0.171 HD
BRANCH  24  27
ATOM     27  C   UNL     1       5.824   0.566  -0.613  1.00  0.00     0.042 A 
ATOM     28  C   UNL     1       6.477   0.142   0.567  1.00  0.00     0.026 A 
ATOM     29  C   UNL     1       6.468   0.364  -1.847  1.00  0.00     0.026 A 
ATOM     30  C   UNL     1       7.731  -0.474   0.501  1.00  0.00     0.002 A 
ATOM     31  C   UNL     1       7.714  -0.268  -1.907  1.00  0.00     0.002 A 
ATOM     32  C   UNL     1       8.345  -0.686  -0.734  1.00  0.00     0.000 A 
ENDBRANCH  24  27
ENDBRANCH  20  21
ENDBRANCH   8  20
TORSDOF 5
