REMARK SMILES CCOc1ccccc1[C@@H]1C(C(=O)OC[C@H]2CCCO2)=C(C)NC2=C1C(=O)CCC2
REMARK SMILES IDX 10 1 11 2 21 3 22 4 23 5 24 6 25 7 26 8 27 9 28 10 29 11
REMARK SMILES IDX 30 12 9 14 4 15 5 16 6 17 8 18 7 19 3 20 2 21 1 22 12 23
REMARK SMILES IDX 13 24 14 25 15 26 16 27 17 28 20 29 18 30 19 31
REMARK H PARENT 23 13
ROOT
ATOM      1  C   UNL     1      -0.931  -0.583   0.700  1.00  0.00     0.098 C 
ATOM      2  C   UNL     1       0.398  -1.364   0.648  1.00  0.00     0.068 C 
ATOM      3  C   UNL     1       0.387  -2.698   0.309  1.00  0.00     0.023 C 
ATOM      4  C   UNL     1       1.595  -3.613   0.208  1.00  0.00     0.065 C 
ATOM      5  N   UNL     1      -0.849  -3.355   0.037  1.00  0.00    -0.362 N 
ATOM      6  C   UNL     1      -2.109  -2.718   0.152  1.00  0.00     0.023 C 
ATOM      7  C   UNL     1      -2.184  -1.407   0.451  1.00  0.00     0.027 C 
ATOM      8  C   UNL     1      -3.532  -0.757   0.522  1.00  0.00     0.161 C 
ATOM      9  O   UNL     1      -3.654   0.351   1.022  1.00  0.00    -0.294 OA
ATOM     10  C   UNL     1      -4.762  -1.463   0.002  1.00  0.00     0.081 C 
ATOM     11  C   UNL     1      -4.393  -2.716  -0.810  1.00  0.00     0.014 C 
ATOM     12  C   UNL     1      -3.372  -3.537  -0.035  1.00  0.00     0.055 C 
ATOM     13  H   UNL     1      -0.833  -4.358  -0.203  1.00  0.00     0.166 HD
ENDROOT
BRANCH   1  14
ATOM     14  C   UNL     1      -0.895   0.542  -0.329  1.00  0.00     0.007 A 
ATOM     15  C   UNL     1      -1.099   1.893   0.044  1.00  0.00     0.123 A 
ATOM     16  C   UNL     1      -1.059   2.895  -0.950  1.00  0.00     0.047 A 
ATOM     17  C   UNL     1      -0.824   2.562  -2.284  1.00  0.00     0.004 A 
ATOM     18  C   UNL     1      -0.671   0.229  -1.685  1.00  0.00     0.008 A 
ATOM     19  C   UNL     1      -0.632   1.232  -2.652  1.00  0.00     0.001 A 
BRANCH  15  20
ATOM     20  O   UNL     1      -1.357   2.187   1.346  1.00  0.00    -0.494 OA
BRANCH  20  21
ATOM     21  C   UNL     1      -1.691   3.431   1.845  1.00  0.00     0.226 C 
ATOM     22  C   UNL     1      -1.982   3.320   3.333  1.00  0.00     0.049 C 
ENDBRANCH  20  21
ENDBRANCH  15  20
ENDBRANCH   1  14
BRANCH   2  23
ATOM     23  C   UNL     1       1.636  -0.559   0.972  1.00  0.00     0.336 C 
ATOM     24  O   UNL     1       1.510   0.585   1.383  1.00  0.00    -0.246 OA
BRANCH  23  25
ATOM     25  O   UNL     1       2.878  -1.082   0.835  1.00  0.00    -0.459 OA
BRANCH  25  26
ATOM     26  C   UNL     1       4.095  -0.480   1.102  1.00  0.00     0.265 C 
BRANCH  26  27
ATOM     27  C   UNL     1       4.457   0.656   0.128  1.00  0.00     0.156 C 
ATOM     28  C   UNL     1       4.381   0.242  -1.337  1.00  0.00     0.038 C 
ATOM     29  O   UNL     1       3.634   1.798   0.279  1.00  0.00    -0.375 OA
ATOM     30  C   UNL     1       4.410   1.604  -1.950  1.00  0.00     0.031 C 
ATOM     31  C   UNL     1       3.427   2.307  -1.027  1.00  0.00     0.161 C 
ENDBRANCH  26  27
ENDBRANCH  25  26
ENDBRANCH  23  25
ENDBRANCH   2  23
TORSDOF 7
