REMARK SMILES O=Cc1ccc(O[C@@H]2O[C@@H](CO)[C@@H](O)[C@@H](O)[C@H]2O)cc1
REMARK SMILES IDX 8 1 9 2 10 3 13 4 15 5 17 6 7 7 6 8 3 9 4 10 20 11 5 12
REMARK SMILES IDX 19 13 2 14 1 15 18 16 11 18 12 19 16 21 14 23
REMARK H PARENT 18 17 12 20 16 22 14 24
ROOT
ATOM      1  C   UNL     1       0.520   0.037  -0.260  1.00  0.00     0.339 C 
ATOM      2  O   UNL     1       1.349   1.099   0.234  1.00  0.00    -0.332 OA
ATOM      3  C   UNL     1       2.683   1.135  -0.281  1.00  0.00     0.179 C 
ATOM      4  C   UNL     1       3.329  -0.277  -0.295  1.00  0.00     0.177 C 
ATOM      5  C   UNL     1       2.533  -1.213  -1.246  1.00  0.00     0.180 C 
ATOM      6  C   UNL     1       1.101  -0.678  -1.503  1.00  0.00     0.214 C 
ENDROOT
BRANCH   1   7
ATOM      7  O   UNL     1      -0.701   0.588  -0.616  1.00  0.00    -0.462 OA
BRANCH   7   8
ATOM      8  C   UNL     1      -1.950   0.312  -0.151  1.00  0.00     0.123 A 
ATOM      9  C   UNL     1      -4.603  -0.132   0.709  1.00  0.00     0.015 A 
ATOM     10  C   UNL     1      -4.316   0.881  -0.215  1.00  0.00     0.015 A 
ATOM     11  C   UNL     1      -3.556  -0.926   1.202  1.00  0.00     0.015 A 
ATOM     12  C   UNL     1      -3.002   1.097  -0.639  1.00  0.00     0.047 A 
ATOM     13  C   UNL     1      -2.239  -0.710   0.779  1.00  0.00     0.047 A 
BRANCH   9  14
ATOM     14  C   UNL     1      -6.000  -0.345   1.145  1.00  0.00     0.260 C 
ATOM     15  O   UNL     1      -6.282  -1.220   1.948  1.00  0.00    -0.298 OA
ENDBRANCH   9  14
ENDBRANCH   7   8
ENDBRANCH   1   7
BRANCH   6  16
ATOM     16  O   UNL     1       0.253  -1.673  -2.020  1.00  0.00    -0.384 OA
ATOM     17  H   UNL     1      -0.024  -2.255  -1.265  1.00  0.00     0.211 HD
ENDBRANCH   6  16
BRANCH   3  18
ATOM     18  C   UNL     1       3.511   2.135   0.542  1.00  0.00     0.191 C 
BRANCH  18  19
ATOM     19  O   UNL     1       3.594   1.759   1.891  1.00  0.00    -0.394 OA
ATOM     20  H   UNL     1       2.750   2.052   2.322  1.00  0.00     0.210 HD
ENDBRANCH  18  19
ENDBRANCH   3  18
BRANCH   5  21
ATOM     21  O   UNL     1       2.568  -2.546  -0.794  1.00  0.00    -0.387 OA
ATOM     22  H   UNL     1       1.948  -2.625  -0.025  1.00  0.00     0.211 HD
ENDBRANCH   5  21
BRANCH   4  23
ATOM     23  O   UNL     1       3.412  -0.805   1.010  1.00  0.00    -0.387 OA
ATOM     24  H   UNL     1       2.505  -0.837   1.405  1.00  0.00     0.211 HD
ENDBRANCH   4  23
TORSDOF 8
