REMARK SMILES CCC=CCC=CCC=CCC=CCC=CCC=CCCC(=O)O[C@H](COC(=O)C[C]CCC=CCC=CCC=CCCCCC)CO[P@](=O)(O)O[C][C@@H](O)[C]O
REMARK SMILES IDX 25 1 24 2 22 3 23 4 21 5 20 6 19 7 18 8 17 9 16 10 15 11
REMARK SMILES IDX 14 12 13 13 12 14 11 15 10 16 9 17 8 18 7 19 6 20 5 21 4 22
REMARK SMILES IDX 3 23 2 24 1 25 26 26 27 27 28 28 29 29 30 30 31 31 32 32
REMARK SMILES IDX 33 33 34 34 35 35 36 36 37 37 38 38 39 39 40 40 41 41 42 42
REMARK SMILES IDX 43 43 44 44 45 45 46 46 47 47 48 48 49 49 50 50 51 51 52 53
REMARK SMILES IDX 53 54 54 55 55 56 56 58 57 59
REMARK H PARENT 51 52 55 57 57 60
ROOT
ATOM      1  C   UNL     1      23.383 -12.000   0.000  1.00  0.00     0.240 C 
ENDROOT
BRANCH   1   2
ATOM      2  O   UNL     1      22.185 -11.215  -0.274  1.00  0.00    -0.456 OA
BRANCH   2   3
ATOM      3  C   UNL     1      20.894 -11.088   0.270  1.00  0.00     0.306 C 
ATOM      4  O   UNL     1      20.481 -11.890   1.093  1.00  0.00    -0.252 OA
BRANCH   3   5
ATOM      5  C   UNL     1      19.923  -9.959  -0.159  1.00  0.00     0.127 C 
BRANCH   5   6
ATOM      6  C   UNL     1      18.428 -10.232   0.271  1.00  0.00     0.039 C 
BRANCH   6   7
ATOM      7  C   UNL     1      17.314  -9.183   0.027  1.00  0.00    -0.030 C 
ATOM      8  C   UNL     1      17.517  -7.920  -0.389  1.00  0.00    -0.027 C 
BRANCH   8   9
ATOM      9  C   UNL     1      16.496  -6.791  -0.652  1.00  0.00     0.054 C 
BRANCH   9  10
ATOM     10  C   UNL     1      14.953  -6.835  -0.684  1.00  0.00    -0.027 C 
ATOM     11  C   UNL     1      14.078  -7.567   0.041  1.00  0.00    -0.027 C 
BRANCH  11  12
ATOM     12  C   UNL     1      12.545  -7.476  -0.177  1.00  0.00     0.054 C 
BRANCH  12  13
ATOM     13  C   UNL     1      11.771  -6.160   0.024  1.00  0.00    -0.027 C 
ATOM     14  C   UNL     1      12.336  -4.997   0.387  1.00  0.00    -0.027 C 
BRANCH  14  15
ATOM     15  C   UNL     1      11.714  -3.619   0.569  1.00  0.00     0.054 C 
BRANCH  15  16
ATOM     16  C   UNL     1      10.274  -3.101   0.422  1.00  0.00    -0.027 C 
ATOM     17  C   UNL     1       9.060  -3.656   0.175  1.00  0.00    -0.027 C 
BRANCH  17  18
ATOM     18  C   UNL     1       7.889  -2.661   0.146  1.00  0.00     0.054 C 
BRANCH  18  19
ATOM     19  C   UNL     1       6.462  -3.142  -0.046  1.00  0.00    -0.027 C 
ATOM     20  C   UNL     1       5.480  -2.206  -0.023  1.00  0.00    -0.027 C 
BRANCH  20  21
ATOM     21  C   UNL     1       3.994  -2.491  -0.173  1.00  0.00     0.054 C 
BRANCH  21  22
ATOM     22  C   UNL     1       3.179  -1.210  -0.070  1.00  0.00    -0.027 C 
ATOM     23  C   UNL     1       1.836  -1.191  -0.152  1.00  0.00    -0.031 C 
BRANCH  23  24
ATOM     24  C   UNL     1       1.080   0.118  -0.035  1.00  0.00     0.023 C 
ATOM     25  C   UNL     1      -0.431  -0.066  -0.147  1.00  0.00     0.008 C 
ENDBRANCH  23  24
ENDBRANCH  21  22
ENDBRANCH  20  21
ENDBRANCH  18  19
ENDBRANCH  17  18
ENDBRANCH  15  16
ENDBRANCH  14  15
ENDBRANCH  12  13
ENDBRANCH  11  12
ENDBRANCH   9  10
ENDBRANCH   8   9
ENDBRANCH   6   7
ENDBRANCH   5   6
ENDBRANCH   3   5
ENDBRANCH   2   3
ENDBRANCH   1   2
BRANCH   1  26
ATOM     26  C   UNL     1      22.633 -13.299   0.000  1.00  0.00     0.280 C 
BRANCH  26  27
ATOM     27  O   UNL     1      23.292 -14.605  -0.053  1.00  0.00    -0.462 OA
BRANCH  27  28
ATOM     28  C   UNL     1      23.131 -16.065  -0.044  1.00  0.00     0.306 C 
ATOM     29  O   UNL     1      24.214 -16.633  -0.094  1.00  0.00    -0.252 OA
BRANCH  28  30
ATOM     30  C   UNL     1      21.883 -17.196   0.000  1.00  0.00     0.131 C 
BRANCH  30  31
ATOM     31  C   UNL     1      21.133 -18.495   0.000  1.00  0.00    -0.005 C 
BRANCH  31  32
ATOM     32  C   UNL     1      20.383 -19.794   0.000  1.00  0.00     0.013 C 
BRANCH  32  33
ATOM     33  C   UNL     1      20.696 -21.377  -0.137  1.00  0.00     0.027 C 
BRANCH  33  34
ATOM     34  C   UNL     1      19.410 -22.335   0.030  1.00  0.00    -0.031 C 
ATOM     35  C   UNL     1      19.325 -23.742  -0.055  1.00  0.00    -0.027 C 
BRANCH  35  36
ATOM     36  C   UNL     1      17.980 -24.594   0.153  1.00  0.00     0.054 C 
BRANCH  36  37
ATOM     37  C   UNL     1      17.953 -26.189   0.008  1.00  0.00    -0.027 C 
ATOM     38  C   UNL     1      16.835 -27.032   0.214  1.00  0.00    -0.027 C 
BRANCH  38  39
ATOM     39  C   UNL     1      16.832 -28.625   0.055  1.00  0.00     0.054 C 
BRANCH  39  40
ATOM     40  C   UNL     1      15.566 -29.557   0.400  1.00  0.00    -0.027 C 
ATOM     41  C   UNL     1      15.627 -30.961   0.325  1.00  0.00    -0.031 C 
BRANCH  41  42
ATOM     42  C   UNL     1      14.627 -32.157   0.744  1.00  0.00     0.027 C 
BRANCH  42  43
ATOM     43  C   UNL     1      13.303 -32.594  -0.045  1.00  0.00     0.004 C 
BRANCH  43  44
ATOM     44  C   UNL     1      12.401 -33.904   0.392  1.00  0.00     0.000 C 
BRANCH  44  45
ATOM     45  C   UNL     1      12.883 -35.383   0.000  1.00  0.00    -0.003 C 
ATOM     46  C   UNL     1      12.133 -36.682   0.000  1.00  0.00     0.004 C 
ENDBRANCH  44  45
ENDBRANCH  43  44
ENDBRANCH  42  43
ENDBRANCH  41  42
ENDBRANCH  39  40
ENDBRANCH  38  39
ENDBRANCH  36  37
ENDBRANCH  35  36
ENDBRANCH  33  34
ENDBRANCH  32  33
ENDBRANCH  31  32
ENDBRANCH  30  31
ENDBRANCH  28  30
ENDBRANCH  27  28
ENDBRANCH  26  27
ENDBRANCH   1  26
BRANCH   1  47
ATOM     47  C   UNL     1      24.133 -10.701   0.000  1.00  0.00     0.222 C 
BRANCH  47  48
ATOM     48  O   UNL     1      23.803  -9.762   1.034  1.00  0.00    -0.283 OA
BRANCH  48  49
ATOM     49  P   UNL     1      23.869  -8.048   0.480  1.00  0.00     0.473 P 
ATOM     50  O   UNL     1      23.436  -7.237   1.733  1.00  0.00    -0.228 OA
BRANCH  49  51
ATOM     51  O   UNL     1      22.627  -7.704  -0.681  1.00  0.00    -0.302 OA
ATOM     52  H   UNL     1      22.931  -8.140  -1.515  1.00  0.00     0.223 HD
ENDBRANCH  49  51
BRANCH  49  53
ATOM     53  O   UNL     1      25.432  -7.353   0.000  1.00  0.00    -0.271 OA
BRANCH  53  54
ATOM     54  C   UNL     1      25.432  -5.853   0.000  1.00  0.00     0.179 C 
BRANCH  54  55
ATOM     55  C   UNL     1      25.432  -4.353   0.000  1.00  0.00     0.191 C 
BRANCH  55  56
ATOM     56  O   UNL     1      24.198  -4.352   0.686  1.00  0.00    -0.387 OA
ATOM     57  H   UNL     1      23.443  -4.357   0.028  1.00  0.00     0.211 HD
ENDBRANCH  55  56
BRANCH  55  58
ATOM     58  C   UNL     1      25.432  -2.853   0.000  1.00  0.00     0.162 C 
BRANCH  58  59
ATOM     59  O   UNL     1      25.432  -1.353   0.000  1.00  0.00    -0.381 OA
ATOM     60  H   UNL     1      26.390  -1.105  -0.005  1.00  0.00     0.211 HD
ENDBRANCH  58  59
ENDBRANCH  55  58
ENDBRANCH  54  55
ENDBRANCH  53  54
ENDBRANCH  49  53
ENDBRANCH  48  49
ENDBRANCH  47  48
ENDBRANCH   1  47
TORSDOF 42
