REMARK SMILES COC(=O)[C@H](Cc1ccc(O)c([N+](=O)[O-])c1)NC(=O)CON=C1C=C2CC[C@H]3[C@@H](CC[C@]4(C)[C@H](O)CC[C@@H]34)[C@@]2(C)CC1
REMARK SMILES IDX 17 1 18 2 19 3 5 5 3 6 4 7 2 8 1 9 6 10 7 11 8 12 16 13 9 14
REMARK SMILES IDX 12 15 10 16 13 17 14 18 15 19 11 20 20 22 21 23 22 24 23 25
REMARK SMILES IDX 24 26 42 27 25 28 41 29 26 30 39 31 27 32 29 33 28 34 30 35
REMARK SMILES IDX 38 36 31 37 37 38 32 39 36 40 34 41 40 42 33 43 35 44
REMARK H PARENT 17 4 11 21 35 45
ROOT
ATOM      1  N   UNL     1       5.018   0.429   1.191  1.00  0.00    -0.339 N 
ATOM      2  C   UNL     1       3.695   0.619   1.445  1.00  0.00     0.261 C 
ATOM      3  O   UNL     1       3.162   0.085   2.408  1.00  0.00    -0.271 OA
ATOM      4  H   UNL     1       5.425   0.869   0.351  1.00  0.00     0.164 HD
ENDROOT
BRANCH   1   5
ATOM      5  C   UNL     1       5.888  -0.360   2.057  1.00  0.00     0.196 C 
BRANCH   5   6
ATOM      6  C   UNL     1       7.049   0.485   2.530  1.00  0.00     0.328 C 
ATOM      7  O   UNL     1       7.861   0.008   3.312  1.00  0.00    -0.250 OA
BRANCH   6   8
ATOM      8  O   UNL     1       7.192   1.758   2.079  1.00  0.00    -0.467 OA
ATOM      9  C   UNL     1       8.247   2.581   2.410  1.00  0.00     0.282 C 
ENDBRANCH   6   8
ENDBRANCH   5   6
BRANCH   5  10
ATOM     10  C   UNL     1       6.373  -1.630   1.330  1.00  0.00     0.072 C 
BRANCH  10  11
ATOM     11  C   UNL     1       7.191  -1.335   0.097  1.00  0.00    -0.038 A 
ATOM     12  C   UNL     1       6.568  -1.146  -1.144  1.00  0.00     0.008 A 
ATOM     13  C   UNL     1       8.589  -1.247   0.187  1.00  0.00     0.093 A 
ATOM     14  C   UNL     1       7.326  -0.867  -2.275  1.00  0.00     0.054 A 
ATOM     15  C   UNL     1       9.375  -0.963  -0.945  1.00  0.00     0.310 A 
ATOM     16  C   UNL     1       8.726  -0.771  -2.191  1.00  0.00     0.194 A 
BRANCH  15  17
ATOM     17  N   UNL     1      10.797  -0.875  -0.814  1.00  0.00     0.066 N 
ATOM     18  O   UNL     1      11.489  -0.630  -1.754  1.00  0.00    -0.258 OA
ATOM     19  O   UNL     1      11.367  -1.049   0.359  1.00  0.00    -0.258 OA
ENDBRANCH  15  17
BRANCH  16  20
ATOM     20  O   UNL     1       9.437  -0.497  -3.305  1.00  0.00    -0.502 OA
ATOM     21  H   UNL     1       9.019  -0.360  -4.169  1.00  0.00     0.293 HD
ENDBRANCH  16  20
ENDBRANCH  10  11
ENDBRANCH   5  10
ENDBRANCH   1   5
BRANCH   2  22
ATOM     22  C   UNL     1       2.880   1.494   0.536  1.00  0.00     0.363 C 
BRANCH  22  23
ATOM     23  O   UNL     1       1.563   1.462   0.925  1.00  0.00    -0.385 OA
BRANCH  23  24
ATOM     24  N   UNL     1       0.665   2.269   0.400  1.00  0.00    -0.091 NA
ATOM     25  C   UNL     1      -0.541   1.877   0.185  1.00  0.00     0.080 C 
ATOM     26  C   UNL     1      -0.947   0.460   0.425  1.00  0.00     0.027 C 
ATOM     27  C   UNL     1      -1.531   2.870  -0.377  1.00  0.00     0.061 C 
ATOM     28  C   UNL     1      -2.101  -0.021  -0.081  1.00  0.00    -0.062 C 
ATOM     29  C   UNL     1      -2.962   2.299  -0.380  1.00  0.00     0.018 C 
ATOM     30  C   UNL     1      -2.538  -1.447   0.175  1.00  0.00     0.032 C 
ATOM     31  C   UNL     1      -3.007   0.860  -0.963  1.00  0.00    -0.008 C 
ATOM     32  C   UNL     1      -3.951  -1.519   0.807  1.00  0.00     0.008 C 
ATOM     33  C   UNL     1      -4.460   0.246  -0.971  1.00  0.00     0.002 C 
ATOM     34  C   UNL     1      -4.822  -0.280   0.459  1.00  0.00    -0.003 C 
ATOM     35  C   UNL     1      -5.579   1.163  -1.502  1.00  0.00     0.005 C 
ATOM     36  C   UNL     1      -6.363  -0.412   0.669  1.00  0.00     0.001 C 
ATOM     37  C   UNL     1      -6.920   0.385  -1.681  1.00  0.00     0.010 C 
ATOM     38  C   UNL     1      -6.914  -1.389   1.706  1.00  0.00     0.007 C 
ATOM     39  C   UNL     1      -7.148  -0.746  -0.609  1.00  0.00    -0.003 C 
ATOM     40  C   UNL     1      -8.418  -1.494   1.359  1.00  0.00     0.032 C 
ATOM     41  C   UNL     1      -8.592  -0.841  -0.047  1.00  0.00     0.120 C 
ATOM     42  C   UNL     1      -2.466   0.858  -2.417  1.00  0.00     0.016 C 
ATOM     43  C   UNL     1      -6.787  -2.138  -1.224  1.00  0.00     0.014 C 
BRANCH  41  44
ATOM     44  O   UNL     1      -9.187   0.437   0.073  1.00  0.00    -0.393 OA
ATOM     45  H   UNL     1      -8.818   0.920   0.855  1.00  0.00     0.210 HD
ENDBRANCH  41  44
ENDBRANCH  23  24
ENDBRANCH  22  23
ENDBRANCH   2  22
TORSDOF 11
