REMARK SMILES CC1=C[C@H]2[C@H](CC1)[C@H](C)C[C@]13O[C@H]4O[C@@]4(C)[C@]21O3
REMARK SMILES IDX 1 1 2 2 3 3 4 4 5 5 6 6 7 7 8 8 9 9 10 10 11 11 12 12 13 13
REMARK SMILES IDX 14 14 15 15 16 16 17 17 18 18
REMARK H PARENT
ROOT
ATOM      1  C   UNL     1       3.332  -2.394  -0.574  1.00  0.00     0.039 C 
ATOM      2  C   UNL     1       2.432  -1.200  -0.400  1.00  0.00    -0.077 C 
ATOM      3  C   UNL     1       1.142  -1.370  -0.031  1.00  0.00    -0.021 C 
ATOM      4  C   UNL     1       0.171  -0.217   0.118  1.00  0.00     0.056 C 
ATOM      5  C   UNL     1       0.693   1.077  -0.588  1.00  0.00     0.002 C 
ATOM      6  C   UNL     1       2.135   1.323  -0.150  1.00  0.00     0.009 C 
ATOM      7  C   UNL     1       3.022   0.174  -0.658  1.00  0.00     0.030 C 
ATOM      8  C   UNL     1      -0.261   2.281  -0.328  1.00  0.00    -0.005 C 
ATOM      9  C   UNL     1      -0.428   2.633   1.164  1.00  0.00     0.008 C 
ATOM     10  C   UNL     1      -1.638   1.994  -0.975  1.00  0.00     0.073 C 
ATOM     11  C   UNL     1      -2.116   0.569  -0.658  1.00  0.00     0.205 C 
ATOM     12  O   UNL     1      -3.483   0.286  -0.535  1.00  0.00    -0.315 OA
ATOM     13  C   UNL     1      -3.498  -0.833   0.323  1.00  0.00     0.289 C 
ATOM     14  O   UNL     1      -3.280  -2.011  -0.439  1.00  0.00    -0.335 OA
ATOM     15  C   UNL     1      -2.199  -1.540   0.324  1.00  0.00     0.154 C 
ATOM     16  C   UNL     1      -1.861  -2.364   1.562  1.00  0.00     0.051 C 
ATOM     17  C   UNL     1      -1.242  -0.594  -0.378  1.00  0.00     0.165 C 
ATOM     18  O   UNL     1      -1.577  -0.265  -1.686  1.00  0.00    -0.331 OA
ENDROOT
TORSDOF 0
