REMARK SMILES COc1ccc(CNC(=O)CC[C@@H]2N=C(O)N(CCc3c[nH]c4ccccc34)C2=O)cc1
REMARK SMILES IDX 11 1 9 2 8 3 10 4 7 6 6 7 3 8 4 9 32 10 5 11 31 12 2 13 1 14
REMARK SMILES IDX 12 15 13 16 14 17 29 18 15 19 17 20 30 21 16 22 18 24 19 25
REMARK SMILES IDX 20 26 21 27 28 28 22 29 27 30 23 31 26 32 24 33 25 34
REMARK H PARENT 8 5 16 23 22 35
ROOT
ATOM      1  C   UNL     1       1.914   2.453  -1.107  1.00  0.00     0.103 C 
ENDROOT
BRANCH   1   2
ATOM      2  C   UNL     1       3.194   1.820  -1.612  1.00  0.00     0.220 C 
ATOM      3  N   UNL     1       4.347   2.544  -1.656  1.00  0.00    -0.352 N 
ATOM      4  O   UNL     1       3.184   0.661  -2.007  1.00  0.00    -0.275 OA
ATOM      5  H   UNL     1       4.340   3.530  -1.354  1.00  0.00     0.163 HD
BRANCH   3   6
ATOM      6  C   UNL     1       5.582   1.982  -2.176  1.00  0.00     0.151 C 
BRANCH   6   7
ATOM      7  C   UNL     1       6.087   0.879  -1.280  1.00  0.00    -0.029 A 
ATOM      8  C   UNL     1       7.029  -1.165   0.418  1.00  0.00     0.118 A 
ATOM      9  C   UNL     1       6.559  -1.471  -0.875  1.00  0.00     0.047 A 
ATOM     10  C   UNL     1       7.025   0.169   0.845  1.00  0.00     0.047 A 
ATOM     11  C   UNL     1       6.100  -0.455  -1.719  1.00  0.00     0.009 A 
ATOM     12  C   UNL     1       6.551   1.182   0.008  1.00  0.00     0.009 A 
BRANCH   8  13
ATOM     13  O   UNL     1       7.488  -2.114   1.275  1.00  0.00    -0.497 OA
ATOM     14  C   UNL     1       7.495  -3.473   1.041  1.00  0.00     0.278 C 
ENDBRANCH   8  13
ENDBRANCH   6   7
ENDBRANCH   3   6
ENDBRANCH   1   2
BRANCH   1  15
ATOM     15  C   UNL     1       0.719   1.495  -1.239  1.00  0.00     0.047 C 
BRANCH  15  16
ATOM     16  C   UNL     1      -0.606   2.122  -0.788  1.00  0.00     0.201 C 
ATOM     17  N   UNL     1      -0.627   2.364   0.645  1.00  0.00    -0.222 NA
ATOM     18  C   UNL     1      -1.725   1.139  -0.939  1.00  0.00     0.255 C 
ATOM     19  C   UNL     1      -1.562   1.664   1.185  1.00  0.00     0.292 C 
ATOM     20  N   UNL     1      -2.276   0.881   0.257  1.00  0.00    -0.264 N 
ATOM     21  O   UNL     1      -2.095   0.637  -1.990  1.00  0.00    -0.272 OA
BRANCH  19  22
ATOM     22  O   UNL     1      -1.813   1.667   2.511  1.00  0.00    -0.480 OA
ATOM     23  H   UNL     1      -1.290   2.208   3.119  1.00  0.00     0.296 HD
ENDBRANCH  19  22
BRANCH  20  24
ATOM     24  C   UNL     1      -3.364  -0.040   0.530  1.00  0.00     0.135 C 
BRANCH  24  25
ATOM     25  C   UNL     1      -4.613   0.714   1.004  1.00  0.00     0.060 C 
BRANCH  25  26
ATOM     26  C   UNL     1      -5.753  -0.231   1.269  1.00  0.00    -0.021 A 
ATOM     27  C   UNL     1      -6.367  -0.440   2.500  1.00  0.00     0.087 A 
ATOM     28  C   UNL     1      -6.409  -1.062   0.374  1.00  0.00     0.003 A 
ATOM     29  N   UNL     1      -7.351  -1.361   2.381  1.00  0.00    -0.361 N 
ATOM     30  C   UNL     1      -6.244  -1.273  -0.998  1.00  0.00     0.010 A 
ATOM     31  C   UNL     1      -7.368  -1.734   1.090  1.00  0.00     0.046 A 
ATOM     32  C   UNL     1      -7.082  -2.211  -1.627  1.00  0.00     0.001 A 
ATOM     33  C   UNL     1      -8.215  -2.667   0.492  1.00  0.00     0.026 A 
ATOM     34  C   UNL     1      -8.062  -2.906  -0.885  1.00  0.00     0.002 A 
ATOM     35  H   UNL     1      -7.972  -1.710   3.145  1.00  0.00     0.166 HD
ENDBRANCH  25  26
ENDBRANCH  24  25
ENDBRANCH  20  24
ENDBRANCH  15  16
ENDBRANCH   1  15
TORSDOF 10
