REMARK SMILES C[C@@H]1CC(=O)CC(C)(C)[C@H]1CC[C@H](O)CO
REMARK SMILES IDX 12 1 11 2 10 3 2 4 3 5 4 6 7 7 5 8 6 9 1 10 8 11 9 12 13 13
REMARK SMILES IDX 14 14 15 16 16 17
REMARK H PARENT 14 15 16 18
ROOT
ATOM      1  C   UNL     1       1.912   0.152  -0.877  1.00  0.00     0.034 C 
ENDROOT
BRANCH   1   2
ATOM      2  C   UNL     1       0.583   0.942  -0.913  1.00  0.00     0.007 C 
BRANCH   2   3
ATOM      3  C   UNL     1      -0.583   0.438   0.004  1.00  0.00    -0.002 C 
ATOM      4  C   UNL     1      -1.772   1.464   0.119  1.00  0.00    -0.003 C 
ATOM      5  C   UNL     1      -2.630   1.048   1.352  1.00  0.00     0.079 C 
ATOM      6  C   UNL     1      -2.995  -0.408   1.297  1.00  0.00     0.133 C 
ATOM      7  C   UNL     1      -1.155  -1.029  -0.331  1.00  0.00    -0.025 C 
ATOM      8  O   UNL     1      -3.564  -0.948   2.233  1.00  0.00    -0.300 OA
ATOM      9  C   UNL     1      -2.666  -1.164   0.057  1.00  0.00     0.082 C 
ATOM     10  C   UNL     1      -1.352   2.932   0.316  1.00  0.00     0.008 C 
ATOM     11  C   UNL     1      -0.360  -2.098   0.454  1.00  0.00     0.012 C 
ATOM     12  C   UNL     1      -1.098  -1.366  -1.844  1.00  0.00     0.012 C 
ENDBRANCH   2   3
ENDBRANCH   1   2
BRANCH   1  13
ATOM     13  C   UNL     1       2.577   0.107   0.521  1.00  0.00     0.140 C 
BRANCH  13  14
ATOM     14  O   UNL     1       2.781   1.404   1.024  1.00  0.00    -0.391 OA
ATOM     15  H   UNL     1       3.393   1.876   0.399  1.00  0.00     0.211 HD
ENDBRANCH  13  14
BRANCH  13  16
ATOM     16  C   UNL     1       3.911  -0.662   0.491  1.00  0.00     0.187 C 
BRANCH  16  17
ATOM     17  O   UNL     1       3.725  -1.978   0.044  1.00  0.00    -0.394 OA
ATOM     18  H   UNL     1       3.328  -2.483   0.802  1.00  0.00     0.210 HD
ENDBRANCH  16  17
ENDBRANCH  13  16
ENDBRANCH   1  13
TORSDOF 6
