REMARK SMILES C=C(C#N)C(C#N)=Cc1ccc(OC)cc1
REMARK SMILES IDX 9 1 10 2 11 3 12 4 15 5 16 6 8 7 5 8 6 9 7 10 2 11 1 12 3 13
REMARK SMILES IDX 4 14 13 15 14 16
REMARK H PARENT
ROOT
ATOM      1  C   UNL     1       0.034   0.738   0.433  1.00  0.00    -0.024 A 
ATOM      2  C   UNL     1       1.174   0.982  -0.340  1.00  0.00     0.012 A 
ATOM      3  C   UNL     1       2.214   0.052  -0.382  1.00  0.00     0.047 A 
ATOM      4  C   UNL     1       2.140  -1.129   0.383  1.00  0.00     0.118 A 
ATOM      5  C   UNL     1       1.004  -1.362   1.169  1.00  0.00     0.047 A 
ATOM      6  C   UNL     1      -0.046  -0.440   1.193  1.00  0.00     0.012 A 
ENDROOT
BRANCH   1   7
ATOM      7  C   UNL     1      -1.016   1.772   0.495  1.00  0.00     0.029 C 
ATOM      8  C   UNL     1      -2.340   1.645   0.254  1.00  0.00     0.070 C 
ATOM      9  C   UNL     1      -3.126   2.843   0.445  1.00  0.00     0.101 C 
ATOM     10  N   UNL     1      -3.760   3.809   0.599  1.00  0.00    -0.192 NA
BRANCH   8  11
ATOM     11  C   UNL     1      -3.048   0.410  -0.265  1.00  0.00     0.063 C 
ATOM     12  C   UNL     1      -4.371   0.430  -0.492  1.00  0.00     0.031 C 
ATOM     13  C   UNL     1      -2.364  -0.823  -0.604  1.00  0.00     0.100 C 
ATOM     14  N   UNL     1      -1.844  -1.818  -0.883  1.00  0.00    -0.192 NA
ENDBRANCH   8  11
ENDBRANCH   1   7
BRANCH   4  15
ATOM     15  O   UNL     1       3.136  -2.053   0.399  1.00  0.00    -0.497 OA
ATOM     16  C   UNL     1       4.316  -1.973  -0.310  1.00  0.00     0.278 C 
ENDBRANCH   4  15
TORSDOF 3
