REMARK SMILES O=C(O[C@@H]1COC(=O)c2cc(O)c(O)c(O)c2-c2c(cc(O)c(O)c2O)C(=O)O[C@H]1[C@@H]1OC(=O)c2cc(O)c(O)c(O)c2-c2c(O)c(O)c(O)c3c2C(=O)O[C@H]1[C@H]3c1c(O)cc2c(c1O)C[C@H](O)[C@@H](c1ccc(O)c(O)c1)O2)c1cc(O)c(O)c(O)c1
REMARK SMILES IDX 31 1 30 3 4 4 3 6 2 7 1 8 79 9 80 10 87 11 81 12 85 13 83 14
REMARK SMILES IDX 82 15 86 17 84 19 29 21 27 22 28 23 19 24 18 25 20 26 25 27
REMARK SMILES IDX 21 28 23 29 17 30 15 31 9 32 13 33 10 34 11 35 16 36 7 38
REMARK SMILES IDX 8 39 6 40 5 41 14 43 12 45 26 47 22 49 24 51 32 53 33 54
REMARK SMILES IDX 34 55 35 56 36 57 43 58 37 59 41 60 39 61 44 62 45 63 52 64
REMARK SMILES IDX 47 65 51 66 53 67 49 68 57 69 54 70 55 71 56 72 46 74 48 76
REMARK SMILES IDX 50 78 58 80 59 81 64 82 61 83 63 84 62 85 66 86 78 87 67 88
REMARK SMILES IDX 69 89 60 90 65 92 68 94 70 96 71 97 77 98 72 99 75 100
REMARK SMILES IDX 73 101 76 102 74 104 38 106 42 108 40 110
REMARK H PARENT 82 16 86 18 84 20 16 37 14 44 12 46 26 48 22 50 24 52 46 75
REMARK H PARENT 48 77 50 79 60 91 65 93 68 95 76 103 74 105 38 107 42 109
REMARK H PARENT 40 111
REMARK Flexibility Score:  629.800
ROOT
ATOM      1  C   UNL     1       1.246   0.854  -0.834  1.00  0.00     0.263 CG1
ATOM      2  G   UNL     1       0.064   0.513   0.216  1.00  0.00     0.000 G1
ENDROOT
BRANCH   1   3
ATOM      3  C   UNL     1       2.428  -0.104  -0.525  1.00  0.00     0.266 C 
BRANCH   3   4
ATOM      4  C   UNL     1       3.491  -0.371  -1.631  1.00  0.00     0.259 CG0
ATOM      5  G   UNL     1       4.232  -1.685  -1.268  1.00  0.00     0.000 G0
BRANCH   4   6
ATOM      6  O   UNL     1       2.888  -0.534  -2.871  1.00  0.00    -0.451 OA
BRANCH   6   7
ATOM      7  C   UNL     1       3.188   0.189  -3.988  1.00  0.00     0.338 C 
ATOM      8  O   UNL     1       4.097   1.010  -3.970  1.00  0.00    -0.246 OA
BRANCH   7   9
ATOM      9  C   UNL     1       2.424  -0.021  -5.241  1.00  0.00     0.067 A 
ATOM     10  C   UNL     1       1.364  -0.938  -5.289  1.00  0.00     0.066 A 
ATOM     11  C   UNL     1       2.756   0.702  -6.402  1.00  0.00     0.066 A 
ATOM     12  C   UNL     1       0.642  -1.133  -6.477  1.00  0.00     0.162 A 
ATOM     13  C   UNL     1       2.046   0.513  -7.590  1.00  0.00     0.162 A 
ATOM     14  C   UNL     1       0.983  -0.407  -7.634  1.00  0.00     0.200 A 
BRANCH  12  15
ATOM     15  O   UNL     1      -0.378  -2.017  -6.513  1.00  0.00    -0.504 OA
ATOM     16  H   UNL     1      -0.642  -2.532  -5.738  1.00  0.00     0.293 HD
ENDBRANCH  12  15
BRANCH  13  17
ATOM     17  O   UNL     1       2.403   1.226  -8.680  1.00  0.00    -0.504 OA
ATOM     18  H   UNL     1       1.955   1.141  -9.533  1.00  0.00     0.293 HD
ENDBRANCH  13  17
BRANCH  14  19
ATOM     19  O   UNL     1       0.303  -0.582  -8.788  1.00  0.00    -0.502 OA
ATOM     20  H   UNL     1      -0.435  -1.201  -8.874  1.00  0.00     0.293 HD
ENDBRANCH  14  19
ENDBRANCH   7   9
ENDBRANCH   6   7
ENDBRANCH   4   6
ENDBRANCH   3   4
BRANCH   3  21
ATOM     21  O   UNL     1       2.997   0.165   0.735  1.00  0.00    -0.450 OA
BRANCH  21  22
ATOM     22  C   UNL     1       4.232   0.698   1.032  1.00  0.00     0.339 C 
ATOM     23  O   UNL     1       4.842   1.349   0.196  1.00  0.00    -0.246 OA
BRANCH  22  24
ATOM     24  C   UNL     1       4.601   0.900   2.438  1.00  0.00     0.075 A 
ATOM     25  C   UNL     1       4.851  -0.090   3.474  1.00  0.00     0.047 A 
ATOM     26  C   UNL     1       4.668   2.281   2.733  1.00  0.00     0.066 A 
ATOM     27  C   UNL     1       4.900   0.477   4.814  1.00  0.00     0.170 A 
ATOM     28  C   UNL     1       4.872   2.761   4.008  1.00  0.00     0.162 A 
ATOM     29  C   UNL     1       4.944   1.865   5.057  1.00  0.00     0.200 A 
BRANCH  25  30
ATOM     30  C   UNL     1       5.049  -1.659   3.351  1.00  0.00     0.047 A 
ATOM     31  C   UNL     1       5.903  -2.291   4.347  1.00  0.00     0.170 A 
ATOM     32  C   UNL     1       4.521  -2.592   2.366  1.00  0.00     0.075 A 
ATOM     33  C   UNL     1       6.010  -3.688   4.489  1.00  0.00     0.200 A 
ATOM     34  C   UNL     1       4.642  -3.987   2.565  1.00  0.00     0.066 A 
ATOM     35  C   UNL     1       5.340  -4.531   3.623  1.00  0.00     0.162 A 
BRANCH  31  36
ATOM     36  O   UNL     1       6.696  -1.542   5.151  1.00  0.00    -0.504 OA
ATOM     37  H   UNL     1       7.301  -1.902   5.815  1.00  0.00     0.293 HD
ENDBRANCH  31  36
BRANCH  32  38
ATOM     38  C   UNL     1       3.880  -2.325   1.067  1.00  0.00     0.339 C 
ATOM     39  O   UNL     1       2.861  -2.943   0.780  1.00  0.00    -0.246 OA
BRANCH  38  40
ATOM     40  O   UNL     1       4.608  -1.716   0.075  1.00  0.00    -0.458 OA
BRANCH  40  41
ATOM     41  C   UNL     1       4.232  -1.685  -1.268  1.00  0.00     0.282 CG0
ATOM     42  G   UNL     1       3.491  -0.371  -1.631  1.00  0.00     0.000 G0
ENDBRANCH  40  41
ENDBRANCH  38  40
ENDBRANCH  32  38
BRANCH  33  43
ATOM     43  O   UNL     1       6.775  -4.205   5.477  1.00  0.00    -0.502 OA
ATOM     44  H   UNL     1       6.875  -5.155   5.630  1.00  0.00     0.293 HD
ENDBRANCH  33  43
BRANCH  35  45
ATOM     45  O   UNL     1       5.420  -5.871   3.774  1.00  0.00    -0.504 OA
ATOM     46  H   UNL     1       4.964  -6.489   3.184  1.00  0.00     0.293 HD
ENDBRANCH  35  45
ENDBRANCH  25  30
BRANCH  27  47
ATOM     47  O   UNL     1       4.842  -0.323   5.905  1.00  0.00    -0.504 OA
ATOM     48  H   UNL     1       4.852  -0.007   6.820  1.00  0.00     0.293 HD
ENDBRANCH  27  47
BRANCH  28  49
ATOM     49  O   UNL     1       4.944   4.090   4.236  1.00  0.00    -0.504 OA
ATOM     50  H   UNL     1       4.900   4.743   3.521  1.00  0.00     0.293 HD
ENDBRANCH  28  49
BRANCH  29  51
ATOM     51  O   UNL     1       5.056   2.320   6.326  1.00  0.00    -0.502 OA
ATOM     52  H   UNL     1       5.109   3.260   6.551  1.00  0.00     0.293 HD
ENDBRANCH  29  51
ENDBRANCH  22  24
ENDBRANCH  21  22
ENDBRANCH   3  21
ENDBRANCH   1   3
BRANCH   1  53
ATOM     53  O   UNL     1       1.642   2.190  -0.697  1.00  0.00    -0.451 OA
BRANCH  53  54
ATOM     54  C   UNL     1       1.712   3.251  -1.550  1.00  0.00     0.339 C 
ATOM     55  O   UNL     1       2.110   3.079  -2.692  1.00  0.00    -0.246 OA
BRANCH  54  56
ATOM     56  C   UNL     1       1.591   4.660  -0.984  1.00  0.00     0.075 A 
ATOM     57  C   UNL     1       2.706   5.499  -1.105  1.00  0.00     0.066 A 
ATOM     58  C   UNL     1       0.390   5.203  -0.386  1.00  0.00     0.047 A 
ATOM     59  C   UNL     1       2.682   6.817  -0.627  1.00  0.00     0.162 A 
ATOM     60  C   UNL     1       0.373   6.527   0.091  1.00  0.00     0.170 A 
ATOM     61  C   UNL     1       1.522   7.329  -0.020  1.00  0.00     0.200 A 
BRANCH  58  62
ATOM     62  C   UNL     1      -0.860   4.403  -0.482  1.00  0.00     0.047 A 
ATOM     63  C   UNL     1      -1.904   4.817  -1.362  1.00  0.00     0.170 A 
ATOM     64  C   UNL     1      -0.863   3.106   0.037  1.00  0.00     0.079 A 
ATOM     65  C   UNL     1      -2.891   3.896  -1.754  1.00  0.00     0.201 A 
ATOM     66  C   UNL     1      -1.719   2.158  -0.539  1.00  0.00     0.025 A 
ATOM     67  C   UNL     1       0.047   2.653   1.148  1.00  0.00     0.339 C 
ATOM     68  C   UNL     1      -2.761   2.551  -1.393  1.00  0.00     0.166 A 
ATOM     69  C   UNL     1      -1.382   0.700  -0.363  1.00  0.00     0.107 C 
ATOM     70  O   UNL     1       0.608   3.451   1.884  1.00  0.00    -0.246 OA
ATOM     71  O   UNL     1       0.240   1.319   1.323  1.00  0.00    -0.454 OA
ATOM     72  C   UNL     1       0.064   0.513   0.216  1.00  0.00     0.234 CG1
ATOM     73  G   UNL     1       1.246   0.854  -0.834  1.00  0.00     0.000 G1
BRANCH  63  74
ATOM     74  O   UNL     1      -1.950   6.051  -1.914  1.00  0.00    -0.504 OA
ATOM     75  H   UNL     1      -1.291   6.743  -1.794  1.00  0.00     0.293 HD
ENDBRANCH  63  74
BRANCH  65  76
ATOM     76  O   UNL     1      -3.902   4.266  -2.572  1.00  0.00    -0.502 OA
ATOM     77  H   UNL     1      -4.035   5.175  -2.873  1.00  0.00     0.293 HD
ENDBRANCH  65  76
BRANCH  68  78
ATOM     78  O   UNL     1      -3.608   1.621  -1.890  1.00  0.00    -0.504 OA
ATOM     79  H   UNL     1      -4.341   1.833  -2.484  1.00  0.00     0.293 HD
ENDBRANCH  68  78
BRANCH  69  80
ATOM     80  C   UNL     1      -2.521  -0.169   0.218  1.00  0.00     0.048 A 
ATOM     81  C   UNL     1      -3.075  -0.011   1.521  1.00  0.00     0.126 A 
ATOM     82  C   UNL     1      -3.076  -1.179  -0.629  1.00  0.00     0.130 A 
ATOM     83  C   UNL     1      -4.143  -0.817   1.935  1.00  0.00     0.093 A 
ATOM     84  C   UNL     1      -4.149  -1.983  -0.189  1.00  0.00     0.039 A 
ATOM     85  C   UNL     1      -4.698  -1.774   1.089  1.00  0.00     0.131 A 
ATOM     86  C   UNL     1      -4.753  -3.041  -1.099  1.00  0.00     0.079 C 
ATOM     87  O   UNL     1      -5.794  -2.474   1.491  1.00  0.00    -0.482 OA
ATOM     88  C   UNL     1      -5.739  -3.959  -0.357  1.00  0.00     0.164 C 
ATOM     89  C   UNL     1      -6.618  -3.117   0.578  1.00  0.00     0.232 C 
BRANCH  81  90
ATOM     90  O   UNL     1      -2.648   0.918   2.397  1.00  0.00    -0.507 OA
ATOM     91  H   UNL     1      -1.978   1.576   2.207  1.00  0.00     0.293 HD
ENDBRANCH  81  90
BRANCH  82  92
ATOM     92  O   UNL     1      -2.573  -1.357  -1.876  1.00  0.00    -0.507 OA
ATOM     93  H   UNL     1      -2.901  -1.998  -2.525  1.00  0.00     0.293 HD
ENDBRANCH  82  92
BRANCH  88  94
ATOM     94  O   UNL     1      -6.493  -4.719  -1.269  1.00  0.00    -0.389 OA
ATOM     95  H   UNL     1      -7.063  -4.088  -1.783  1.00  0.00     0.211 HD
ENDBRANCH  88  94
BRANCH  89  96
ATOM     96  C   UNL     1      -7.657  -3.955   1.287  1.00  0.00    -0.001 A 
ATOM     97  C   UNL     1      -9.022  -3.693   1.080  1.00  0.00     0.012 A 
ATOM     98  C   UNL     1      -7.285  -5.009   2.140  1.00  0.00     0.057 A 
ATOM     99  C   UNL     1      -9.996  -4.473   1.707  1.00  0.00     0.050 A 
ATOM    100  C   UNL     1      -8.258  -5.796   2.768  1.00  0.00     0.157 A 
ATOM    101  C   UNL     1      -9.623  -5.528   2.550  1.00  0.00     0.157 A 
BRANCH 100 102
ATOM    102  O   UNL     1      -7.864  -6.806   3.571  1.00  0.00    -0.504 OA
ATOM    103  H   UNL     1      -8.489  -7.389   4.024  1.00  0.00     0.293 HD
ENDBRANCH 100 102
BRANCH 101 104
ATOM    104  O   UNL     1     -10.566  -6.285   3.149  1.00  0.00    -0.504 OA
ATOM    105  H   UNL     1     -11.512  -6.129   3.015  1.00  0.00     0.293 HD
ENDBRANCH 101 104
ENDBRANCH  89  96
ENDBRANCH  69  80
ENDBRANCH  58  62
BRANCH  59 106
ATOM    106  O   UNL     1       3.772   7.601  -0.757  1.00  0.00    -0.504 OA
ATOM    107  H   UNL     1       4.583   7.292  -1.185  1.00  0.00     0.293 HD
ENDBRANCH  59 106
BRANCH  60 108
ATOM    108  O   UNL     1      -0.761   7.021   0.639  1.00  0.00    -0.504 OA
ATOM    109  H   UNL     1      -0.836   7.924   0.976  1.00  0.00     0.293 HD
ENDBRANCH  60 108
BRANCH  61 110
ATOM    110  O   UNL     1       1.488   8.601   0.436  1.00  0.00    -0.502 OA
ATOM    111  H   UNL     1       2.239   9.205   0.369  1.00  0.00     0.293 HD
ENDBRANCH  61 110
ENDBRANCH  54  56
ENDBRANCH  53  54
ENDBRANCH   1  53
TORSDOF 26
