REMARK SMILES C=C(C)[C@H]1CC[C@]2(C1)[C@@H](CO)C[C@@H](O)C[C@H]2C
REMARK SMILES IDX 4 1 5 2 6 3 7 4 8 5 9 6 12 7 13 8 15 9 16 10 17 11 2 12 1 13
REMARK SMILES IDX 3 14 10 15 11 16 14 18
REMARK H PARENT 11 17 14 19
ROOT
ATOM      1  C   UNL     1       2.132  -0.332  -0.061  1.00  0.00     0.015 C 
ATOM      2  C   UNL     1       1.807  -0.850   1.339  1.00  0.00     0.008 C 
ATOM      3  C   UNL     1       0.326  -1.178   1.229  1.00  0.00     0.008 C 
ATOM      4  C   UNL     1      -0.292  -0.131   0.218  1.00  0.00    -0.021 C 
ATOM      5  C   UNL     1       0.981   0.649  -0.238  1.00  0.00     0.015 C 
ATOM      6  C   UNL     1      -1.307   0.801   0.971  1.00  0.00     0.024 C 
ATOM      7  C   UNL     1      -2.480  -0.044   1.578  1.00  0.00     0.038 C 
ATOM      8  C   UNL     1      -2.789  -1.364   0.815  1.00  0.00     0.115 C 
ATOM      9  C   UNL     1      -2.540  -1.203  -0.683  1.00  0.00     0.035 C 
ATOM     10  C   UNL     1      -1.030  -0.916  -0.976  1.00  0.00    -0.005 C 
ATOM     11  C   UNL     1      -0.928  -0.288  -2.381  1.00  0.00     0.008 C 
ENDROOT
BRANCH   1  12
ATOM     12  C   UNL     1       3.504   0.314  -0.243  1.00  0.00    -0.077 C 
ATOM     13  C   UNL     1       4.435   0.335   0.731  1.00  0.00     0.008 C 
ATOM     14  C   UNL     1       3.826   0.938  -1.579  1.00  0.00     0.039 C 
ENDBRANCH   1  12
BRANCH   6  15
ATOM     15  C   UNL     1      -1.874   1.973   0.116  1.00  0.00     0.160 C 
BRANCH  15  16
ATOM     16  O   UNL     1      -0.862   2.811  -0.373  1.00  0.00    -0.396 OA
ATOM     17  H   UNL     1      -0.559   3.369   0.390  1.00  0.00     0.210 HD
ENDBRANCH  15  16
ENDBRANCH   6  15
BRANCH   8  18
ATOM     18  O   UNL     1      -4.096  -1.803   1.091  1.00  0.00    -0.393 OA
ATOM     19  H   UNL     1      -4.722  -1.137   0.704  1.00  0.00     0.210 HD
ENDBRANCH   8  18
TORSDOF 4
