REMARK SMILES CC(C)NC(=O)N1CC2(C1)CN(C(=O)c1ccccc1)C[C@@H]1COCCN12
REMARK SMILES IDX 4 1 5 2 6 3 7 4 8 5 9 6 10 7 11 8 12 9 21 10 22 11 23 12
REMARK SMILES IDX 24 13 25 14 26 15 27 16 2 18 1 19 3 20 13 21 14 22 15 23
REMARK SMILES IDX 16 24 20 25 17 26 19 27 18 28
REMARK H PARENT 4 17
ROOT
ATOM      1  N   UNL     1       3.979   0.938   0.426  1.00  0.00    -0.336 N 
ATOM      2  C   UNL     1       3.645   0.019  -0.526  1.00  0.00     0.317 C 
ATOM      3  O   UNL     1       4.494  -0.436  -1.279  1.00  0.00    -0.249 OA
ATOM      4  N   UNL     1       2.357  -0.388  -0.659  1.00  0.00    -0.321 N 
ATOM      5  C   UNL     1       1.151  -0.045   0.038  1.00  0.00     0.147 C 
ATOM      6  C   UNL     1       0.362  -0.961  -0.919  1.00  0.00     0.075 C 
ATOM      7  C   UNL     1       1.724  -1.302  -1.566  1.00  0.00     0.147 C 
ATOM      8  C   UNL     1      -0.600  -0.179  -1.845  1.00  0.00     0.146 C 
ATOM      9  N   UNL     1      -1.865   0.078  -1.132  1.00  0.00    -0.335 N 
ATOM     10  C   UNL     1      -2.517  -1.085  -0.508  1.00  0.00     0.141 C 
ATOM     11  C   UNL     1      -1.680  -2.369  -0.694  1.00  0.00     0.102 C 
ATOM     12  C   UNL     1      -2.244  -3.614   0.031  1.00  0.00     0.181 C 
ATOM     13  O   UNL     1      -1.946  -3.580   1.413  1.00  0.00    -0.378 OA
ATOM     14  C   UNL     1      -0.534  -3.559   1.667  1.00  0.00     0.175 C 
ATOM     15  C   UNL     1       0.354  -3.156   0.464  1.00  0.00     0.114 C 
ATOM     16  N   UNL     1      -0.333  -2.050  -0.197  1.00  0.00    -0.283 NA
ATOM     17  H   UNL     1       3.242   1.302   1.050  1.00  0.00     0.165 HD
ENDROOT
BRANCH   1  18
ATOM     18  C   UNL     1       5.326   1.461   0.598  1.00  0.00     0.077 C 
ATOM     19  C   UNL     1       5.831   1.130   2.004  1.00  0.00     0.030 C 
ATOM     20  C   UNL     1       5.313   2.975   0.372  1.00  0.00     0.030 C 
ENDBRANCH   1  18
BRANCH   9  21
ATOM     21  C   UNL     1      -2.368   1.371  -1.082  1.00  0.00     0.253 C 
ATOM     22  O   UNL     1      -1.722   2.247  -1.644  1.00  0.00    -0.269 OA
BRANCH  21  23
ATOM     23  C   UNL     1      -3.658   1.846  -0.416  1.00  0.00     0.040 A 
ATOM     24  C   UNL     1      -3.986   3.222  -0.565  1.00  0.00     0.014 A 
ATOM     25  C   UNL     1      -4.571   1.058   0.335  1.00  0.00     0.014 A 
ATOM     26  C   UNL     1      -5.142   3.770  -0.006  1.00  0.00     0.001 A 
ATOM     27  C   UNL     1      -5.725   1.619   0.893  1.00  0.00     0.001 A 
ATOM     28  C   UNL     1      -6.011   2.969   0.723  1.00  0.00     0.000 A 
ENDBRANCH  21  23
ENDBRANCH   9  21
TORSDOF 3
