REMARK SMILES C=C(C)[C@@H]1CC[C@]2(C(=O)O)CC[C@]3(COC(=O)/C=C/c4ccc(O)c(O)c4)[C@H](CC[C@@H]4[C@@]5(C)CCC(=O)C(C)(C)[C@@H]5CC[C@]43C)[C@@H]12
REMARK SMILES IDX 15 1 14 2 13 3 4 4 5 5 46 6 6 7 28 8 7 9 29 10 11 11 12 12
REMARK SMILES IDX 44 13 30 14 43 15 31 16 42 17 32 18 41 19 34 20 38 21 35 22
REMARK SMILES IDX 36 23 37 24 45 25 33 26 39 27 40 28 2 29 1 30 3 31 8 32 9 33
REMARK SMILES IDX 10 34 16 36 17 37 18 38 19 39 20 40 21 41 27 42 22 43 25 44
REMARK SMILES IDX 23 45 26 46 24 48
REMARK H PARENT 10 35 26 47 24 49
ROOT
ATOM      1  O   UNL     1       1.708   0.564   0.190  1.00  0.00    -0.462 OA
ENDROOT
BRANCH   1   2
ATOM      2  C   UNL     1       0.578   1.252  -0.208  1.00  0.00     0.241 C 
BRANCH   2   3
ATOM      3  C   UNL     1      -0.613   0.992   0.810  1.00  0.00     0.013 C 
ATOM      4  C   UNL     1      -2.346   4.667   0.497  1.00  0.00     0.019 C 
ATOM      5  C   UNL     1      -1.807   5.801   1.420  1.00  0.00     0.009 C 
ATOM      6  C   UNL     1      -1.369   3.492   0.758  1.00  0.00     0.017 C 
ATOM      7  C   UNL     1      -0.550   5.229   2.102  1.00  0.00     0.020 C 
ATOM      8  C   UNL     1      -1.818   2.003   0.554  1.00  0.00     0.004 C 
ATOM      9  C   UNL     1      -0.872   3.736   2.201  1.00  0.00     0.072 C 
ATOM     10  C   UNL     1      -2.511   1.756  -0.787  1.00  0.00     0.005 C 
ATOM     11  C   UNL     1       0.348   2.813   2.457  1.00  0.00     0.020 C 
ATOM     12  C   UNL     1      -0.057   1.325   2.260  1.00  0.00     0.012 C 
ATOM     13  C   UNL     1      -1.172  -0.549   0.671  1.00  0.00    -0.020 C 
ATOM     14  C   UNL     1      -3.096   0.346  -0.835  1.00  0.00     0.005 C 
ATOM     15  C   UNL     1      -0.014  -1.605   0.617  1.00  0.00     0.008 C 
ATOM     16  C   UNL     1      -1.976  -0.710  -0.700  1.00  0.00     0.002 C 
ATOM     17  C   UNL     1      -0.458  -3.042   0.293  1.00  0.00     0.006 C 
ATOM     18  C   UNL     1      -2.438  -2.179  -1.133  1.00  0.00    -0.025 C 
ATOM     19  C   UNL     1      -1.179  -3.112  -1.084  1.00  0.00     0.008 C 
ATOM     20  C   UNL     1      -2.948  -2.111  -2.631  1.00  0.00     0.015 C 
ATOM     21  C   UNL     1      -1.438  -4.596  -1.600  1.00  0.00     0.027 C 
ATOM     22  C   UNL     1      -2.772  -3.398  -3.469  1.00  0.00     0.077 C 
ATOM     23  C   UNL     1      -2.600  -4.592  -2.592  1.00  0.00     0.138 C 
ATOM     24  O   UNL     1      -3.428  -5.492  -2.620  1.00  0.00    -0.299 OA
ATOM     25  C   UNL     1      -2.051  -0.876   1.922  1.00  0.00     0.012 C 
ATOM     26  C   UNL     1      -3.623  -2.757  -0.292  1.00  0.00     0.012 C 
ATOM     27  C   UNL     1      -0.176  -5.085  -2.352  1.00  0.00     0.020 C 
ATOM     28  C   UNL     1      -1.720  -5.612  -0.462  1.00  0.00     0.020 C 
BRANCH   4  29
ATOM     29  C   UNL     1      -2.541   5.155  -0.948  1.00  0.00    -0.077 C 
ATOM     30  C   UNL     1      -1.827   4.712  -2.002  1.00  0.00     0.008 C 
ATOM     31  C   UNL     1      -3.597   6.206  -1.191  1.00  0.00     0.039 C 
ENDBRANCH   4  29
BRANCH   9  32
ATOM     32  C   UNL     1      -1.912   3.548   3.328  1.00  0.00     0.309 C 
ATOM     33  O   UNL     1      -3.053   3.183   3.095  1.00  0.00    -0.252 OA
BRANCH  32  34
ATOM     34  O   UNL     1      -1.584   3.822   4.610  1.00  0.00    -0.481 OA
ATOM     35  H   UNL     1      -0.708   4.141   4.864  1.00  0.00     0.296 HD
ENDBRANCH  32  34
ENDBRANCH   9  32
ENDBRANCH   2   3
ENDBRANCH   1   2
BRANCH   1  36
ATOM     36  C   UNL     1       2.905   0.572  -0.443  1.00  0.00     0.330 C 
ATOM     37  O   UNL     1       3.090   1.276  -1.427  1.00  0.00    -0.247 OA
BRANCH  36  38
ATOM     38  C   UNL     1       3.974  -0.304   0.081  1.00  0.00     0.094 C 
ATOM     39  C   UNL     1       5.202  -0.364  -0.469  1.00  0.00     0.016 C 
BRANCH  39  40
ATOM     40  C   UNL     1       6.306  -1.240   0.019  1.00  0.00    -0.021 A 
ATOM     41  C   UNL     1       6.167  -2.131   1.103  1.00  0.00     0.012 A 
ATOM     42  C   UNL     1       7.545  -1.175  -0.642  1.00  0.00     0.058 A 
ATOM     43  C   UNL     1       7.239  -2.932   1.504  1.00  0.00     0.051 A 
ATOM     44  C   UNL     1       8.622  -1.973  -0.242  1.00  0.00     0.157 A 
ATOM     45  C   UNL     1       8.470  -2.860   0.841  1.00  0.00     0.157 A 
BRANCH  44  46
ATOM     46  O   UNL     1       9.790  -1.880  -0.907  1.00  0.00    -0.504 OA
ATOM     47  H   UNL     1      10.572  -2.400  -0.673  1.00  0.00     0.293 HD
ENDBRANCH  44  46
BRANCH  45  48
ATOM     48  O   UNL     1       9.504  -3.633   1.232  1.00  0.00    -0.504 OA
ATOM     49  H   UNL     1       9.432  -4.253   1.972  1.00  0.00     0.293 HD
ENDBRANCH  45  48
ENDBRANCH  39  40
ENDBRANCH  36  38
ENDBRANCH   1  36
TORSDOF 10
