REMARK SMILES COCNc1cc2c3c(n1)-n1cc4cc([C@@]56CCOC[C@H]5CCc5ccccc56)cc(c4c1)COc1c(O)ccc4c1CC[C@H](C4)[C@@H](O)C[C@H](CCC[C@H](CCc1ccc(O)c(Cc4cccc(O)c4)c1)C#C2)OC3
REMARK SMILES IDX 5 1 10 2 9 3 8 4 73 5 7 6 6 7 4 8 3 10 2 11 1 12 11 13 12 14
REMARK SMILES IDX 33 15 13 16 32 17 14 18 31 19 15 20 30 21 34 22 35 23 36 24
REMARK SMILES IDX 37 25 42 26 39 27 43 28 41 29 40 30 44 31 46 32 45 33 38 35
REMARK SMILES IDX 16 37 17 38 21 39 29 40 18 41 20 42 22 43 28 44 24 45 19 46
REMARK SMILES IDX 23 47 27 48 25 49 26 50 75 51 74 52 50 53 49 55 47 56 48 58
REMARK SMILES IDX 72 60 54 61 53 62 52 63 51 64 55 66 56 67 57 68 58 69 71 70
REMARK SMILES IDX 59 71 62 72 60 73 63 74 64 75 65 76 70 77 66 78 68 79 67 80
REMARK SMILES IDX 69 81 61 83
REMARK H PARENT 4 9 38 36 48 59 69 82 61 84
REMARK Flexibility Score:  260.800
ROOT
ATOM      1  C   UNL     1       0.652   3.014   1.493  1.00  0.00     0.131 A 
ATOM      2  N   UNL     1      -0.463   2.361   1.087  1.00  0.00    -0.213 NA
ATOM      3  C   UNL     1      -0.490   1.168   0.398  1.00  0.00     0.145 A 
ATOM      4  C   UNL     1       0.780   0.515   0.152  1.00  0.00     0.037 A 
ATOM      5  C   UNL     1       3.252   0.741   0.483  1.00  0.00    -0.066 C 
ATOM      6  C   UNL     1       1.939   1.232   0.610  1.00  0.00     0.037 A 
ATOM      7  C   UNL     1       1.870   2.459   1.236  1.00  0.00     0.064 A 
ENDROOT
BRANCH   1   8
ATOM      8  N   UNL     1       0.598   4.229   2.228  1.00  0.00    -0.347 N 
ATOM      9  H   UNL     1       1.464   4.776   2.363  1.00  0.00     0.164 HD
BRANCH   8  10
ATOM     10  C   UNL     1      -0.528   4.574   3.066  1.00  0.00     0.278 C 
BRANCH  10  11
ATOM     11  O   UNL     1      -0.142   4.504   4.427  1.00  0.00    -0.365 OA
ATOM     12  C   UNL     1       0.214   3.174   4.764  1.00  0.00     0.197 C 
ENDBRANCH  10  11
ENDBRANCH   8  10
ENDBRANCH   1   8
BRANCH   3  13
ATOM     13  N   UNL     1      -1.826   0.759  -0.068  1.00  0.00    -0.307 N 
ATOM     14  C   UNL     1      -2.847   1.629   0.112  1.00  0.00     0.101 A 
ATOM     15  C   UNL     1      -2.382  -0.318  -0.732  1.00  0.00     0.102 A 
ATOM     16  C   UNL     1      -3.981   1.158  -0.450  1.00  0.00     0.001 A 
ATOM     17  C   UNL     1      -3.739  -0.056  -1.001  1.00  0.00     0.006 A 
ATOM     18  C   UNL     1      -5.190   1.796  -0.497  1.00  0.00     0.015 A 
ATOM     19  C   UNL     1      -4.791  -0.729  -1.688  1.00  0.00    -0.001 A 
ATOM     20  C   UNL     1      -6.281   1.205  -1.181  1.00  0.00    -0.036 A 
ATOM     21  C   UNL     1      -6.039  -0.062  -1.787  1.00  0.00     0.012 A 
BRANCH  19  22
ATOM     22  C   UNL     1      -4.679  -2.073  -2.373  1.00  0.00     0.266 C 
BRANCH  22  23
ATOM     23  O   UNL     1      -5.594  -3.003  -1.847  1.00  0.00    -0.485 OA
BRANCH  23  24
ATOM     24  C   UNL     1      -5.245  -4.314  -1.726  1.00  0.00     0.164 A 
ATOM     25  C   UNL     1      -5.708  -5.229  -2.684  1.00  0.00     0.157 A 
ATOM     26  C   UNL     1      -4.307  -4.721  -0.756  1.00  0.00     0.001 A 
ATOM     27  C   UNL     1      -5.183  -6.529  -2.724  1.00  0.00     0.050 A 
ATOM     28  C   UNL     1      -3.812  -3.709   0.268  1.00  0.00     0.040 C 
ATOM     29  C   UNL     1      -3.710  -6.011  -0.867  1.00  0.00    -0.040 A 
ATOM     30  C   UNL     1      -4.159  -6.901  -1.852  1.00  0.00     0.008 A 
ATOM     31  C   UNL     1      -2.439  -4.022   0.842  1.00  0.00     0.011 C 
ATOM     32  C   UNL     1      -2.412  -6.295  -0.114  1.00  0.00     0.042 C 
ATOM     33  C   UNL     1      -1.669  -4.936  -0.130  1.00  0.00     0.022 CG1
ATOM     34  G   UNL     1      -0.144  -4.796   0.117  1.00  0.00     0.000 G1
BRANCH  25  35
ATOM     35  O   UNL     1      -6.614  -4.832  -3.601  1.00  0.00    -0.504 OA
ATOM     36  H   UNL     1      -6.939  -5.425  -4.294  1.00  0.00     0.293 HD
ENDBRANCH  25  35
ENDBRANCH  23  24
ENDBRANCH  22  23
ENDBRANCH  19  22
BRANCH  20  37
ATOM     37  C   UNL     1      -7.662   1.946  -1.247  1.00  0.00     0.028 C 
ATOM     38  C   UNL     1      -8.021   2.289  -2.740  1.00  0.00     0.045 C 
ATOM     39  C   UNL     1      -8.840   1.098  -0.655  1.00  0.00     0.030 C 
ATOM     40  C   UNL     1      -7.548   3.215  -0.371  1.00  0.00    -0.034 A 
ATOM     41  C   UNL     1      -9.208   1.469  -3.284  1.00  0.00     0.161 C 
ATOM     42  C   UNL     1      -9.212  -0.120  -1.552  1.00  0.00     0.165 C 
ATOM     43  C   UNL     1      -8.499   0.663   0.775  1.00  0.00     0.012 C 
ATOM     44  C   UNL     1      -7.056   4.439  -0.889  1.00  0.00     0.005 A 
ATOM     45  C   UNL     1      -7.804   3.130   1.030  1.00  0.00    -0.044 A 
ATOM     46  O   UNL     1      -9.083   0.104  -2.958  1.00  0.00    -0.381 OA
ATOM     47  C   UNL     1      -8.340   1.877   1.696  1.00  0.00     0.036 C 
ATOM     48  C   UNL     1      -6.856   5.540  -0.055  1.00  0.00     0.000 A 
ATOM     49  C   UNL     1      -7.592   4.251   1.847  1.00  0.00     0.004 A 
ATOM     50  C   UNL     1      -7.120   5.446   1.309  1.00  0.00     0.000 A 
ENDBRANCH  20  37
ENDBRANCH   3  13
BRANCH   4  51
ATOM     51  C   UNL     1       0.984  -0.783  -0.671  1.00  0.00     0.201 C 
BRANCH  51  52
ATOM     52  O   UNL     1       1.411  -1.952   0.070  1.00  0.00    -0.373 OA
BRANCH  52  53
ATOM     53  C   UNL     1       1.663  -3.088  -0.813  1.00  0.00     0.121 CG0
ATOM     54  G   UNL     1       2.837  -4.037  -0.331  1.00  0.00     0.000 G0
BRANCH  53  55
ATOM     55  C   UNL     1       0.381  -3.862  -1.022  1.00  0.00     0.064 C 
BRANCH  55  56
ATOM     56  C   UNL     1      -0.144  -4.796   0.117  1.00  0.00     0.120 CG1
ATOM     57  G   UNL     1      -1.669  -4.936  -0.130  1.00  0.00     0.000 G1
BRANCH  56  58
ATOM     58  O   UNL     1       0.525  -6.033   0.113  1.00  0.00    -0.393 OA
ATOM     59  H   UNL     1       0.462  -6.415  -0.801  1.00  0.00     0.210 HD
ENDBRANCH  56  58
ENDBRANCH  55  56
ENDBRANCH  53  55
ENDBRANCH  52  53
ENDBRANCH  51  52
ENDBRANCH   4  51
BRANCH   5  60
ATOM     60  C   UNL     1       4.289   0.190   0.318  1.00  0.00    -0.094 C 
ATOM     61  C   UNL     1       5.195  -0.901  -0.023  1.00  0.00     0.065 C 
BRANCH  61  62
ATOM     62  C   UNL     1       4.213  -2.051   0.026  1.00  0.00     0.017 C 
BRANCH  62  63
ATOM     63  C   UNL     1       4.286  -3.458  -0.481  1.00  0.00     0.004 C 
BRANCH  63  64
ATOM     64  C   UNL     1       2.837  -4.037  -0.331  1.00  0.00     0.032 CG0
ATOM     65  G   UNL     1       1.663  -3.088  -0.813  1.00  0.00     0.000 G0
ENDBRANCH  63  64
ENDBRANCH  62  63
ENDBRANCH  61  62
BRANCH  61  66
ATOM     66  C   UNL     1       6.411  -0.851   0.892  1.00  0.00     0.021 C 
BRANCH  66  67
ATOM     67  C   UNL     1       7.068   0.522   0.705  1.00  0.00     0.037 C 
BRANCH  67  68
ATOM     68  C   UNL     1       8.322   0.676   1.475  1.00  0.00    -0.047 A 
ATOM     69  C   UNL     1       8.320   0.845   2.865  1.00  0.00     0.007 A 
ATOM     70  C   UNL     1       9.514   0.712   0.766  1.00  0.00     0.011 A 
ATOM     71  C   UNL     1       9.527   1.066   3.533  1.00  0.00     0.047 A 
ATOM     72  C   UNL     1      10.723   0.928   1.414  1.00  0.00    -0.001 A 
ATOM     73  C   UNL     1      10.734   1.114   2.814  1.00  0.00     0.119 A 
BRANCH  72  74
ATOM     74  C   UNL     1      11.967   1.051   0.578  1.00  0.00     0.075 C 
BRANCH  74  75
ATOM     75  C   UNL     1      11.940   2.417  -0.061  1.00  0.00    -0.040 A 
ATOM     76  C   UNL     1      12.707   3.442   0.511  1.00  0.00     0.004 A 
ATOM     77  C   UNL     1      11.111   2.714  -1.163  1.00  0.00     0.050 A 
ATOM     78  C   UNL     1      12.640   4.740   0.008  1.00  0.00     0.004 A 
ATOM     79  C   UNL     1      11.048   4.017  -1.671  1.00  0.00     0.115 A 
ATOM     80  C   UNL     1      11.813   5.030  -1.078  1.00  0.00     0.046 A 
BRANCH  79  81
ATOM     81  O   UNL     1      10.242   4.284  -2.719  1.00  0.00    -0.508 OA
ATOM     82  H   UNL     1      10.162   5.174  -3.091  1.00  0.00     0.293 HD
ENDBRANCH  79  81
ENDBRANCH  74  75
ENDBRANCH  72  74
BRANCH  73  83
ATOM     83  O   UNL     1      11.891   1.376   3.455  1.00  0.00    -0.508 OA
ATOM     84  H   UNL     1      11.924   1.560   4.404  1.00  0.00     0.293 HD
ENDBRANCH  73  83
ENDBRANCH  67  68
ENDBRANCH  66  67
ENDBRANCH  61  66
ENDBRANCH   5  60
TORSDOF 13
