REMARK SMILES CC(C)=CCC[C@]12[C@@H]3CC(=O)[C@@H]4C[C@@]3(CC[C@@]1(C)[C@H](C)CC[C@@H]2O)c1ccccc1N4
REMARK SMILES IDX 6 1 5 2 4 3 2 4 1 5 3 6 7 7 8 8 17 9 23 10 9 11 14 12 16 13
REMARK SMILES IDX 19 14 22 15 10 16 13 17 15 18 25 19 21 20 11 21 12 22 26 23
REMARK SMILES IDX 30 24 31 25 27 26 29 27 28 28 18 29 20 30 24 32
REMARK H PARENT 31 31 24 33
ROOT
ATOM      1  C   UNL     1       1.645   0.066  -0.480  1.00  0.00     0.015 C 
ENDROOT
BRANCH   1   2
ATOM      2  C   UNL     1       2.692  -0.999  -0.075  1.00  0.00     0.028 C 
BRANCH   2   3
ATOM      3  C   UNL     1       3.955  -0.740  -0.875  1.00  0.00    -0.028 C 
ATOM      4  C   UNL     1       5.159  -0.416  -0.349  1.00  0.00    -0.080 C 
ATOM      5  C   UNL     1       5.389  -0.317   1.140  1.00  0.00     0.039 C 
ATOM      6  C   UNL     1       6.300  -0.130  -1.292  1.00  0.00     0.039 C 
ENDBRANCH   2   3
ENDBRANCH   1   2
BRANCH   1   7
ATOM      7  C   UNL     1       0.229   0.272   0.253  1.00  0.00     0.006 C 
ATOM      8  C   UNL     1      -0.857  -0.891  -0.147  1.00  0.00     0.016 C 
ATOM      9  C   UNL     1      -0.304   1.783  -0.107  1.00  0.00    -0.022 C 
ATOM     10  C   UNL     1       0.411   0.267   1.831  1.00  0.00     0.121 C 
ATOM     11  C   UNL     1      -0.246  -2.167  -0.816  1.00  0.00     0.083 C 
ATOM     12  C   UNL     1      -2.286  -0.534  -0.801  1.00  0.00     0.004 C 
ATOM     13  C   UNL     1      -1.855   1.875   0.030  1.00  0.00     0.008 C 
ATOM     14  C   UNL     1       0.233   2.918   0.918  1.00  0.00    -0.008 C 
ATOM     15  C   UNL     1       1.472   1.258   2.368  1.00  0.00     0.033 C 
ATOM     16  C   UNL     1      -1.282  -3.130  -1.324  1.00  0.00     0.155 C 
ATOM     17  C   UNL     1      -2.350  -1.099  -2.270  1.00  0.00     0.045 C 
ATOM     18  C   UNL     1      -2.595   0.979  -0.945  1.00  0.00     0.013 C 
ATOM     19  C   UNL     1      -3.416  -1.226   0.051  1.00  0.00    -0.018 A 
ATOM     20  C   UNL     1       1.566   2.580   1.587  1.00  0.00     0.006 C 
ATOM     21  O   UNL     1      -1.225  -4.313  -1.024  1.00  0.00    -0.297 OA
ATOM     22  C   UNL     1      -2.393  -2.623  -2.216  1.00  0.00     0.147 C 
ATOM     23  C   UNL     1      -3.800  -0.738   1.321  1.00  0.00     0.006 A 
ATOM     24  C   UNL     1      -4.082  -2.389  -0.429  1.00  0.00     0.038 A 
ATOM     25  N   UNL     1      -3.668  -2.988  -1.643  1.00  0.00    -0.375 N 
ATOM     26  C   UNL     1      -4.826  -1.345   2.051  1.00  0.00     0.000 A 
ATOM     27  C   UNL     1      -5.120  -2.977   0.306  1.00  0.00     0.026 A 
ATOM     28  C   UNL     1      -5.493  -2.452   1.538  1.00  0.00     0.002 A 
ATOM     29  C   UNL     1       0.067   2.160  -1.587  1.00  0.00     0.012 C 
ATOM     30  C   UNL     1       0.314   4.340   0.320  1.00  0.00     0.008 C 
ATOM     31  H   UNL     1      -4.245  -3.709  -2.098  1.00  0.00     0.161 HD
BRANCH  10  32
ATOM     32  O   UNL     1       0.610  -0.990   2.437  1.00  0.00    -0.393 OA
ATOM     33  H   UNL     1       0.998  -1.618   1.787  1.00  0.00     0.210 HD
ENDBRANCH  10  32
ENDBRANCH   1   7
TORSDOF 4
