REMARK SMILES COc1ccc(C(=O)N2CCC[C@H](c3cccc(C(=O)NCc4cccc(C)c4)c3)C2)cc1
REMARK SMILES IDX 9 1 10 2 11 3 12 4 13 5 31 6 7 7 8 8 6 9 3 10 4 11 33 12
REMARK SMILES IDX 5 13 32 14 2 15 1 16 14 17 15 18 30 19 16 20 18 21 17 22
REMARK SMILES IDX 19 23 20 24 21 25 22 27 23 28 24 29 29 30 25 31 27 32 26 33
REMARK SMILES IDX 28 34
REMARK H PARENT 21 26
ROOT
ATOM      1  N   UNL     1      -3.382   0.352   0.608  1.00  0.00    -0.338 N 
ATOM      2  C   UNL     1      -3.288   0.116  -0.829  1.00  0.00     0.120 C 
ATOM      3  C   UNL     1      -2.301  -1.025  -1.131  1.00  0.00     0.022 C 
ATOM      4  C   UNL     1      -1.094  -1.055  -0.175  1.00  0.00     0.012 C 
ATOM      5  C   UNL     1      -0.847   0.331   0.460  1.00  0.00     0.039 C 
ATOM      6  C   UNL     1      -2.123   0.617   1.323  1.00  0.00     0.128 C 
ENDROOT
BRANCH   1   7
ATOM      7  C   UNL     1      -4.551   0.249   1.337  1.00  0.00     0.253 C 
ATOM      8  O   UNL     1      -4.486   0.298   2.559  1.00  0.00    -0.269 OA
BRANCH   7   9
ATOM      9  C   UNL     1      -5.906  -0.005   0.756  1.00  0.00     0.040 A 
ATOM     10  C   UNL     1      -8.492  -0.575  -0.243  1.00  0.00     0.118 A 
ATOM     11  C   UNL     1      -7.643   0.320  -0.924  1.00  0.00     0.047 A 
ATOM     12  C   UNL     1      -8.047  -1.157   0.947  1.00  0.00     0.047 A 
ATOM     13  C   UNL     1      -6.366   0.602  -0.427  1.00  0.00     0.017 A 
ATOM     14  C   UNL     1      -6.777  -0.868   1.448  1.00  0.00     0.017 A 
BRANCH  10  15
ATOM     15  O   UNL     1      -9.733  -0.896  -0.690  1.00  0.00    -0.497 OA
ATOM     16  C   UNL     1     -10.323  -0.415  -1.839  1.00  0.00     0.278 C 
ENDBRANCH  10  15
ENDBRANCH   7   9
ENDBRANCH   1   7
BRANCH   5  17
ATOM     17  C   UNL     1       0.453   0.341   1.277  1.00  0.00    -0.042 A 
ATOM     18  C   UNL     1       0.501   0.737   2.631  1.00  0.00     0.004 A 
ATOM     19  C   UNL     1       1.655  -0.070   0.659  1.00  0.00     0.018 A 
ATOM     20  C   UNL     1       1.702   0.716   3.336  1.00  0.00     0.001 A 
ATOM     21  C   UNL     1       2.872  -0.126   1.374  1.00  0.00     0.040 A 
ATOM     22  C   UNL     1       2.873   0.287   2.720  1.00  0.00     0.014 A 
BRANCH  21  23
ATOM     23  C   UNL     1       4.148  -0.632   0.771  1.00  0.00     0.251 C 
ATOM     24  O   UNL     1       5.169  -0.574   1.446  1.00  0.00    -0.269 OA
ATOM     25  N   UNL     1       4.204  -1.204  -0.470  1.00  0.00    -0.348 N 
ATOM     26  H   UNL     1       3.361  -1.304  -1.049  1.00  0.00     0.164 HD
BRANCH  25  27
ATOM     27  C   UNL     1       5.434  -1.753  -1.012  1.00  0.00     0.152 C 
BRANCH  27  28
ATOM     28  C   UNL     1       6.456  -0.668  -1.221  1.00  0.00    -0.029 A 
ATOM     29  C   UNL     1       6.209   0.358  -2.146  1.00  0.00     0.005 A 
ATOM     30  C   UNL     1       7.657  -0.668  -0.492  1.00  0.00     0.009 A 
ATOM     31  C   UNL     1       7.150   1.371  -2.341  1.00  0.00     0.001 A 
ATOM     32  C   UNL     1       8.599   0.355  -0.678  1.00  0.00    -0.051 A 
ATOM     33  C   UNL     1       8.341   1.373  -1.609  1.00  0.00     0.003 A 
ATOM     34  C   UNL     1       9.865   0.350   0.127  1.00  0.00     0.044 C 
ENDBRANCH  27  28
ENDBRANCH  25  27
ENDBRANCH  21  23
ENDBRANCH   5  17
TORSDOF 7
