REMARK SMILES CN[C@@H]1CC[C@@]23C[C@]4(CCC[C@@H]14)[C@@H]2[C@@H](O)C[C@]1(C)CCC[C@@]3(O)C1
REMARK SMILES IDX 6 1 7 2 8 3 9 4 10 5 11 6 12 7 13 8 3 9 2 11 1 12 14 14
REMARK SMILES IDX 15 15 16 17 5 19 4 20 22 22 21 23 24 24 20 25 17 26 19 27
REMARK SMILES IDX 18 28 23 30
REMARK H PARENT 2 13 15 16 23 31
REMARK Flexibility Score:    5.800
ROOT
ATOM      1  C   UNL     1      -0.279  -0.464  -0.689  1.00  0.00     0.006 C 
ATOM      2  C   UNL     1       0.648  -1.176   0.324  1.00  0.00     0.018 C 
ATOM      3  C   UNL     1       1.216   0.179   0.725  1.00  0.00    -0.019 C 
ATOM      4  C   UNL     1       1.500   0.387   2.220  1.00  0.00     0.008 C 
ATOM      5  C   UNL     1       2.728  -0.477   2.399  1.00  0.00     0.001 C 
ATOM      6  C   UNL     1       3.588  -0.152   1.176  1.00  0.00     0.006 C 
ATOM      7  C   UNL     1       2.621   0.417   0.096  1.00  0.00     0.013 C 
ATOM      8  C   UNL     1       0.029   0.913   0.030  1.00  0.00     0.033 C 
ENDROOT
BRANCH   7   9
ATOM      9  C   UNL     1       2.908  -0.070  -1.373  1.00  0.00     0.057 CG0
ATOM     10  G   UNL     1       1.749   0.307  -2.322  1.00  0.00     0.000 G0
BRANCH   9  11
ATOM     11  N   UNL     1       4.129   0.551  -1.948  1.00  0.00    -0.317 NA
ATOM     12  C   UNL     1       5.387   0.270  -1.259  1.00  0.00     0.101 C 
ATOM     13  H   UNL     1       4.249   0.182  -2.921  1.00  0.00     0.122 HD
ENDBRANCH   9  11
ENDBRANCH   7   9
BRANCH   8  14
ATOM     14  C   UNL     1      -1.018   1.673   0.929  1.00  0.00     0.119 C 
BRANCH  14  15
ATOM     15  O   UNL     1      -1.484   2.851   0.315  1.00  0.00    -0.393 OA
ATOM     16  H   UNL     1      -1.525   2.719  -0.665  1.00  0.00     0.210 HD
ENDBRANCH  14  15
BRANCH  14  17
ATOM     17  C   UNL     1      -2.193   0.859   1.473  1.00  0.00     0.039 CG1
ATOM     18  G   UNL     1      -3.335   0.485   0.446  1.00  0.00     0.000 G1
ENDBRANCH  14  17
ENDBRANCH   8  14
BRANCH   1  19
ATOM     19  C   UNL     1       0.409  -0.437  -2.104  1.00  0.00     0.012 C 
BRANCH  19  20
ATOM     20  C   UNL     1       1.749   0.307  -2.322  1.00  0.00     0.020 CG0
ATOM     21  G   UNL     1       2.908  -0.070  -1.373  1.00  0.00     0.000 G0
ENDBRANCH  19  20
ENDBRANCH   1  19
BRANCH   1  22
ATOM     22  C   UNL     1      -1.760  -1.105  -0.800  1.00  0.00     0.071 C 
ATOM     23  C   UNL     1      -2.198  -2.119   0.351  1.00  0.00     0.036 C 
ATOM     24  C   UNL     1      -2.785   0.058  -0.937  1.00  0.00     0.042 C 
ATOM     25  C   UNL     1      -3.716  -2.106   0.530  1.00  0.00     0.004 C 
ATOM     26  C   UNL     1      -3.335   0.485   0.446  1.00  0.00    -0.027 CG1
ATOM     27  C   UNL     1      -4.183  -0.708   1.025  1.00  0.00     0.007 C 
ATOM     28  C   UNL     1      -4.289   1.693   0.260  1.00  0.00     0.011 C 
ATOM     29  G   UNL     1      -2.193   0.859   1.473  1.00  0.00     0.000 G1
BRANCH  22  30
ATOM     30  O   UNL     1      -1.804  -1.850  -2.005  1.00  0.00    -0.389 OA
ATOM     31  H   UNL     1      -2.716  -2.213  -2.146  1.00  0.00     0.211 HD
ENDBRANCH  22  30
ENDBRANCH   1  22
TORSDOF 3
