REMARK SMILES COc1ccc2oc(=O)c(C(=O)OC3CCCCC3)cc2c1
REMARK SMILES IDX 3 1 4 2 5 3 6 4 7 5 8 6 9 7 10 8 20 9 21 10 22 11 2 12 1 13
REMARK SMILES IDX 11 14 12 15 13 16 14 17 15 18 19 19 16 20 18 21 17 22
REMARK H PARENT
ROOT
ATOM      1  C   UNL     1       4.754   0.525   0.766  1.00  0.00     0.119 A 
ATOM      2  C   UNL     1       5.428   0.157  -0.418  1.00  0.00     0.050 A 
ATOM      3  C   UNL     1       4.712  -0.283  -1.532  1.00  0.00     0.052 A 
ATOM      4  C   UNL     1       3.317  -0.363  -1.485  1.00  0.00     0.138 A 
ATOM      5  O   UNL     1       2.649  -0.782  -2.551  1.00  0.00    -0.422 OA
ATOM      6  C   UNL     1       1.324  -0.882  -2.580  1.00  0.00     0.351 A 
ATOM      7  O   UNL     1       0.794  -1.276  -3.604  1.00  0.00    -0.245 OA
ATOM      8  C   UNL     1       0.550  -0.536  -1.446  1.00  0.00     0.146 A 
ATOM      9  C   UNL     1       1.232  -0.089  -0.300  1.00  0.00     0.035 A 
ATOM     10  C   UNL     1       2.630   0.001  -0.311  1.00  0.00     0.022 A 
ATOM     11  C   UNL     1       3.353   0.443   0.809  1.00  0.00     0.058 A 
ENDROOT
BRANCH   1  12
ATOM     12  O   UNL     1       5.412   0.959   1.873  1.00  0.00    -0.497 OA
ATOM     13  C   UNL     1       6.781   1.098   1.990  1.00  0.00     0.278 C 
ENDBRANCH   1  12
BRANCH   8  14
ATOM     14  C   UNL     1      -0.940  -0.633  -1.448  1.00  0.00     0.345 C 
ATOM     15  O   UNL     1      -1.520  -1.023  -2.452  1.00  0.00    -0.246 OA
BRANCH  14  16
ATOM     16  O   UNL     1      -1.654  -0.282  -0.342  1.00  0.00    -0.459 OA
BRANCH  16  17
ATOM     17  C   UNL     1      -3.040  -0.300  -0.252  1.00  0.00     0.177 C 
ATOM     18  C   UNL     1      -3.481  -1.271   0.856  1.00  0.00     0.045 C 
ATOM     19  C   UNL     1      -3.558   1.116   0.053  1.00  0.00     0.045 C 
ATOM     20  C   UNL     1      -5.013  -1.283   0.972  1.00  0.00     0.004 C 
ATOM     21  C   UNL     1      -5.091   1.106   0.168  1.00  0.00     0.004 C 
ATOM     22  C   UNL     1      -5.540   0.130   1.265  1.00  0.00     0.000 C 
ENDBRANCH  16  17
ENDBRANCH  14  16
ENDBRANCH   8  14
TORSDOF 4
