REMARK SMILES OC[C@H]1O[C@@H](Oc2cc(O)c3cc(O[C@@H]4O[C@H](CO)[C@@H](O)[C@H](O)[C@H]4O)c(-c4cc(O)c(O)c(O[C@@H]5O[C@H](CO)[C@@H](O)[C@H](O)[C@H]5O)c4)[o+]c3c2)[C@H](O)[C@@H](O)[C@@H]1O
REMARK SMILES IDX 7 1 8 2 9 3 11 4 12 5 13 6 26 7 47 8 48 9 49 10 6 11 5 12
REMARK SMILES IDX 3 13 4 14 54 15 52 16 50 17 2 18 1 19 55 21 53 23 51 25
REMARK SMILES IDX 10 27 27 29 28 30 46 31 29 32 33 33 31 34 30 35 34 37 35 38
REMARK SMILES IDX 36 39 44 40 37 41 42 42 40 43 45 44 38 46 39 47 43 49 41 51
REMARK SMILES IDX 32 53 14 55 15 56 16 57 24 58 17 59 22 60 20 61 25 62 18 64
REMARK SMILES IDX 19 65 23 67 21 69
REMARK H PARENT 1 20 55 22 53 24 51 26 10 28 30 36 45 45 39 48 43 50 41 52
REMARK H PARENT 32 54 25 63 19 66 23 68 21 70
ROOT
ATOM      1  C   UNL     1       3.070  -1.944   0.528  1.00  0.00     0.136 A 
ATOM      2  C   UNL     1       3.873  -1.110   1.333  1.00  0.00     0.094 A 
ATOM      3  C   UNL     1       3.421   0.158   1.718  1.00  0.00     0.136 A 
ATOM      4  C   UNL     1       2.158   0.608   1.290  1.00  0.00     0.125 A 
ATOM      5  C   UNL     1       1.653   1.850   1.667  1.00  0.00     0.079 A 
ATOM      6  C   UNL     1       0.381   2.279   1.234  1.00  0.00     0.229 A 
ATOM      7  C   UNL     1      -0.348   1.411   0.359  1.00  0.00     0.402 A 
ATOM      8  O   UNL     1       0.177   0.220   0.051  1.00  0.00    -0.202 OA
ATOM      9  C   UNL     1       1.362  -0.208   0.472  1.00  0.00     0.368 A 
ATOM     10  C   UNL     1       1.819  -1.479   0.099  1.00  0.00     0.163 A 
ENDROOT
BRANCH   1  11
ATOM     11  O   UNL     1       3.456  -3.198   0.165  1.00  0.00    -0.461 OA
BRANCH  11  12
ATOM     12  C   UNL     1       4.679  -3.784   0.439  1.00  0.00     0.339 C 
ATOM     13  C   UNL     1       6.981  -3.612   0.033  1.00  0.00     0.179 C 
ATOM     14  O   UNL     1       5.692  -3.111  -0.297  1.00  0.00    -0.332 OA
ATOM     15  C   UNL     1       7.099  -5.106  -0.375  1.00  0.00     0.177 C 
ATOM     16  C   UNL     1       5.994  -5.918   0.324  1.00  0.00     0.180 C 
ATOM     17  C   UNL     1       4.626  -5.271   0.034  1.00  0.00     0.214 C 
BRANCH  13  18
ATOM     18  C   UNL     1       8.030  -2.774  -0.707  1.00  0.00     0.191 C 
BRANCH  18  19
ATOM     19  O   UNL     1       7.911  -1.430  -0.329  1.00  0.00    -0.394 OA
ATOM     20  H   UNL     1       8.576  -0.933  -0.873  1.00  0.00     0.210 HD
ENDBRANCH  18  19
ENDBRANCH  13  18
BRANCH  15  21
ATOM     21  O   UNL     1       8.369  -5.629  -0.071  1.00  0.00    -0.387 OA
ATOM     22  H   UNL     1       8.511  -5.522   0.906  1.00  0.00     0.211 HD
ENDBRANCH  15  21
BRANCH  16  23
ATOM     23  O   UNL     1       6.019  -7.266  -0.073  1.00  0.00    -0.387 OA
ATOM     24  H   UNL     1       5.851  -7.294  -1.051  1.00  0.00     0.211 HD
ENDBRANCH  16  23
BRANCH  17  25
ATOM     25  O   UNL     1       3.596  -5.947   0.712  1.00  0.00    -0.384 OA
ATOM     26  H   UNL     1       3.769  -5.861   1.687  1.00  0.00     0.211 HD
ENDBRANCH  17  25
ENDBRANCH  11  12
ENDBRANCH   1  11
BRANCH   3  27
ATOM     27  O   UNL     1       4.196   0.941   2.502  1.00  0.00    -0.507 OA
ATOM     28  H   UNL     1       5.068   0.660   2.814  1.00  0.00     0.293 HD
ENDBRANCH   3  27
BRANCH   7  29
ATOM     29  C   UNL     1      -1.686   1.718  -0.257  1.00  0.00     0.091 A 
ATOM     30  C   UNL     1      -2.220   3.018  -0.308  1.00  0.00     0.068 A 
ATOM     31  C   UNL     1      -2.440   0.673  -0.843  1.00  0.00     0.069 A 
ATOM     32  C   UNL     1      -3.464   3.278  -0.891  1.00  0.00     0.162 A 
ATOM     33  C   UNL     1      -3.700   0.925  -1.431  1.00  0.00     0.169 A 
ATOM     34  C   UNL     1      -4.206   2.230  -1.444  1.00  0.00     0.200 A 
BRANCH  32  35
ATOM     35  O   UNL     1      -3.949   4.538  -0.927  1.00  0.00    -0.504 OA
ATOM     36  H   UNL     1      -3.464   5.292  -0.562  1.00  0.00     0.293 HD
ENDBRANCH  32  35
BRANCH  33  37
ATOM     37  O   UNL     1      -4.483  -0.035  -1.988  1.00  0.00    -0.458 OA
BRANCH  37  38
ATOM     38  C   UNL     1      -4.214  -1.353  -2.310  1.00  0.00     0.339 C 
ATOM     39  O   UNL     1      -4.486  -1.503  -3.709  1.00  0.00    -0.332 OA
ATOM     40  C   UNL     1      -5.073  -2.236  -1.374  1.00  0.00     0.214 C 
ATOM     41  C   UNL     1      -5.313  -2.598  -4.100  1.00  0.00     0.179 C 
ATOM     42  C   UNL     1      -5.019  -3.719  -1.777  1.00  0.00     0.180 C 
ATOM     43  C   UNL     1      -4.991  -3.902  -3.318  1.00  0.00     0.177 C 
BRANCH  40  44
ATOM     44  O   UNL     1      -4.721  -2.066  -0.024  1.00  0.00    -0.384 OA
ATOM     45  H   UNL     1      -3.762  -2.307   0.066  1.00  0.00     0.211 HD
ENDBRANCH  40  44
BRANCH  41  46
ATOM     46  C   UNL     1      -6.802  -2.184  -4.155  1.00  0.00     0.191 C 
BRANCH  46  47
ATOM     47  O   UNL     1      -7.582  -3.221  -4.689  1.00  0.00    -0.394 OA
ATOM     48  H   UNL     1      -7.548  -3.128  -5.677  1.00  0.00     0.210 HD
ENDBRANCH  46  47
ENDBRANCH  41  46
BRANCH  42  49
ATOM     49  O   UNL     1      -6.075  -4.430  -1.181  1.00  0.00    -0.387 OA
ATOM     50  H   UNL     1      -6.921  -4.096  -1.578  1.00  0.00     0.211 HD
ENDBRANCH  42  49
BRANCH  43  51
ATOM     51  O   UNL     1      -3.723  -4.373  -3.716  1.00  0.00    -0.387 OA
ATOM     52  H   UNL     1      -3.049  -3.678  -3.500  1.00  0.00     0.211 HD
ENDBRANCH  43  51
ENDBRANCH  37  38
ENDBRANCH  33  37
BRANCH  34  53
ATOM     53  O   UNL     1      -5.414   2.459  -2.006  1.00  0.00    -0.502 OA
ATOM     54  H   UNL     1      -5.817   3.337  -2.051  1.00  0.00     0.293 HD
ENDBRANCH  34  53
ENDBRANCH   7  29
BRANCH   6  55
ATOM     55  O   UNL     1      -0.128   3.478   1.662  1.00  0.00    -0.452 OA
BRANCH  55  56
ATOM     56  C   UNL     1       0.302   4.201   2.780  1.00  0.00     0.339 C 
ATOM     57  O   UNL     1      -0.810   4.706   3.501  1.00  0.00    -0.332 OA
ATOM     58  C   UNL     1       1.335   5.302   2.390  1.00  0.00     0.214 C 
ATOM     59  C   UNL     1      -1.504   5.794   2.880  1.00  0.00     0.179 C 
ATOM     60  C   UNL     1       0.668   6.641   2.003  1.00  0.00     0.180 C 
ATOM     61  C   UNL     1      -0.797   6.414   1.626  1.00  0.00     0.177 C 
BRANCH  58  62
ATOM     62  O   UNL     1       2.274   5.524   3.413  1.00  0.00    -0.384 OA
ATOM     63  H   UNL     1       1.767   5.714   4.246  1.00  0.00     0.211 HD
ENDBRANCH  58  62
BRANCH  59  64
ATOM     64  C   UNL     1      -2.954   5.368   2.602  1.00  0.00     0.191 C 
BRANCH  64  65
ATOM     65  O   UNL     1      -3.721   6.436   2.113  1.00  0.00    -0.394 OA
ATOM     66  H   UNL     1      -3.926   7.017   2.891  1.00  0.00     0.210 HD
ENDBRANCH  64  65
ENDBRANCH  59  64
BRANCH  60  67
ATOM     67  O   UNL     1       1.398   7.306   1.004  1.00  0.00    -0.387 OA
ATOM     68  H   UNL     1       1.315   6.770   0.172  1.00  0.00     0.211 HD
ENDBRANCH  60  67
BRANCH  61  69
ATOM     69  O   UNL     1      -1.413   7.615   1.227  1.00  0.00    -0.387 OA
ATOM     70  H   UNL     1      -1.347   8.257   1.982  1.00  0.00     0.211 HD
ENDBRANCH  61  69
ENDBRANCH  55  56
ENDBRANCH   6  55
TORSDOF 25
