REMARK SMILES C[C@@H](C[C@@H](O)[C@H](O)C(C)(C)O)[C@@H]1CC[C@@]2(C)[C@H]3CC[C@H]4[C@](C)(C(=O)O[C@H]5O[C@@H](CO)[C@@H](O)[C@@H](O)[C@H]5O)[C@@H](O)C[C@@H](O)[C@]45C[C@]35CC[C@]12C
REMARK SMILES IDX 12 1 13 2 14 3 15 4 16 5 17 6 18 7 19 8 20 9 21 10 22 11
REMARK SMILES IDX 37 12 39 13 40 14 42 15 43 16 44 17 45 18 46 19 47 20 48 21
REMARK SMILES IDX 2 22 1 23 3 24 4 25 5 26 6 28 7 29 8 31 9 32 10 33 11 34
REMARK SMILES IDX 41 36 23 38 24 39 25 40 26 41 27 42 35 43 28 44 33 45 31 46
REMARK SMILES IDX 36 47 29 49 30 50 34 52 32 54 38 56
REMARK H PARENT 5 27 7 30 11 35 41 37 36 48 30 51 34 53 32 55 38 57
ROOT
ATOM      1  C   UNL     1      -3.683  -0.750   0.453  1.00  0.00    -0.002 C 
ATOM      2  C   UNL     1      -3.780   0.399   1.489  1.00  0.00     0.005 C 
ATOM      3  C   UNL     1      -2.322   0.696   1.864  1.00  0.00     0.008 C 
ATOM      4  C   UNL     1      -1.627   0.682   0.489  1.00  0.00    -0.024 C 
ATOM      5  C   UNL     1      -2.111   1.995  -0.277  1.00  0.00     0.012 C 
ATOM      6  C   UNL     1      -0.048   0.759   0.419  1.00  0.00     0.002 C 
ATOM      7  C   UNL     1       0.820   0.419   1.674  1.00  0.00     0.005 C 
ATOM      8  C   UNL     1       1.783  -0.747   1.532  1.00  0.00     0.006 C 
ATOM      9  C   UNL     1       2.730  -0.569   0.316  1.00  0.00     0.018 C 
ATOM     10  C   UNL     1       3.894  -1.656   0.300  1.00  0.00     0.095 C 
ATOM     11  C   UNL     1       3.357  -3.069   0.715  1.00  0.00     0.027 C 
ATOM     12  C   UNL     1       4.637  -1.726  -1.108  1.00  0.00     0.134 C 
ATOM     13  C   UNL     1       3.869  -1.147  -2.320  1.00  0.00     0.065 C 
ATOM     14  C   UNL     1       2.365  -1.354  -2.221  1.00  0.00     0.124 C 
ATOM     15  C   UNL     1       1.855  -0.515  -0.992  1.00  0.00     0.007 C 
ATOM     16  C   UNL     1       1.749   0.944  -1.482  1.00  0.00     0.018 C 
ATOM     17  C   UNL     1       0.477   0.260  -0.990  1.00  0.00    -0.017 C 
ATOM     18  C   UNL     1      -0.493  -0.429  -2.035  1.00  0.00     0.008 C 
ATOM     19  C   UNL     1      -1.995  -0.499  -1.683  1.00  0.00     0.008 C 
ATOM     20  C   UNL     1      -2.202  -0.647  -0.141  1.00  0.00    -0.024 C 
ATOM     21  C   UNL     1      -1.476  -1.945   0.346  1.00  0.00     0.012 C 
ENDROOT
BRANCH   1  22
ATOM     22  C   UNL     1      -4.867  -0.909  -0.565  1.00  0.00    -0.008 C 
ATOM     23  C   UNL     1      -4.816  -2.324  -1.198  1.00  0.00     0.008 C 
BRANCH  22  24
ATOM     24  C   UNL     1      -6.256  -0.690   0.115  1.00  0.00     0.038 C 
BRANCH  24  25
ATOM     25  C   UNL     1      -7.454  -0.510  -0.860  1.00  0.00     0.146 C 
BRANCH  25  26
ATOM     26  O   UNL     1      -7.630  -1.633  -1.683  1.00  0.00    -0.390 OA
ATOM     27  H   UNL     1      -7.805  -2.412  -1.093  1.00  0.00     0.211 HD
ENDBRANCH  25  26
BRANCH  25  28
ATOM     28  C   UNL     1      -8.822  -0.201  -0.166  1.00  0.00     0.174 C 
BRANCH  28  29
ATOM     29  O   UNL     1      -9.813  -0.049  -1.157  1.00  0.00    -0.387 OA
ATOM     30  H   UNL     1      -9.526   0.674  -1.772  1.00  0.00     0.211 HD
ENDBRANCH  28  29
BRANCH  28  31
ATOM     31  C   UNL     1      -8.872   1.000   0.850  1.00  0.00     0.087 C 
ATOM     32  C   UNL     1     -10.319   1.207   1.349  1.00  0.00     0.044 C 
ATOM     33  C   UNL     1      -8.385   2.314   0.210  1.00  0.00     0.044 C 
BRANCH  31  34
ATOM     34  O   UNL     1      -8.059   0.738   1.969  1.00  0.00    -0.388 OA
ATOM     35  H   UNL     1      -8.367  -0.109   2.385  1.00  0.00     0.211 HD
ENDBRANCH  31  34
ENDBRANCH  28  31
ENDBRANCH  25  28
ENDBRANCH  24  25
ENDBRANCH  22  24
ENDBRANCH   1  22
BRANCH  14  36
ATOM     36  O   UNL     1       2.095  -2.730  -2.132  1.00  0.00    -0.392 OA
ATOM     37  H   UNL     1       1.266  -2.868  -1.612  1.00  0.00     0.210 HD
ENDBRANCH  14  36
BRANCH  10  38
ATOM     38  C   UNL     1       4.967  -1.237   1.311  1.00  0.00     0.317 C 
ATOM     39  O   UNL     1       5.268  -1.941   2.267  1.00  0.00    -0.251 OA
BRANCH  38  40
ATOM     40  O   UNL     1       5.649  -0.081   1.060  1.00  0.00    -0.432 OA
BRANCH  40  41
ATOM     41  C   UNL     1       6.813   0.351   1.663  1.00  0.00     0.342 C 
ATOM     42  O   UNL     1       7.842   0.260   0.667  1.00  0.00    -0.332 OA
ATOM     43  C   UNL     1       6.603   1.793   2.239  1.00  0.00     0.214 C 
ATOM     44  C   UNL     1       8.745   1.350   0.686  1.00  0.00     0.179 C 
ATOM     45  C   UNL     1       6.675   2.845   1.108  1.00  0.00     0.180 C 
ATOM     46  C   UNL     1       8.015   2.682   0.318  1.00  0.00     0.177 C 
BRANCH  43  47
ATOM     47  O   UNL     1       5.431   1.896   3.010  1.00  0.00    -0.384 OA
ATOM     48  H   UNL     1       4.655   1.792   2.400  1.00  0.00     0.211 HD
ENDBRANCH  43  47
BRANCH  44  49
ATOM     49  C   UNL     1       9.936   1.066  -0.244  1.00  0.00     0.191 C 
BRANCH  49  50
ATOM     50  O   UNL     1      10.579  -0.121   0.132  1.00  0.00    -0.394 OA
ATOM     51  H   UNL     1      11.140   0.096   0.922  1.00  0.00     0.210 HD
ENDBRANCH  49  50
ENDBRANCH  44  49
BRANCH  45  52
ATOM     52  O   UNL     1       5.543   2.781   0.269  1.00  0.00    -0.387 OA
ATOM     53  H   UNL     1       5.555   1.927  -0.229  1.00  0.00     0.211 HD
ENDBRANCH  45  52
BRANCH  46  54
ATOM     54  O   UNL     1       7.808   2.837  -1.067  1.00  0.00    -0.387 OA
ATOM     55  H   UNL     1       7.450   1.981  -1.421  1.00  0.00     0.211 HD
ENDBRANCH  46  54
ENDBRANCH  40  41
ENDBRANCH  38  40
ENDBRANCH  10  38
BRANCH  12  56
ATOM     56  O   UNL     1       5.128  -3.020  -1.374  1.00  0.00    -0.392 OA
ATOM     57  H   UNL     1       4.387  -3.566  -1.742  1.00  0.00     0.210 HD
ENDBRANCH  12  56
TORSDOF 18
