REMARK SMILES C[C@@H]1O[C@@H](O[C@H]2CC[C@]3(C)[C@H](CC[C@]4(C)[C@@H]3CC=C3[C@H]5CC(C)(C)CC[C@]5(C(=O)O)CC[C@@]34C)C2(C)C)[C@H](O)[C@H](O)[C@H]1O[C@@H]1OC[C@H](O)[C@H](O)[C@H]1O[C@@H]1OC[C@H](O)[C@H](O)[C@H]1O[C@@H]1OC[C@@H](O[C@@H]2O[C@H](CO)[C@@H](O)[C@H](O)[C@H]2O)[C@H](O)[C@H]1O
REMARK SMILES IDX 52 1 51 2 44 3 45 4 46 5 49 6 47 7 43 8 42 9 2 10 3 11 4 12
REMARK SMILES IDX 40 13 38 14 1 15 5 16 6 17 7 18 35 19 8 20 11 21 9 22 12 23
REMARK SMILES IDX 16 24 13 25 14 26 17 27 33 28 18 29 32 30 19 31 31 32 20 33
REMARK SMILES IDX 27 34 21 35 26 36 22 37 25 38 36 39 37 40 10 41 15 42 34 43
REMARK SMILES IDX 23 44 24 45 28 46 29 47 30 48 41 50 39 52 50 54 48 56 53 58
REMARK SMILES IDX 54 59 60 60 55 61 58 62 56 63 61 64 62 65 63 66 80 67 64 68
REMARK SMILES IDX 78 69 65 70 81 71 79 73 66 75 67 76 68 77 76 78 69 79 74 80
REMARK SMILES IDX 72 81 77 82 70 84 71 85 75 87 73 89 59 91 57 93
REMARK H PARENT 30 49 41 51 39 53 50 55 48 57 81 72 79 74 77 83 71 86 75 88
REMARK H PARENT 73 90 59 92 57 94
ROOT
ATOM      1  O   UNL     1       5.541  -1.606   0.865  1.00  0.00    -0.338 OA
ENDROOT
BRANCH   1   2
ATOM      2  C   UNL     1       4.824  -0.596   0.161  1.00  0.00     0.209 C 
ATOM      3  C   UNL     1       3.609  -0.171   1.022  1.00  0.00     0.282 C 
ATOM      4  O   UNL     1       4.043   0.260   2.308  1.00  0.00    -0.347 OA
ATOM      5  C   UNL     1       4.863   1.417   2.223  1.00  0.00     0.198 C 
ATOM      6  C   UNL     1       5.763   0.612  -0.023  1.00  0.00     0.179 C 
ATOM      7  C   UNL     1       6.136   1.145   1.386  1.00  0.00     0.171 C 
BRANCH   3   8
ATOM      8  O   UNL     1       2.865   0.862   0.377  1.00  0.00    -0.341 OA
BRANCH   8   9
ATOM      9  C   UNL     1       1.510   0.536   0.104  1.00  0.00     0.181 C 
ATOM     10  C   UNL     1       0.563   1.175   1.190  1.00  0.00     0.150 C 
ATOM     11  O   UNL     1      -0.797   1.371   0.773  1.00  0.00    -0.344 OA
ATOM     12  C   UNL     1      -1.172   0.496  -0.270  1.00  0.00     0.282 C 
ATOM     13  C   UNL     1       1.094   1.171  -1.241  1.00  0.00     0.180 C 
ATOM     14  C   UNL     1      -0.401   0.848  -1.567  1.00  0.00     0.202 C 
ATOM     15  C   UNL     1       0.582   0.403   2.508  1.00  0.00     0.041 C 
BRANCH  12  16
ATOM     16  O   UNL     1      -2.590   0.553  -0.478  1.00  0.00    -0.346 OA
BRANCH  16  17
ATOM     17  C   UNL     1      -3.278  -0.485   0.230  1.00  0.00     0.127 C 
ATOM     18  C   UNL     1      -3.807   0.097   1.576  1.00  0.00     0.033 C 
ATOM     19  C   UNL     1      -4.362  -1.191  -0.695  1.00  0.00    -0.006 C 
ATOM     20  C   UNL     1      -5.155   0.870   1.464  1.00  0.00     0.010 C 
ATOM     21  C   UNL     1      -5.709  -0.367  -0.635  1.00  0.00     0.003 C 
ATOM     22  C   UNL     1      -6.248  -0.034   0.832  1.00  0.00    -0.025 C 
ATOM     23  C   UNL     1      -6.879  -0.837  -1.524  1.00  0.00     0.005 C 
ATOM     24  C   UNL     1      -7.721   0.584   0.733  1.00  0.00     0.006 C 
ATOM     25  C   UNL     1      -7.962   0.286  -1.734  1.00  0.00     0.008 C 
ATOM     26  C   UNL     1      -8.145   1.351  -0.571  1.00  0.00    -0.020 C 
ATOM     27  C   UNL     1      -8.364   1.218   1.994  1.00  0.00     0.032 C 
ATOM     28  C   UNL     1      -9.691   1.929  -0.439  1.00  0.00    -0.006 C 
ATOM     29  C   UNL     1      -9.840   0.897   1.825  1.00  0.00    -0.027 C 
ATOM     30  C   UNL     1     -10.442   2.004  -1.827  1.00  0.00     0.013 C 
ATOM     31  C   UNL     1     -10.475   1.125   0.640  1.00  0.00    -0.063 C 
ATOM     32  C   UNL     1     -11.448   0.871  -2.110  1.00  0.00     0.020 C 
ATOM     33  C   UNL     1     -11.758   0.325   0.325  1.00  0.00     0.033 C 
ATOM     34  C   UNL     1     -12.501   0.777  -0.975  1.00  0.00     0.074 C 
ATOM     35  C   UNL     1     -12.761   0.030   1.497  1.00  0.00     0.015 C 
ATOM     36  C   UNL     1     -13.539  -0.325  -1.344  1.00  0.00     0.020 C 
ATOM     37  C   UNL     1     -13.841  -1.023   1.103  1.00  0.00    -0.035 C 
ATOM     38  C   UNL     1     -14.544  -0.573  -0.202  1.00  0.00     0.007 C 
ATOM     39  C   UNL     1      -3.819  -1.193  -2.159  1.00  0.00     0.014 C 
ATOM     40  C   UNL     1      -4.526  -2.702  -0.361  1.00  0.00     0.014 C 
ATOM     41  C   UNL     1      -6.456  -1.292   1.766  1.00  0.00     0.012 C 
ATOM     42  C   UNL     1      -7.208   2.574  -0.855  1.00  0.00     0.012 C 
ATOM     43  C   UNL     1      -9.739   3.416   0.083  1.00  0.00     0.017 C 
ATOM     44  C   UNL     1     -13.220  -2.438   0.941  1.00  0.00     0.011 C 
ATOM     45  C   UNL     1     -14.890  -1.117   2.233  1.00  0.00     0.011 C 
BRANCH  34  46
ATOM     46  C   UNL     1     -13.252   2.122  -0.867  1.00  0.00     0.310 C 
ATOM     47  O   UNL     1     -13.907   2.502  -1.826  1.00  0.00    -0.252 OA
BRANCH  46  48
ATOM     48  O   UNL     1     -13.205   2.928   0.217  1.00  0.00    -0.481 OA
ATOM     49  H   UNL     1     -12.648   2.778   0.988  1.00  0.00     0.296 HD
ENDBRANCH  46  48
ENDBRANCH  34  46
ENDBRANCH  16  17
ENDBRANCH  12  16
BRANCH  13  50
ATOM     50  O   UNL     1       1.951   0.835  -2.306  1.00  0.00    -0.387 OA
ATOM     51  H   UNL     1       2.111  -0.143  -2.268  1.00  0.00     0.211 HD
ENDBRANCH  13  50
BRANCH  14  52
ATOM     52  O   UNL     1      -0.529  -0.206  -2.492  1.00  0.00    -0.385 OA
ATOM     53  H   UNL     1      -0.098  -1.010  -2.103  1.00  0.00     0.211 HD
ENDBRANCH  14  52
ENDBRANCH   8   9
ENDBRANCH   3   8
BRANCH   6  54
ATOM     54  O   UNL     1       5.173   1.577  -0.869  1.00  0.00    -0.387 OA
ATOM     55  H   UNL     1       4.787   2.316  -0.335  1.00  0.00     0.211 HD
ENDBRANCH   6  54
BRANCH   7  56
ATOM     56  O   UNL     1       6.980   2.267   1.312  1.00  0.00    -0.388 OA
ATOM     57  H   UNL     1       6.425   3.056   1.085  1.00  0.00     0.211 HD
ENDBRANCH   7  56
ENDBRANCH   1   2
BRANCH   1  58
ATOM     58  C   UNL     1       5.846  -2.752   0.088  1.00  0.00     0.282 C 
ATOM     59  O   UNL     1       4.896  -3.788   0.376  1.00  0.00    -0.347 OA
ATOM     60  C   UNL     1       7.353  -3.152   0.312  1.00  0.00     0.209 C 
ATOM     61  C   UNL     1       5.374  -4.661   1.377  1.00  0.00     0.198 C 
ATOM     62  C   UNL     1       7.472  -4.636  -0.075  1.00  0.00     0.179 C 
ATOM     63  C   UNL     1       6.563  -5.498   0.847  1.00  0.00     0.171 C 
BRANCH  60  64
ATOM     64  O   UNL     1       8.188  -2.338  -0.515  1.00  0.00    -0.338 OA
BRANCH  64  65
ATOM     65  C   UNL     1       9.188  -1.611   0.195  1.00  0.00     0.282 C 
ATOM     66  O   UNL     1       9.041  -0.237  -0.184  1.00  0.00    -0.347 OA
ATOM     67  C   UNL     1      10.598  -2.215  -0.189  1.00  0.00     0.202 C 
ATOM     68  C   UNL     1      10.234   0.493  -0.005  1.00  0.00     0.198 C 
ATOM     69  C   UNL     1      11.130  -1.445  -1.402  1.00  0.00     0.179 C 
ATOM     70  C   UNL     1      11.344   0.044  -0.993  1.00  0.00     0.179 C 
BRANCH  67  71
ATOM     71  O   UNL     1      11.560  -2.140   0.844  1.00  0.00    -0.385 OA
ATOM     72  H   UNL     1      11.178  -1.714   1.651  1.00  0.00     0.211 HD
ENDBRANCH  67  71
BRANCH  69  73
ATOM     73  O   UNL     1      10.237  -1.596  -2.488  1.00  0.00    -0.387 OA
ATOM     74  H   UNL     1       9.610  -0.828  -2.522  1.00  0.00     0.211 HD
ENDBRANCH  69  73
BRANCH  70  75
ATOM     75  O   UNL     1      12.594   0.146  -0.324  1.00  0.00    -0.341 OA
BRANCH  75  76
ATOM     76  C   UNL     1      13.286   1.362  -0.547  1.00  0.00     0.282 C 
ATOM     77  O   UNL     1      14.631   1.047  -0.849  1.00  0.00    -0.341 OA
ATOM     78  C   UNL     1      13.230   2.237   0.741  1.00  0.00     0.202 C 
ATOM     79  C   UNL     1      15.342   2.188  -1.339  1.00  0.00     0.178 C 
ATOM     80  C   UNL     1      14.463   3.197   0.833  1.00  0.00     0.179 C 
ATOM     81  C   UNL     1      14.988   3.521  -0.581  1.00  0.00     0.177 C 
BRANCH  78  82
ATOM     82  O   UNL     1      12.014   2.940   0.802  1.00  0.00    -0.385 OA
ATOM     83  H   UNL     1      11.988   3.581   0.046  1.00  0.00     0.211 HD
ENDBRANCH  78  82
BRANCH  79  84
ATOM     84  C   UNL     1      16.850   1.872  -1.323  1.00  0.00     0.191 C 
BRANCH  84  85
ATOM     85  O   UNL     1      17.331   1.594  -0.036  1.00  0.00    -0.394 OA
ATOM     86  H   UNL     1      17.791   2.412   0.287  1.00  0.00     0.210 HD
ENDBRANCH  84  85
ENDBRANCH  79  84
BRANCH  80  87
ATOM     87  O   UNL     1      15.501   2.645   1.613  1.00  0.00    -0.387 OA
ATOM     88  H   UNL     1      15.465   1.655   1.566  1.00  0.00     0.211 HD
ENDBRANCH  80  87
BRANCH  81  89
ATOM     89  O   UNL     1      13.977   4.207  -1.276  1.00  0.00    -0.387 OA
ATOM     90  H   UNL     1      14.399   4.604  -2.082  1.00  0.00     0.211 HD
ENDBRANCH  81  89
ENDBRANCH  75  76
ENDBRANCH  70  75
ENDBRANCH  64  65
ENDBRANCH  60  64
BRANCH  62  91
ATOM     91  O   UNL     1       8.794  -5.116  -0.094  1.00  0.00    -0.387 OA
ATOM     92  H   UNL     1       9.213  -4.870   0.772  1.00  0.00     0.211 HD
ENDBRANCH  62  91
BRANCH  63  93
ATOM     93  O   UNL     1       7.263  -6.050   1.937  1.00  0.00    -0.388 OA
ATOM     94  H   UNL     1       7.636  -5.305   2.473  1.00  0.00     0.211 HD
ENDBRANCH  63  93
ENDBRANCH   1  58
TORSDOF 25
