REMARK SMILES CC[C@@H](C)C(=O)O[C@@H]1OC[C@@]23[C@H]4C(=O)[C@@H](O)[C@@]5(C)[C@H](c6ccoc6)C[C@H]6O[C@]65[C@]4(C)[C@H](O)C[C@H]2[C@]1(C)[C@H](OC(C)=O)[C@H](OC(C)=O)[C@@H]3O
REMARK SMILES IDX 7 1 5 2 6 3 3 4 4 5 2 6 1 7 8 8 9 9 35 10 10 11 34 12 37 13
REMARK SMILES IDX 11 14 33 15 42 16 12 17 47 18 31 19 13 20 29 21 14 22 15 23
REMARK SMILES IDX 28 24 17 25 27 26 26 27 19 28 25 29 36 30 30 31 18 32 38 33
REMARK SMILES IDX 39 34 41 35 40 36 43 37 44 38 46 39 45 40 48 41 32 43 16 45
REMARK SMILES IDX 20 47 24 48 21 49 23 50 22 51
REMARK H PARENT 48 42 32 44 16 46
ROOT
ATOM      1  O   UNL     1      -3.864  -0.350   1.565  1.00  0.00    -0.435 OA
ENDROOT
BRANCH   1   2
ATOM      2  C   UNL     1      -4.544  -1.342   2.218  1.00  0.00     0.310 C 
ATOM      3  O   UNL     1      -3.939  -2.277   2.729  1.00  0.00    -0.252 OA
BRANCH   2   4
ATOM      4  C   UNL     1      -6.056  -1.292   2.304  1.00  0.00     0.096 C 
ATOM      5  C   UNL     1      -6.596  -2.478   3.131  1.00  0.00     0.020 C 
BRANCH   4   6
ATOM      6  C   UNL     1      -6.639  -1.278   0.873  1.00  0.00     0.011 C 
ATOM      7  C   UNL     1      -8.163  -1.158   0.833  1.00  0.00     0.005 C 
ENDBRANCH   4   6
ENDBRANCH   2   4
ENDBRANCH   1   2
BRANCH   1   8
ATOM      8  C   UNL     1      -2.496  -0.379   1.322  1.00  0.00     0.320 C 
ATOM      9  O   UNL     1      -1.884   0.699   1.998  1.00  0.00    -0.341 OA
ATOM     10  C   UNL     1      -2.190  -0.327  -0.212  1.00  0.00     0.075 C 
ATOM     11  C   UNL     1      -0.473   0.592   1.937  1.00  0.00     0.175 C 
ATOM     12  C   UNL     1      -0.648  -0.570  -0.388  1.00  0.00     0.020 C 
ATOM     13  C   UNL     1      -2.568   1.069  -0.853  1.00  0.00     0.232 C 
ATOM     14  C   UNL     1       0.105   0.520   0.466  1.00  0.00     0.038 C 
ATOM     15  C   UNL     1      -0.182  -2.042  -0.113  1.00  0.00     0.037 C 
ATOM     16  C   UNL     1      -1.707   2.256  -0.322  1.00  0.00     0.247 C 
ATOM     17  C   UNL     1       1.672   0.200   0.433  1.00  0.00     0.082 C 
ATOM     18  C   UNL     1      -0.186   1.913  -0.243  1.00  0.00     0.168 C 
ATOM     19  C   UNL     1       1.357  -2.246  -0.213  1.00  0.00     0.124 C 
ATOM     20  C   UNL     1       2.623   1.198   1.110  1.00  0.00     0.166 C 
ATOM     21  C   UNL     1       2.116  -1.296   0.759  1.00  0.00     0.036 C 
ATOM     22  O   UNL     1       2.188   2.130   1.766  1.00  0.00    -0.296 OA
ATOM     23  C   UNL     1       4.149   1.030   1.012  1.00  0.00     0.190 C 
ATOM     24  C   UNL     1       3.691  -1.410   0.538  1.00  0.00     0.112 C 
ATOM     25  C   UNL     1       4.565  -0.193   0.126  1.00  0.00     0.040 C 
ATOM     26  O   UNL     1       4.263  -2.152   1.623  1.00  0.00    -0.365 OA
ATOM     27  C   UNL     1       4.503  -2.641   0.343  1.00  0.00     0.153 C 
ATOM     28  C   UNL     1       6.016  -0.742   0.360  1.00  0.00     0.037 C 
ATOM     29  C   UNL     1       5.904  -2.216  -0.105  1.00  0.00     0.044 C 
ATOM     30  C   UNL     1      -3.017  -1.429  -0.926  1.00  0.00     0.022 C 
ATOM     31  C   UNL     1       1.797  -1.750   2.228  1.00  0.00     0.018 C 
ATOM     32  C   UNL     1       4.435   0.150  -1.399  1.00  0.00     0.018 C 
BRANCH  13  33
ATOM     33  O   UNL     1      -2.437   1.001  -2.235  1.00  0.00    -0.458 OA
BRANCH  33  34
ATOM     34  C   UNL     1      -3.440   1.198  -3.135  1.00  0.00     0.303 C 
ATOM     35  O   UNL     1      -4.580   1.451  -2.769  1.00  0.00    -0.253 OA
ATOM     36  C   UNL     1      -3.149   1.111  -4.597  1.00  0.00     0.139 C 
ENDBRANCH  33  34
ENDBRANCH  13  33
BRANCH  16  37
ATOM     37  O   UNL     1      -1.893   3.375  -1.123  1.00  0.00    -0.456 OA
BRANCH  37  38
ATOM     38  C   UNL     1      -2.391   4.578  -0.732  1.00  0.00     0.303 C 
ATOM     39  O   UNL     1      -2.747   4.773   0.421  1.00  0.00    -0.253 OA
ATOM     40  C   UNL     1      -2.497   5.686  -1.731  1.00  0.00     0.139 C 
ENDBRANCH  37  38
ENDBRANCH  16  37
BRANCH  18  41
ATOM     41  O   UNL     1       0.441   1.989  -1.508  1.00  0.00    -0.388 OA
ATOM     42  H   UNL     1      -0.163   1.650  -2.212  1.00  0.00     0.211 HD
ENDBRANCH  18  41
BRANCH  19  43
ATOM     43  O   UNL     1       1.831  -2.135  -1.538  1.00  0.00    -0.392 OA
ATOM     44  H   UNL     1       1.452  -1.336  -1.975  1.00  0.00     0.210 HD
ENDBRANCH  19  43
BRANCH  23  45
ATOM     45  O   UNL     1       4.676   0.923   2.313  1.00  0.00    -0.385 OA
ATOM     46  H   UNL     1       4.219   0.174   2.774  1.00  0.00     0.211 HD
ENDBRANCH  23  45
BRANCH  28  47
ATOM     47  C   UNL     1       7.171   0.032  -0.229  1.00  0.00    -0.006 A 
ATOM     48  C   UNL     1       7.522   1.332   0.071  1.00  0.00     0.198 A 
ATOM     49  C   UNL     1       8.095  -0.413  -1.153  1.00  0.00     0.046 A 
ATOM     50  O   UNL     1       8.587   1.667  -0.624  1.00  0.00    -0.472 OA
ATOM     51  C   UNL     1       8.952   0.644  -1.366  1.00  0.00     0.195 A 
ENDBRANCH  28  47
ENDBRANCH   1   8
TORSDOF 12
