REMARK SMILES C=C[C@H](CO)CC[C@@H]1[C@@]2(C)CCCC(C)(C)[C@H]2[C@@H](OC(=O)/C(C)=C\C)C[C@@]1(C)O
REMARK SMILES IDX 7 1 6 2 3 3 2 4 1 5 4 6 5 7 8 9 9 10 27 11 11 12 17 13 26 14
REMARK SMILES IDX 12 15 14 16 18 17 13 18 10 19 28 20 15 21 16 22 29 23 19 25
REMARK SMILES IDX 20 26 21 27 22 28 24 29 23 30 25 31
REMARK H PARENT 5 8 29 24
ROOT
ATOM      1  C   UNL     1       2.272  -0.013   0.596  1.00  0.00     0.008 C 
ENDROOT
BRANCH   1   2
ATOM      2  C   UNL     1       2.806   1.401   0.914  1.00  0.00     0.010 C 
BRANCH   2   3
ATOM      3  C   UNL     1       4.007   1.425   1.912  1.00  0.00     0.037 C 
BRANCH   3   4
ATOM      4  C   UNL     1       4.500   2.835   2.215  1.00  0.00    -0.029 C 
ATOM      5  C   UNL     1       4.058   3.966   1.647  1.00  0.00     0.004 C 
ENDBRANCH   3   4
BRANCH   3   6
ATOM      6  C   UNL     1       5.230   0.600   1.445  1.00  0.00     0.163 C 
BRANCH   6   7
ATOM      7  O   UNL     1       4.956  -0.773   1.380  1.00  0.00    -0.396 OA
ATOM      8  H   UNL     1       4.861  -1.089   2.315  1.00  0.00     0.210 HD
ENDBRANCH   6   7
ENDBRANCH   3   6
ENDBRANCH   2   3
ENDBRANCH   1   2
BRANCH   1   9
ATOM      9  C   UNL     1       0.935  -0.076  -0.223  1.00  0.00     0.027 C 
ATOM     10  C   UNL     1       0.284  -1.535  -0.296  1.00  0.00    -0.020 C 
ATOM     11  C   UNL     1       0.974   0.755  -1.571  1.00  0.00     0.069 C 
ATOM     12  C   UNL     1      -0.078  -2.010   1.142  1.00  0.00     0.007 C 
ATOM     13  C   UNL     1      -1.076  -1.523  -1.166  1.00  0.00     0.042 C 
ATOM     14  C   UNL     1      -0.257   0.452  -2.475  1.00  0.00     0.080 C 
ATOM     15  C   UNL     1      -0.802  -3.373   1.215  1.00  0.00     0.001 C 
ATOM     16  C   UNL     1      -2.295  -2.424  -0.650  1.00  0.00    -0.029 C 
ATOM     17  C   UNL     1      -1.477  -0.123  -1.744  1.00  0.00     0.184 C 
ATOM     18  C   UNL     1      -1.701  -3.684   0.002  1.00  0.00     0.007 C 
ATOM     19  C   UNL     1       1.316  -2.547  -0.882  1.00  0.00     0.012 C 
ATOM     20  C   UNL     1       2.255   0.534  -2.430  1.00  0.00     0.042 C 
ATOM     21  C   UNL     1      -3.270  -1.738   0.344  1.00  0.00     0.011 C 
ATOM     22  C   UNL     1      -3.156  -2.881  -1.858  1.00  0.00     0.011 C 
BRANCH  11  23
ATOM     23  O   UNL     1       0.918   2.115  -1.191  1.00  0.00    -0.390 OA
ATOM     24  H   UNL     1       0.994   2.681  -2.003  1.00  0.00     0.211 HD
ENDBRANCH  11  23
BRANCH  17  25
ATOM     25  O   UNL     1      -1.980   0.767  -0.790  1.00  0.00    -0.459 OA
BRANCH  25  26
ATOM     26  C   UNL     1      -3.180   1.418  -0.913  1.00  0.00     0.333 C 
ATOM     27  O   UNL     1      -3.796   1.327  -1.966  1.00  0.00    -0.247 OA
BRANCH  26  28
ATOM     28  C   UNL     1      -3.822   2.212   0.202  1.00  0.00     0.030 C 
ATOM     29  C   UNL     1      -3.298   2.476   1.428  1.00  0.00    -0.020 C 
ATOM     30  C   UNL     1      -5.208   2.784  -0.037  1.00  0.00     0.052 C 
ATOM     31  C   UNL     1      -1.970   2.068   1.982  1.00  0.00     0.036 C 
ENDBRANCH  26  28
ENDBRANCH  25  26
ENDBRANCH  17  25
ENDBRANCH   1   9
TORSDOF 10
