REMARK SMILES CC1(C)C[C@H]2C=C(C=O)[C@]34C[C@@]3(C(=O)O[C@@H]4O)[C@@H]2C1
REMARK SMILES IDX 1 1 2 2 3 3 4 4 5 5 6 6 7 7 10 8 11 9 12 10 13 11 14 12
REMARK SMILES IDX 15 13 16 14 18 15 19 16 8 17 9 18 17 19
REMARK H PARENT 17 20
ROOT
ATOM      1  C   UNL     1      -3.304  -0.810   1.286  1.00  0.00     0.011 C 
ATOM      2  C   UNL     1      -2.522  -0.459   0.007  1.00  0.00    -0.035 C 
ATOM      3  C   UNL     1      -3.463  -0.573  -1.211  1.00  0.00     0.011 C 
ATOM      4  C   UNL     1      -1.926   0.976   0.120  1.00  0.00     0.014 C 
ATOM      5  C   UNL     1      -0.560   0.833  -0.533  1.00  0.00     0.017 C 
ATOM      6  C   UNL     1       0.425   1.939  -0.263  1.00  0.00    -0.015 C 
ATOM      7  C   UNL     1       1.744   1.665  -0.116  1.00  0.00     0.002 C 
ATOM      8  C   UNL     1       2.255   0.217  -0.185  1.00  0.00     0.078 C 
ATOM      9  C   UNL     1       2.085  -0.380  -1.575  1.00  0.00     0.040 C 
ATOM     10  C   UNL     1       1.274  -0.952  -0.408  1.00  0.00     0.088 C 
ATOM     11  C   UNL     1       1.949  -2.041   0.343  1.00  0.00     0.315 C 
ATOM     12  O   UNL     1       1.506  -3.174   0.433  1.00  0.00    -0.251 OA
ATOM     13  O   UNL     1       3.099  -1.672   0.926  1.00  0.00    -0.434 OA
ATOM     14  C   UNL     1       3.361  -0.332   0.748  1.00  0.00     0.319 C 
ATOM     15  C   UNL     1      -0.099  -0.478   0.099  1.00  0.00     0.015 C 
ATOM     16  C   UNL     1      -1.283  -1.387  -0.196  1.00  0.00     0.012 C 
ENDROOT
BRANCH   7  17
ATOM     17  C   UNL     1       2.691   2.787   0.077  1.00  0.00     0.256 C 
ATOM     18  O   UNL     1       3.892   2.588   0.170  1.00  0.00    -0.298 OA
ENDBRANCH   7  17
BRANCH  14  19
ATOM     19  O   UNL     1       3.356   0.319   1.992  1.00  0.00    -0.358 OA
ATOM     20  H   UNL     1       2.477   0.140   2.415  1.00  0.00     0.215 HD
ENDBRANCH  14  19
TORSDOF 2
