REMARK SMILES CC[C]CC[C]CCCCCCCCCCCCC(=O)OC[C@@H](COC(=O)CCCCCCCC[C]CC)OC(=O)CCCCCCCCCCC
REMARK SMILES IDX 19 1 20 2 18 3 17 4 16 5 15 6 14 7 13 8 12 9 11 10 10 11
REMARK SMILES IDX 9 12 8 13 7 14 6 15 5 16 4 17 3 18 2 19 1 20 21 21 22 22
REMARK SMILES IDX 23 23 24 24 25 25 26 26 27 27 28 28 29 29 30 30 31 31 32 32
REMARK SMILES IDX 33 33 34 34 35 35 36 36 37 37 38 38 39 39 40 40 41 41 42 42
REMARK SMILES IDX 43 43 44 44 45 45 46 46 47 47 48 48 49 49 50 50 51 51 52 52
REMARK H PARENT
ROOT
ATOM      1  C   UNL     1       0.261  -0.139   0.044  1.00  0.00     0.305 C 
ATOM      2  O   UNL     1       0.974  -0.996   0.541  1.00  0.00    -0.252 OA
ENDROOT
BRANCH   1   3
ATOM      3  C   UNL     1       1.025   1.291  -0.294  1.00  0.00     0.123 C 
BRANCH   3   4
ATOM      4  C   UNL     1       2.672   1.540  -0.011  1.00  0.00     0.012 C 
BRANCH   4   5
ATOM      5  C   UNL     1       3.545   2.964  -0.301  1.00  0.00     0.001 C 
BRANCH   5   6
ATOM      6  C   UNL     1       5.196   3.000   0.000  1.00  0.00     0.000 C 
BRANCH   6   7
ATOM      7  C   UNL     1       6.495   3.750   0.000  1.00  0.00     0.000 C 
BRANCH   7   8
ATOM      8  C   UNL     1       7.794   4.500   0.000  1.00  0.00     0.000 C 
BRANCH   8   9
ATOM      9  C   UNL     1       9.093   5.250   0.000  1.00  0.00     0.000 C 
BRANCH   9  10
ATOM     10  C   UNL     1      10.392   6.000   0.000  1.00  0.00     0.000 C 
BRANCH  10  11
ATOM     11  C   UNL     1      11.691   6.750   0.000  1.00  0.00     0.000 C 
BRANCH  11  12
ATOM     12  C   UNL     1      13.331   7.081   0.150  1.00  0.00     0.000 C 
BRANCH  12  13
ATOM     13  C   UNL     1      13.953   8.638  -0.143  1.00  0.00     0.001 C 
BRANCH  13  14
ATOM     14  C   UNL     1      15.588   9.000   0.000  1.00  0.00     0.008 C 
BRANCH  14  15
ATOM     15  C   UNL     1      16.887   9.750   0.000  1.00  0.00    -0.017 C 
BRANCH  15  16
ATOM     16  C   UNL     1      18.186  10.500   0.000  1.00  0.00     0.009 C 
BRANCH  16  17
ATOM     17  C   UNL     1      19.486  11.250   0.000  1.00  0.00     0.009 C 
BRANCH  17  18
ATOM     18  C   UNL     1      20.785  12.000   0.000  1.00  0.00    -0.018 C 
BRANCH  18  19
ATOM     19  C   UNL     1      22.084  12.750   0.000  1.00  0.00     0.005 C 
ATOM     20  C   UNL     1      23.383  13.500   0.000  1.00  0.00     0.004 C 
ENDBRANCH  18  19
ENDBRANCH  17  18
ENDBRANCH  16  17
ENDBRANCH  15  16
ENDBRANCH  14  15
ENDBRANCH  13  14
ENDBRANCH  12  13
ENDBRANCH  11  12
ENDBRANCH  10  11
ENDBRANCH   9  10
ENDBRANCH   8   9
ENDBRANCH   7   8
ENDBRANCH   6   7
ENDBRANCH   5   6
ENDBRANCH   4   5
ENDBRANCH   3   4
ENDBRANCH   1   3
BRANCH   1  21
ATOM     21  O   UNL     1      -1.133  -0.491  -0.186  1.00  0.00    -0.462 OA
BRANCH  21  22
ATOM     22  C   UNL     1      -1.785  -1.773   0.160  1.00  0.00     0.281 C 
BRANCH  22  23
ATOM     23  C   UNL     1      -3.368  -2.261  -0.226  1.00  0.00     0.251 C 
BRANCH  23  24
ATOM     24  C   UNL     1      -3.686  -3.881   0.117  1.00  0.00     0.281 C 
BRANCH  24  25
ATOM     25  O   UNL     1      -4.971  -4.572  -0.128  1.00  0.00    -0.462 OA
BRANCH  25  26
ATOM     26  C   UNL     1      -5.196  -6.000   0.000  1.00  0.00     0.305 C 
ATOM     27  O   UNL     1      -4.179  -6.681   0.135  1.00  0.00    -0.252 OA
BRANCH  26  28
ATOM     28  C   UNL     1      -6.495  -6.750   0.000  1.00  0.00     0.123 C 
BRANCH  28  29
ATOM     29  C   UNL     1      -7.794  -7.500   0.000  1.00  0.00     0.012 C 
BRANCH  29  30
ATOM     30  C   UNL     1      -9.093  -8.250   0.000  1.00  0.00     0.001 C 
BRANCH  30  31
ATOM     31  C   UNL     1     -10.392  -9.000   0.000  1.00  0.00     0.000 C 
BRANCH  31  32
ATOM     32  C   UNL     1     -11.691  -9.750   0.000  1.00  0.00     0.000 C 
BRANCH  32  33
ATOM     33  C   UNL     1     -13.339 -10.068  -0.084  1.00  0.00     0.000 C 
BRANCH  33  34
ATOM     34  C   UNL     1     -13.947 -11.648   0.090  1.00  0.00     0.001 C 
BRANCH  34  35
ATOM     35  C   UNL     1     -15.588 -12.000   0.000  1.00  0.00     0.008 C 
BRANCH  35  36
ATOM     36  C   UNL     1     -16.887 -12.750   0.000  1.00  0.00    -0.018 C 
BRANCH  36  37
ATOM     37  C   UNL     1     -18.186 -13.500   0.000  1.00  0.00     0.005 C 
ATOM     38  C   UNL     1     -19.486 -14.250   0.000  1.00  0.00     0.004 C 
ENDBRANCH  36  37
ENDBRANCH  35  36
ENDBRANCH  34  35
ENDBRANCH  33  34
ENDBRANCH  32  33
ENDBRANCH  31  32
ENDBRANCH  30  31
ENDBRANCH  29  30
ENDBRANCH  28  29
ENDBRANCH  26  28
ENDBRANCH  25  26
ENDBRANCH  24  25
ENDBRANCH  23  24
BRANCH  23  39
ATOM     39  O   UNL     1      -4.382  -1.476   0.367  1.00  0.00    -0.455 OA
BRANCH  39  40
ATOM     40  C   UNL     1      -4.803  -0.208   0.016  1.00  0.00     0.306 C 
ATOM     41  O   UNL     1      -4.137   0.459  -0.763  1.00  0.00    -0.252 OA
BRANCH  40  42
ATOM     42  C   UNL     1      -6.153   0.349   0.548  1.00  0.00     0.123 C 
BRANCH  42  43
ATOM     43  C   UNL     1      -6.548   1.792   0.058  1.00  0.00     0.012 C 
BRANCH  43  44
ATOM     44  C   UNL     1      -7.966   2.331   0.518  1.00  0.00     0.001 C 
BRANCH  44  45
ATOM     45  C   UNL     1      -8.190   3.819   0.070  1.00  0.00     0.000 C 
BRANCH  45  46
ATOM     46  C   UNL     1      -9.560   4.582   0.375  1.00  0.00     0.000 C 
BRANCH  46  47
ATOM     47  C   UNL     1      -9.348   6.093   0.000  1.00  0.00     0.000 C 
BRANCH  47  48
ATOM     48  C   UNL     1     -10.098   7.392   0.000  1.00  0.00    -0.000 C 
BRANCH  48  49
ATOM     49  C   UNL     1     -10.848   8.691   0.000  1.00  0.00    -0.000 C 
BRANCH  49  50
ATOM     50  C   UNL     1     -11.323  10.148  -0.790  1.00  0.00    -0.000 C 
BRANCH  50  51
ATOM     51  C   UNL     1     -12.348  11.289   0.000  1.00  0.00    -0.003 C 
ATOM     52  C   UNL     1     -13.098  12.588   0.000  1.00  0.00     0.004 C 
ENDBRANCH  50  51
ENDBRANCH  49  50
ENDBRANCH  48  49
ENDBRANCH  47  48
ENDBRANCH  46  47
ENDBRANCH  45  46
ENDBRANCH  44  45
ENDBRANCH  43  44
ENDBRANCH  42  43
ENDBRANCH  40  42
ENDBRANCH  39  40
ENDBRANCH  23  39
ENDBRANCH  22  23
ENDBRANCH  21  22
ENDBRANCH   1  21
TORSDOF 45
