REMARK SMILES CO[C@@H]1C(C)=C(C)[C@H]2[C@H](Cc3c[nH]c4ccccc34)NC(=O)[C@]23C(=O)CC[C@H](O)C(=O)/C(C)=C\[C@@H](C)C/C=C\[C@@H]13
REMARK SMILES IDX 3 1 4 2 5 3 6 4 7 5 8 6 9 7 20 8 21 9 22 10 23 11 40 12 2 14
REMARK SMILES IDX 1 15 39 16 38 17 37 18 35 19 36 20 34 21 32 22 33 23 24 25
REMARK SMILES IDX 25 26 26 27 27 28 28 29 29 30 30 32 31 33 10 35 11 36 12 37
REMARK SMILES IDX 19 38 13 39 18 40 14 41 17 42 15 43 16 44
REMARK H PARENT 20 13 29 31 13 45
REMARK Flexibility Score:   50.900
ROOT
ATOM      1  C   UNL     1      -0.067  -2.648   0.415  1.00  0.00     0.152 C 
ATOM      2  C   UNL     1       1.377  -2.893  -0.028  1.00  0.00    -0.045 C 
ATOM      3  C   UNL     1       1.907  -4.317  -0.016  1.00  0.00     0.042 C 
ATOM      4  C   UNL     1       2.203  -1.850  -0.368  1.00  0.00    -0.065 C 
ATOM      5  C   UNL     1       3.679  -2.077  -0.702  1.00  0.00     0.040 C 
ATOM      6  C   UNL     1       1.745  -0.371  -0.357  1.00  0.00     0.061 C 
ATOM      7  C   UNL     1       1.845   0.180  -1.814  1.00  0.00     0.095 C 
ATOM      8  N   UNL     1       0.497   0.145  -2.290  1.00  0.00    -0.351 N 
ATOM      9  C   UNL     1      -0.388  -0.136  -1.324  1.00  0.00     0.235 C 
ATOM     10  O   UNL     1      -1.579  -0.190  -1.575  1.00  0.00    -0.274 OA
ATOM     11  C   UNL     1       0.237  -0.148   0.068  1.00  0.00     0.125 C 
ATOM     12  C   UNL     1      -0.131  -1.277   1.111  1.00  0.00     0.068 C 
ATOM     13  H   UNL     1       0.234   0.321  -3.271  1.00  0.00     0.163 HD
ENDROOT
BRANCH   1  14
ATOM     14  O   UNL     1      -0.468  -3.655   1.335  1.00  0.00    -0.376 OA
ATOM     15  C   UNL     1      -1.479  -4.470   0.774  1.00  0.00     0.195 C 
ENDBRANCH   1  14
BRANCH  12  16
ATOM     16  C   UNL     1      -1.260  -1.147   2.167  1.00  0.00    -0.023 C 
ATOM     17  C   UNL     1      -2.610  -1.158   2.125  1.00  0.00    -0.030 C 
BRANCH  17  18
ATOM     18  C   UNL     1      -3.482  -1.233   0.918  1.00  0.00     0.034 C 
BRANCH  18  19
ATOM     19  C   UNL     1      -4.458  -0.022   0.884  1.00  0.00     0.013 C 
ATOM     20  C   UNL     1      -5.628  -0.202   1.861  1.00  0.00     0.012 C 
BRANCH  19  21
ATOM     21  C   UNL     1      -4.966   0.109  -0.515  1.00  0.00    -0.017 C 
ATOM     22  C   UNL     1      -4.832   1.132  -1.408  1.00  0.00    -0.009 CG0
ATOM     23  C   UNL     1      -5.501   0.816  -2.742  1.00  0.00     0.048 C 
ATOM     24  G   UNL     1      -4.152   2.506  -1.285  1.00  0.00     0.000 G0
ENDBRANCH  19  21
ENDBRANCH  18  19
ENDBRANCH  17  18
ENDBRANCH  12  16
BRANCH  11  25
ATOM     25  C   UNL     1      -0.062   1.233   0.670  1.00  0.00     0.149 C 
ATOM     26  O   UNL     1       0.834   1.980   1.029  1.00  0.00    -0.298 OA
BRANCH  25  27
ATOM     27  C   UNL     1      -1.504   1.667   0.808  1.00  0.00     0.080 C 
BRANCH  27  28
ATOM     28  C   UNL     1      -1.861   2.905  -0.006  1.00  0.00     0.048 C 
BRANCH  28  29
ATOM     29  C   UNL     1      -3.387   3.206  -0.137  1.00  0.00     0.186 C 
BRANCH  29  30
ATOM     30  O   UNL     1      -4.088   3.178   1.079  1.00  0.00    -0.385 OA
ATOM     31  H   UNL     1      -3.769   3.947   1.620  1.00  0.00     0.211 HD
ENDBRANCH  29  30
BRANCH  29  32
ATOM     32  C   UNL     1      -4.152   2.506  -1.285  1.00  0.00     0.186 CG0
ATOM     33  O   UNL     1      -4.277   3.221  -2.271  1.00  0.00    -0.292 OA
ATOM     34  G   UNL     1      -4.832   1.132  -1.408  1.00  0.00     0.000 G0
ENDBRANCH  29  32
ENDBRANCH  28  29
ENDBRANCH  27  28
ENDBRANCH  25  27
ENDBRANCH  11  25
BRANCH   7  35
ATOM     35  C   UNL     1       2.487   1.579  -1.875  1.00  0.00     0.063 C 
BRANCH  35  36
ATOM     36  C   UNL     1       3.969   1.411  -1.643  1.00  0.00    -0.021 A 
ATOM     37  C   UNL     1       4.853   0.815  -2.541  1.00  0.00     0.087 A 
ATOM     38  C   UNL     1       4.726   1.730  -0.529  1.00  0.00     0.003 A 
ATOM     39  N   UNL     1       6.096   0.765  -2.016  1.00  0.00    -0.361 N 
ATOM     40  C   UNL     1       4.388   2.314   0.692  1.00  0.00     0.010 A 
ATOM     41  C   UNL     1       6.009   1.313  -0.793  1.00  0.00     0.046 A 
ATOM     42  C   UNL     1       5.405   2.461   1.654  1.00  0.00     0.001 A 
ATOM     43  C   UNL     1       7.036   1.450   0.138  1.00  0.00     0.026 A 
ATOM     44  C   UNL     1       6.723   2.031   1.379  1.00  0.00     0.002 A 
ATOM     45  H   UNL     1       6.947   0.363  -2.468  1.00  0.00     0.166 HD
ENDBRANCH  35  36
ENDBRANCH   7  35
TORSDOF 4
