REMARK SMILES CO[C@@H]1[C@@H](O)[C@H](O[C@@H]2[C@@H](O)[C@H](O[C@@H]3CO[C@@H](O[C@H]4[C@H](O[C@H]5CC[C@]6(C)[C@@H]7CC[C@]89C(=O)O[C@@](C)(/C=C\C=C(C)C)[C@@]8(O)[C@@H](OC(C)=O)C[C@@]9(C)C7=CC[C@H]6C5(C)C)OC[C@@H](OS(=O)(=O)O)[C@@H]4O)[C@H](O)[C@H]3O)OC[C@H]2O)O[C@H](CO)[C@H]1O
REMARK SMILES IDX 13 1 14 2 15 3 16 4 68 5 70 6 12 7 11 8 8 9 9 10 74 11 73 12
REMARK SMILES IDX 72 13 7 14 6 15 3 16 4 17 80 18 77 19 76 20 2 21 1 22 5 23
REMARK SMILES IDX 81 25 78 27 79 28 10 30 75 32 71 34 69 36 17 38 18 39 19 40
REMARK SMILES IDX 66 41 58 42 60 43 59 44 20 45 21 46 22 47 55 48 23 49 54 50
REMARK SMILES IDX 24 51 53 52 26 53 52 54 27 55 51 56 28 57 49 58 29 59 48 60
REMARK SMILES IDX 30 61 41 62 43 63 31 64 32 65 33 66 56 67 57 68 25 69 50 70
REMARK SMILES IDX 34 71 42 72 44 74 45 75 47 76 46 77 35 78 36 79 37 80 38 81
REMARK SMILES IDX 39 82 40 83 67 84 61 86 62 87 63 88 64 89 65 90
REMARK H PARENT 5 24 81 26 79 29 10 31 75 33 71 35 69 37 42 73 67 85 65 91
ROOT
ATOM      1  C   UNL     1       5.414   0.184  -1.089  1.00  0.00     0.179 C 
ATOM      2  C   UNL     1       4.370  -0.894  -1.433  1.00  0.00     0.198 C 
ATOM      3  O   UNL     1       3.031  -0.410  -1.597  1.00  0.00    -0.347 OA
ATOM      4  C   UNL     1       2.913   1.006  -1.724  1.00  0.00     0.282 C 
ATOM      5  C   UNL     1       3.985   1.600  -2.671  1.00  0.00     0.202 C 
ATOM      6  C   UNL     1       5.429   1.249  -2.203  1.00  0.00     0.179 C 
ENDROOT
BRANCH   1   7
ATOM      7  O   UNL     1       6.693  -0.413  -0.961  1.00  0.00    -0.341 OA
BRANCH   7   8
ATOM      8  C   UNL     1       7.265  -0.224   0.324  1.00  0.00     0.282 C 
ATOM      9  C   UNL     1       9.161  -1.225   1.738  1.00  0.00     0.186 C 
ATOM     10  C   UNL     1       8.047  -1.510   0.695  1.00  0.00     0.202 C 
ATOM     11  C   UNL     1       8.779   0.006   2.575  1.00  0.00     0.172 C 
ATOM     12  C   UNL     1       8.654   1.214   1.590  1.00  0.00     0.198 C 
ATOM     13  O   UNL     1       8.110   0.908   0.300  1.00  0.00    -0.347 OA
BRANCH   9  14
ATOM     14  O   UNL     1      10.335  -0.879   1.022  1.00  0.00    -0.341 OA
BRANCH  14  15
ATOM     15  C   UNL     1      11.436  -1.741   1.220  1.00  0.00     0.282 C 
ATOM     16  C   UNL     1      13.128  -2.892  -0.272  1.00  0.00     0.183 C 
ATOM     17  C   UNL     1      11.641  -2.608  -0.046  1.00  0.00     0.202 C 
ATOM     18  C   UNL     1      13.753  -1.512  -0.523  1.00  0.00     0.177 C 
ATOM     19  C   UNL     1      13.477  -0.521   0.647  1.00  0.00     0.178 C 
ATOM     20  O   UNL     1      12.544  -0.954   1.629  1.00  0.00    -0.341 OA
BRANCH  16  21
ATOM     21  O   UNL     1      13.272  -3.693  -1.435  1.00  0.00    -0.376 OA
ATOM     22  C   UNL     1      14.214  -4.720  -1.225  1.00  0.00     0.195 C 
ENDBRANCH  16  21
BRANCH  17  23
ATOM     23  O   UNL     1      10.867  -3.780   0.015  1.00  0.00    -0.385 OA
ATOM     24  H   UNL     1      11.273  -4.372   0.701  1.00  0.00     0.211 HD
ENDBRANCH  17  23
BRANCH  18  25
ATOM     25  O   UNL     1      15.125  -1.590  -0.815  1.00  0.00    -0.387 OA
ATOM     26  H   UNL     1      15.567  -2.023  -0.037  1.00  0.00     0.211 HD
ENDBRANCH  18  25
BRANCH  19  27
ATOM     27  C   UNL     1      13.134   0.898   0.166  1.00  0.00     0.191 C 
BRANCH  27  28
ATOM     28  O   UNL     1      11.892   0.922  -0.491  1.00  0.00    -0.394 OA
ATOM     29  H   UNL     1      12.071   0.895  -1.467  1.00  0.00     0.210 HD
ENDBRANCH  27  28
ENDBRANCH  19  27
ENDBRANCH  14  15
ENDBRANCH   9  14
BRANCH  10  30
ATOM     30  O   UNL     1       7.152  -2.505   1.128  1.00  0.00    -0.385 OA
ATOM     31  H   UNL     1       6.742  -2.204   1.980  1.00  0.00     0.211 HD
ENDBRANCH  10  30
BRANCH  11  32
ATOM     32  O   UNL     1       7.574  -0.229   3.258  1.00  0.00    -0.388 OA
ATOM     33  H   UNL     1       7.426   0.554   3.851  1.00  0.00     0.211 HD
ENDBRANCH  11  32
ENDBRANCH   7   8
ENDBRANCH   1   7
BRANCH   6  34
ATOM     34  O   UNL     1       6.133   2.390  -1.780  1.00  0.00    -0.387 OA
ATOM     35  H   UNL     1       5.610   2.808  -1.047  1.00  0.00     0.211 HD
ENDBRANCH   6  34
BRANCH   5  36
ATOM     36  O   UNL     1       3.769   1.145  -3.988  1.00  0.00    -0.385 OA
ATOM     37  H   UNL     1       3.859   0.158  -3.996  1.00  0.00     0.211 HD
ENDBRANCH   5  36
BRANCH   4  38
ATOM     38  O   UNL     1       3.015   1.599  -0.438  1.00  0.00    -0.338 OA
BRANCH  38  39
ATOM     39  C   UNL     1       1.909   2.394  -0.048  1.00  0.00     0.209 C 
ATOM     40  C   UNL     1       0.995   1.614   0.969  1.00  0.00     0.282 C 
ATOM     41  C   UNL     1       2.460   3.633   0.663  1.00  0.00     0.181 C 
ATOM     42  O   UNL     1       1.485   1.593   2.319  1.00  0.00    -0.347 OA
ATOM     43  C   UNL     1       3.306   3.199   1.903  1.00  0.00     0.199 C 
ATOM     44  C   UNL     1       2.881   1.792   2.401  1.00  0.00     0.200 C 
BRANCH  40  45
ATOM     45  O   UNL     1      -0.258   2.278   1.002  1.00  0.00    -0.346 OA
BRANCH  45  46
ATOM     46  C   UNL     1      -1.396   1.424   0.921  1.00  0.00     0.127 C 
ATOM     47  C   UNL     1      -2.385   1.860   2.021  1.00  0.00     0.033 C 
ATOM     48  C   UNL     1      -2.030   1.508  -0.511  1.00  0.00    -0.005 C 
ATOM     49  C   UNL     1      -3.669   1.005   1.994  1.00  0.00     0.010 C 
ATOM     50  C   UNL     1      -3.437   0.778  -0.518  1.00  0.00     0.007 C 
ATOM     51  C   UNL     1      -4.443   1.124   0.647  1.00  0.00    -0.022 C 
ATOM     52  C   UNL     1      -4.167   0.930  -1.872  1.00  0.00     0.032 C 
ATOM     53  C   UNL     1      -5.701   0.135   0.586  1.00  0.00     0.021 C 
ATOM     54  C   UNL     1      -5.308  -0.011  -1.943  1.00  0.00    -0.027 C 
ATOM     55  C   UNL     1      -5.703  -1.120   1.503  1.00  0.00     0.010 C 
ATOM     56  C   UNL     1      -6.022  -0.380  -0.865  1.00  0.00    -0.063 C 
ATOM     57  C   UNL     1      -7.086  -1.891   1.475  1.00  0.00     0.024 C 
ATOM     58  C   UNL     1      -7.007  -1.544  -1.052  1.00  0.00     0.012 C 
ATOM     59  C   UNL     1      -7.932  -1.632   0.178  1.00  0.00     0.114 C 
ATOM     60  C   UNL     1      -8.054  -1.434  -2.186  1.00  0.00     0.061 C 
ATOM     61  C   UNL     1      -8.751  -0.350   0.388  1.00  0.00     0.317 C 
ATOM     62  C   UNL     1      -9.145  -2.579  -0.223  1.00  0.00     0.161 C 
ATOM     63  C   UNL     1      -9.002  -2.572  -1.812  1.00  0.00     0.214 C 
ATOM     64  O   UNL     1      -8.456   0.760  -0.030  1.00  0.00    -0.251 OA
ATOM     65  O   UNL     1     -10.016  -0.593   0.693  1.00  0.00    -0.451 OA
ATOM     66  C   UNL     1     -10.398  -1.891   0.509  1.00  0.00     0.161 C 
ATOM     67  C   UNL     1      -2.065   2.985  -1.003  1.00  0.00     0.014 C 
ATOM     68  C   UNL     1      -1.101   0.741  -1.491  1.00  0.00     0.014 C 
ATOM     69  C   UNL     1      -5.048   2.565   0.559  1.00  0.00     0.012 C 
ATOM     70  C   UNL     1      -6.112  -2.826  -1.259  1.00  0.00     0.017 C 
ATOM     71  C   UNL     1     -10.649  -2.562   1.885  1.00  0.00     0.065 C 
BRANCH  62  72
ATOM     72  O   UNL     1      -8.949  -3.902   0.218  1.00  0.00    -0.380 OA
ATOM     73  H   UNL     1      -9.698  -4.438  -0.154  1.00  0.00     0.211 HD
ENDBRANCH  62  72
BRANCH  63  74
ATOM     74  O   UNL     1     -10.157  -2.616  -2.576  1.00  0.00    -0.459 OA
BRANCH  74  75
ATOM     75  C   UNL     1     -10.491  -3.638  -3.417  1.00  0.00     0.303 C 
ATOM     76  O   UNL     1      -9.784  -4.631  -3.530  1.00  0.00    -0.253 OA
ATOM     77  C   UNL     1     -11.743  -3.569  -4.227  1.00  0.00     0.139 C 
ENDBRANCH  74  75
ENDBRANCH  63  74
BRANCH  66  78
ATOM     78  C   UNL     1     -11.724  -1.848  -0.253  1.00  0.00     0.024 C 
ATOM     79  C   UNL     1     -12.764  -1.023   0.055  1.00  0.00    -0.000 C 
BRANCH  79  80
ATOM     80  C   UNL     1     -12.791  -0.071   1.216  1.00  0.00    -0.002 C 
ATOM     81  C   UNL     1     -13.740   0.861   1.481  1.00  0.00    -0.076 C 
ATOM     82  C   UNL     1     -14.925   1.156   0.595  1.00  0.00     0.039 C 
ATOM     83  C   UNL     1     -13.629   1.687   2.743  1.00  0.00     0.039 C 
ENDBRANCH  79  80
ENDBRANCH  66  78
ENDBRANCH  45  46
ENDBRANCH  40  45
BRANCH  41  84
ATOM     84  O   UNL     1       1.402   4.497   1.018  1.00  0.00    -0.387 OA
ATOM     85  H   UNL     1       1.036   4.223   1.898  1.00  0.00     0.211 HD
ENDBRANCH  41  84
BRANCH  43  86
ATOM     86  O   UNL     1       4.675   3.119   1.568  1.00  0.00    -0.240 OA
BRANCH  86  87
ATOM     87  S   UNL     1       5.413   4.676   1.757  1.00  0.00     0.397 S 
ATOM     88  O   UNL     1       6.102   4.766   3.127  1.00  0.00    -0.169 OA
ATOM     89  O   UNL     1       6.578   4.782   0.762  1.00  0.00    -0.169 OA
BRANCH  87  90
ATOM     90  O   UNL     1       4.406   6.051   1.524  1.00  0.00    -0.264 OA
ATOM     91  H   UNL     1       4.042   6.260   2.421  1.00  0.00     0.236 HD
ENDBRANCH  87  90
ENDBRANCH  86  87
ENDBRANCH  43  86
ENDBRANCH  38  39
ENDBRANCH   4  38
TORSDOF 26
