REMARK SMILES CC(=O)O[C@@H]1C[C@H](CCc2ccc(O)c(OC3CCCCC3)c2)O[C@H](c2cc(O)c(O)c(OC3CCCC3)c2)C1
REMARK SMILES IDX 8 1 7 2 5 3 6 4 40 5 25 6 24 7 4 8 2 9 3 10 1 11 26 12 27 13
REMARK SMILES IDX 39 14 28 15 32 16 30 17 29 18 33 20 34 21 35 22 38 23 36 24
REMARK SMILES IDX 37 25 31 26 9 28 10 29 11 30 23 31 12 32 15 33 13 34 16 35
REMARK SMILES IDX 17 36 18 37 22 38 19 39 21 40 20 41 14 42
REMARK H PARENT 29 19 31 27 14 43
ROOT
ATOM      1  C   UNL     1      -0.510   1.002   1.925  1.00  0.00     0.037 C 
ENDROOT
BRANCH   1   2
ATOM      2  C   UNL     1       0.300  -0.310   1.925  1.00  0.00     0.123 C 
ATOM      3  C   UNL     1       0.416  -2.668   0.928  1.00  0.00     0.182 C 
ATOM      4  C   UNL     1      -0.514  -1.562   1.500  1.00  0.00     0.077 C 
ATOM      5  C   UNL     1       1.775  -2.572   1.632  1.00  0.00     0.082 C 
ATOM      6  C   UNL     1       2.404  -1.157   1.354  1.00  0.00     0.152 C 
ATOM      7  O   UNL     1       1.406  -0.171   1.063  1.00  0.00    -0.370 OA
BRANCH   3   8
ATOM      8  O   UNL     1       0.590  -2.457  -0.433  1.00  0.00    -0.462 OA
BRANCH   8   9
ATOM      9  C   UNL     1       0.214  -3.313  -1.420  1.00  0.00     0.302 C 
ATOM     10  O   UNL     1      -0.261  -4.410  -1.163  1.00  0.00    -0.253 OA
ATOM     11  C   UNL     1       0.366  -2.889  -2.845  1.00  0.00     0.139 C 
ENDBRANCH   8   9
ENDBRANCH   3   8
BRANCH   6  12
ATOM     12  C   UNL     1       3.447  -1.072   0.247  1.00  0.00    -0.012 A 
ATOM     13  C   UNL     1       3.864  -2.145  -0.560  1.00  0.00     0.057 A 
ATOM     14  C   UNL     1       4.045   0.182   0.050  1.00  0.00     0.057 A 
ATOM     15  C   UNL     1       4.874  -1.963  -1.521  1.00  0.00     0.161 A 
ATOM     16  C   UNL     1       5.031   0.398  -0.913  1.00  0.00     0.165 A 
ATOM     17  C   UNL     1       5.468  -0.697  -1.703  1.00  0.00     0.200 A 
BRANCH  15  18
ATOM     18  O   UNL     1       5.287  -3.009  -2.268  1.00  0.00    -0.504 OA
ATOM     19  H   UNL     1       4.918  -3.898  -2.167  1.00  0.00     0.293 HD
ENDBRANCH  15  18
BRANCH  16  20
ATOM     20  O   UNL     1       5.503   1.672  -0.997  1.00  0.00    -0.486 OA
BRANCH  20  21
ATOM     21  C   UNL     1       6.222   2.321  -1.991  1.00  0.00     0.173 C 
ATOM     22  C   UNL     1       7.526   2.882  -1.422  1.00  0.00     0.045 C 
ATOM     23  C   UNL     1       5.511   3.617  -2.360  1.00  0.00     0.045 C 
ATOM     24  C   UNL     1       7.018   3.965  -0.475  1.00  0.00     0.004 C 
ATOM     25  C   UNL     1       5.792   4.565  -1.185  1.00  0.00     0.004 C 
ENDBRANCH  20  21
ENDBRANCH  16  20
BRANCH  17  26
ATOM     26  O   UNL     1       6.457  -0.546  -2.608  1.00  0.00    -0.502 OA
ATOM     27  H   UNL     1       6.796  -1.271  -3.151  1.00  0.00     0.293 HD
ENDBRANCH  17  26
ENDBRANCH   6  12
ENDBRANCH   1   2
BRANCH   1  28
ATOM     28  C   UNL     1      -1.513   1.143   3.082  1.00  0.00     0.038 C 
BRANCH  28  29
ATOM     29  C   UNL     1      -2.674   0.182   3.040  1.00  0.00    -0.044 A 
ATOM     30  C   UNL     1      -2.856  -0.738   4.082  1.00  0.00     0.008 A 
ATOM     31  C   UNL     1      -3.598   0.222   1.982  1.00  0.00     0.054 A 
ATOM     32  C   UNL     1      -3.941  -1.611   4.067  1.00  0.00     0.050 A 
ATOM     33  C   UNL     1      -4.706  -0.656   1.964  1.00  0.00     0.161 A 
ATOM     34  C   UNL     1      -4.866  -1.572   3.016  1.00  0.00     0.157 A 
BRANCH  33  35
ATOM     35  O   UNL     1      -5.656  -0.654   0.988  1.00  0.00    -0.487 OA
BRANCH  35  36
ATOM     36  C   UNL     1      -5.724   0.082  -0.184  1.00  0.00     0.173 C 
ATOM     37  C   UNL     1      -5.892  -0.883  -1.370  1.00  0.00     0.045 C 
ATOM     38  C   UNL     1      -6.930   1.034  -0.106  1.00  0.00     0.045 C 
ATOM     39  C   UNL     1      -6.054  -0.103  -2.683  1.00  0.00     0.004 C 
ATOM     40  C   UNL     1      -7.088   1.815  -1.418  1.00  0.00     0.004 C 
ATOM     41  C   UNL     1      -7.259   0.845  -2.595  1.00  0.00     0.000 C 
ENDBRANCH  35  36
ENDBRANCH  33  35
BRANCH  34  42
ATOM     42  O   UNL     1      -5.922  -2.412   3.012  1.00  0.00    -0.504 OA
ATOM     43  H   UNL     1      -6.072  -3.055   3.720  1.00  0.00     0.293 HD
ENDBRANCH  34  42
ENDBRANCH  28  29
ENDBRANCH   1  28
TORSDOF 13
