REMARK SMILES C[C@H]1C[C@@H](CC=O)[C@H]2SSC[C@H]3c4ccc5c(c4)[C@]4(C[C@@H]6C(O)=c7ccccc7=C[C@@H]6C[C@H]4CC5)[C@H](C(=O)O)[C@@H](C(O)(O)CC=O)/C=C\C[C@H](CCCCC[C@H](C=O)[C@@H]4C=C(CCN)CC4)[C@@H]3c3ccc(O)c(c3)C[C@@H]2C1
REMARK SMILES IDX 51 1 50 2 67 3 12 4 11 5 10 6 9 7 8 8 2 9 3 10 77 11 4 12
REMARK SMILES IDX 76 13 1 14 5 16 6 17 7 18 13 19 14 20 18 21 15 22 17 23
REMARK SMILES IDX 16 24 19 25 35 26 20 27 33 28 34 29 21 30 32 31 22 32 31 33
REMARK SMILES IDX 24 34 30 35 25 36 29 37 26 38 28 39 27 40 23 42 68 44 74 45
REMARK SMILES IDX 69 46 73 47 70 48 71 49 75 50 72 52 49 54 48 55 47 56 40 57
REMARK SMILES IDX 36 58 37 60 38 61 39 62 41 64 42 65 43 67 44 69 45 70 46 71
REMARK SMILES IDX 52 72 53 73 54 74 55 75 56 76 57 77 58 78 59 79 60 80 66 81
REMARK SMILES IDX 61 82 65 83 62 84 63 85 64 86
REMARK H PARENT 23 43 72 53 39 63 42 66 43 68 64 87 64 88
REMARK Flexibility Score:  374.800
ROOT
ATOM      1  C   UNL     1       0.732  -1.758   1.135  1.00  0.00     0.004 C 
ENDROOT
BRANCH   1   2
ATOM      2  C   UNL     1       0.503  -0.905  -0.173  1.00  0.00     0.001 C 
BRANCH   2   3
ATOM      3  C   UNL     1       0.025   0.634  -0.086  1.00  0.00     0.031 C 
BRANCH   3   4
ATOM      4  C   UNL     1      -1.445   1.171   0.328  1.00  0.00     0.038 C 
BRANCH   4   5
ATOM      5  C   UNL     1      -1.458   2.761   0.344  1.00  0.00     0.090 C 
BRANCH   5   6
ATOM      6  S   UNL     1      -0.849   3.489  -1.246  1.00  0.00    -0.093 SA
BRANCH   6   7
ATOM      7  S   UNL     1      -1.041   5.536  -0.705  1.00  0.00    -0.090 SA
BRANCH   7   8
ATOM      8  C   UNL     1       0.636   5.806   0.046  1.00  0.00     0.065 C 
ATOM      9  C   UNL     1       1.478   7.792  -1.958  1.00  0.00    -0.014 C 
ATOM     10  C   UNL     1       0.609   8.225  -0.731  1.00  0.00     0.008 C 
ATOM     11  C   UNL     1       2.506   6.729  -1.547  1.00  0.00     0.008 C 
ATOM     12  C   UNL     1       0.718   7.277   0.512  1.00  0.00     0.010 C 
ATOM     13  C   UNL     1       1.865   5.455  -0.904  1.00  0.00     0.008 CG1
ATOM     14  C   UNL     1       0.645   7.331  -3.167  1.00  0.00     0.007 C 
ATOM     15  G   UNL     1       3.017   4.664  -0.176  1.00  0.00     0.000 G1
BRANCH  12  16
ATOM     16  C   UNL     1      -0.359   7.594   1.589  1.00  0.00     0.076 C 
BRANCH  16  17
ATOM     17  C   UNL     1      -0.238   8.941   2.247  1.00  0.00     0.224 C 
ATOM     18  O   UNL     1       0.660   9.718   1.979  1.00  0.00    -0.303 OA
ENDBRANCH  16  17
ENDBRANCH  12  16
ENDBRANCH   7   8
ENDBRANCH   6   7
ENDBRANCH   5   6
ENDBRANCH   4   5
BRANCH   4  19
ATOM     19  C   UNL     1      -2.660   0.671  -0.505  1.00  0.00    -0.043 A 
ATOM     20  C   UNL     1      -3.379   1.518  -1.384  1.00  0.00     0.004 A 
ATOM     21  C   UNL     1      -3.137  -0.643  -0.355  1.00  0.00     0.008 A 
ATOM     22  C   UNL     1      -4.488   1.082  -2.077  1.00  0.00     0.004 A 
ATOM     23  C   UNL     1      -4.225  -1.135  -1.123  1.00  0.00    -0.037 A 
ATOM     24  C   UNL     1      -4.928  -0.224  -1.959  1.00  0.00    -0.044 A 
ATOM     25  C   UNL     1      -4.702  -2.596  -1.062  1.00  0.00     0.013 CG0
ATOM     26  C   UNL     1      -6.257  -0.535  -2.622  1.00  0.00     0.036 C 
ATOM     27  C   UNL     1      -4.312  -3.378   0.247  1.00  0.00     0.025 C 
ATOM     28  C   UNL     1      -6.284  -2.534  -1.030  1.00  0.00     0.001 C 
ATOM     29  C   UNL     1      -6.827  -1.925  -2.337  1.00  0.00     0.009 C 
ATOM     30  C   UNL     1      -4.865  -2.799   1.584  1.00  0.00     0.063 C 
ATOM     31  C   UNL     1      -6.761  -1.710   0.202  1.00  0.00     0.013 C 
ATOM     32  C   UNL     1      -4.619  -3.849   2.674  1.00  0.00     0.104 C 
ATOM     33  C   UNL     1      -6.358  -2.386   1.516  1.00  0.00     0.023 C 
ATOM     34  C   UNL     1      -5.645  -4.610   3.199  1.00  0.00     0.019 A 
ATOM     35  C   UNL     1      -7.327  -3.455   1.899  1.00  0.00    -0.014 C 
ATOM     36  C   UNL     1      -5.414  -5.639   4.148  1.00  0.00     0.012 A 
ATOM     37  C   UNL     1      -6.993  -4.418   2.763  1.00  0.00    -0.019 A 
ATOM     38  C   UNL     1      -6.460  -6.431   4.636  1.00  0.00     0.001 A 
ATOM     39  C   UNL     1      -8.026  -5.237   3.260  1.00  0.00     0.008 A 
ATOM     40  C   UNL     1      -7.759  -6.229   4.193  1.00  0.00     0.001 A 
ATOM     41  G   UNL     1      -4.136  -3.352  -2.395  1.00  0.00     0.000 G0
BRANCH  32  42
ATOM     42  O   UNL     1      -3.318  -4.049   3.006  1.00  0.00    -0.511 OA
ATOM     43  H   UNL     1      -2.979  -4.718   3.613  1.00  0.00     0.293 HD
ENDBRANCH  32  42
ENDBRANCH   4  19
ENDBRANCH   3   4
BRANCH   3  44
ATOM     44  C   UNL     1       1.029   1.516   0.666  1.00  0.00    -0.043 A 
ATOM     45  C   UNL     1       1.774   2.487  -0.035  1.00  0.00     0.011 A 
ATOM     46  C   UNL     1       1.060   1.537   2.065  1.00  0.00     0.008 A 
ATOM     47  C   UNL     1       2.482   3.494   0.641  1.00  0.00    -0.006 A 
ATOM     48  C   UNL     1       1.848   2.457   2.750  1.00  0.00     0.047 A 
ATOM     49  C   UNL     1       2.556   3.445   2.062  1.00  0.00     0.118 A 
BRANCH  47  50
ATOM     50  C   UNL     1       3.017   4.664  -0.176  1.00  0.00     0.044 CG1
ATOM     51  G   UNL     1       1.865   5.455  -0.904  1.00  0.00     0.000 G1
ENDBRANCH  47  50
BRANCH  49  52
ATOM     52  O   UNL     1       3.234   4.345   2.812  1.00  0.00    -0.508 OA
ATOM     53  H   UNL     1       3.779   5.067   2.482  1.00  0.00     0.293 HD
ENDBRANCH  49  52
ENDBRANCH   3  44
ENDBRANCH   2   3
BRANCH   2  54
ATOM     54  C   UNL     1      -0.373  -1.845  -1.087  1.00  0.00     0.031 C 
BRANCH  54  55
ATOM     55  C   UNL     1      -1.077  -1.254  -2.283  1.00  0.00    -0.030 C 
ATOM     56  C   UNL     1      -2.056  -1.899  -2.959  1.00  0.00    -0.021 C 
BRANCH  56  57
ATOM     57  C   UNL     1      -2.562  -3.332  -2.723  1.00  0.00     0.086 C 
BRANCH  57  58
ATOM     58  C   UNL     1      -4.136  -3.352  -2.395  1.00  0.00     0.122 CG0
ATOM     59  G   UNL     1      -4.702  -2.596  -1.062  1.00  0.00     0.000 G0
BRANCH  58  60
ATOM     60  C   UNL     1      -4.672  -4.778  -2.440  1.00  0.00     0.308 C 
ATOM     61  O   UNL     1      -4.243  -5.625  -1.674  1.00  0.00    -0.252 OA
BRANCH  60  62
ATOM     62  O   UNL     1      -5.582  -5.150  -3.364  1.00  0.00    -0.481 OA
ATOM     63  H   UNL     1      -5.923  -4.547  -4.038  1.00  0.00     0.296 HD
ENDBRANCH  60  62
ENDBRANCH  58  60
ENDBRANCH  57  58
BRANCH  57  64
ATOM     64  C   UNL     1      -2.118  -4.084  -4.070  1.00  0.00     0.176 C 
BRANCH  64  65
ATOM     65  O   UNL     1      -0.749  -3.829  -4.316  1.00  0.00    -0.365 OA
ATOM     66  H   UNL     1      -0.233  -4.011  -3.491  1.00  0.00     0.214 HD
ENDBRANCH  64  65
BRANCH  64  67
ATOM     67  O   UNL     1      -2.817  -3.513  -5.154  1.00  0.00    -0.365 OA
ATOM     68  H   UNL     1      -3.752  -3.842  -5.137  1.00  0.00     0.214 HD
ENDBRANCH  64  67
BRANCH  64  69
ATOM     69  C   UNL     1      -2.284  -5.637  -4.162  1.00  0.00     0.138 C 
BRANCH  69  70
ATOM     70  C   UNL     1      -1.566  -6.466  -3.127  1.00  0.00     0.229 C 
ATOM     71  O   UNL     1      -0.922  -5.969  -2.218  1.00  0.00    -0.303 OA
ENDBRANCH  69  70
ENDBRANCH  64  69
ENDBRANCH  57  64
ENDBRANCH  56  57
ENDBRANCH  54  55
ENDBRANCH   2  54
ENDBRANCH   1   2
BRANCH   1  72
ATOM     72  C   UNL     1       1.849  -1.578   2.201  1.00  0.00     0.000 C 
BRANCH  72  73
ATOM     73  C   UNL     1       3.319  -1.657   1.751  1.00  0.00     0.000 C 
BRANCH  73  74
ATOM     74  C   UNL     1       3.841  -0.352   1.138  1.00  0.00     0.001 C 
BRANCH  74  75
ATOM     75  C   UNL     1       5.374  -0.379   0.983  1.00  0.00     0.012 C 
BRANCH  75  76
ATOM     76  C   UNL     1       5.928   0.969   0.446  1.00  0.00     0.059 C 
BRANCH  76  77
ATOM     77  C   UNL     1       5.484   1.260  -0.975  1.00  0.00     0.228 C 
ATOM     78  O   UNL     1       4.867   0.445  -1.643  1.00  0.00    -0.303 OA
ENDBRANCH  76  77
BRANCH  76  79
ATOM     79  C   UNL     1       7.480   1.085   0.510  1.00  0.00     0.022 C 
ATOM     80  C   UNL     1       8.182  -0.006  -0.237  1.00  0.00    -0.024 C 
ATOM     81  C   UNL     1       8.105   0.963   1.907  1.00  0.00     0.013 C 
ATOM     82  C   UNL     1       8.800  -0.851   0.588  1.00  0.00    -0.073 C 
ATOM     83  C   UNL     1       8.606  -0.473   2.023  1.00  0.00     0.031 C 
BRANCH  82  84
ATOM     84  C   UNL     1       9.511  -2.099   0.132  1.00  0.00     0.045 C 
BRANCH  84  85
ATOM     85  C   UNL     1      10.997  -2.075   0.510  1.00  0.00     0.082 C 
BRANCH  85  86
ATOM     86  N   UNL     1      11.674  -0.945  -0.120  1.00  0.00    -0.330 NA
ATOM     87  H   UNL     1      11.630  -1.055  -1.159  1.00  0.00     0.118 HD
ATOM     88  H   UNL     1      12.681  -0.962   0.160  1.00  0.00     0.118 HD
ENDBRANCH  85  86
ENDBRANCH  84  85
ENDBRANCH  82  84
ENDBRANCH  76  79
ENDBRANCH  75  76
ENDBRANCH  74  75
ENDBRANCH  73  74
ENDBRANCH  72  73
ENDBRANCH   1  72
TORSDOF 22
