REMARK SMILES CN(C(=O)c1ccccc1Cl)N1c2ccccc2CCc2ccccc21
REMARK SMILES IDX 1 1 2 2 3 3 4 4 5 5 6 6 10 7 7 8 9 9 8 10 11 11 12 12 13 13
REMARK SMILES IDX 14 14 18 15 15 16 17 17 16 18 19 19 26 21 25 22 21 23 24 24
REMARK SMILES IDX 22 25 23 26 20 27
REMARK H PARENT
REMARK Flexibility Score:   28.900
ROOT
ATOM      1  C   UNL     1       1.094  -0.380  -1.855  1.00  0.00     0.176 C 
ATOM      2  N   UNL     1       0.695  -0.024  -0.493  1.00  0.00    -0.248 N 
ENDROOT
BRANCH   2   3
ATOM      3  C   UNL     1       1.583   0.450   0.453  1.00  0.00     0.273 C 
ATOM      4  O   UNL     1       1.142   0.890   1.506  1.00  0.00    -0.267 OA
BRANCH   3   5
ATOM      5  C   UNL     1       3.072   0.426   0.296  1.00  0.00     0.060 A 
ATOM      6  C   UNL     1       3.710  -0.705  -0.255  1.00  0.00     0.015 A 
ATOM      7  C   UNL     1       3.879   1.499   0.752  1.00  0.00     0.053 A 
ATOM      8  C   UNL     1       5.100  -0.759  -0.374  1.00  0.00     0.001 A 
ATOM      9  C   UNL     1       5.273   1.437   0.616  1.00  0.00     0.021 A 
ATOM     10  C   UNL     1       5.880   0.313   0.055  1.00  0.00     0.002 A 
ATOM     11  Cl  UNL     1       3.191   2.961   1.454  1.00  0.00    -0.083 Cl
ENDBRANCH   3   5
ENDBRANCH   2   3
BRANCH   2  12
ATOM     12  N   UNL     1      -0.667  -0.075  -0.198  1.00  0.00    -0.251 N 
BRANCH  12  13
ATOM     13  C   UNL     1      -1.350   1.203   0.006  1.00  0.00     0.067 A 
ATOM     14  C   UNL     1      -0.649   2.397  -0.337  1.00  0.00     0.028 A 
ATOM     15  C   UNL     1      -2.677   1.370   0.515  1.00  0.00    -0.022 A 
ATOM     16  C   UNL     1      -1.205   3.663  -0.179  1.00  0.00     0.002 A 
ATOM     17  C   UNL     1      -3.217   2.670   0.656  1.00  0.00     0.006 A 
ATOM     18  C   UNL     1      -2.487   3.800   0.319  1.00  0.00     0.000 A 
BRANCH  15  19
ATOM     19  C   UNL     1      -3.588   0.243   0.892  1.00  0.00     0.042 CG0
ATOM     20  G   UNL     1      -3.734  -0.682  -0.293  1.00  0.00     0.000 G0
ENDBRANCH  15  19
ENDBRANCH  12  13
BRANCH  12  21
ATOM     21  C   UNL     1      -1.256  -1.410  -0.164  1.00  0.00     0.067 A 
ATOM     22  C   UNL     1      -0.371  -2.521  -0.052  1.00  0.00     0.028 A 
ATOM     23  C   UNL     1      -2.651  -1.713  -0.223  1.00  0.00    -0.022 A 
ATOM     24  C   UNL     1      -0.820  -3.837  -0.021  1.00  0.00     0.002 A 
ATOM     25  C   UNL     1      -3.080  -3.060  -0.183  1.00  0.00     0.006 A 
ATOM     26  C   UNL     1      -2.174  -4.107  -0.090  1.00  0.00     0.000 A 
BRANCH  23  27
ATOM     27  C   UNL     1      -3.734  -0.682  -0.293  1.00  0.00     0.042 CG0
ATOM     28  G   UNL     1      -3.588   0.243   0.892  1.00  0.00     0.000 G0
ENDBRANCH  23  27
ENDBRANCH  12  21
ENDBRANCH   2  12
TORSDOF 3
