REMARK SMILES COC(=O)[C@@H]1[C@H]2C[C@H]3c4[nH]c5ccccc5c4CCN3C[C@@H]2C[C@@H](OC(=O)c2cc(OC)c(OC)c(OC)c2)[C@H]1OC
REMARK SMILES IDX 25 1 24 2 5 3 40 4 6 5 7 6 22 7 23 8 8 9 21 10 9 11 20 12
REMARK SMILES IDX 17 13 10 14 19 15 18 16 16 17 11 18 15 19 12 20 14 21 13 22
REMARK SMILES IDX 3 24 4 25 2 26 1 27 41 28 42 29 26 30 27 31 28 32 29 33
REMARK SMILES IDX 39 34 30 35 36 36 33 37 31 38 32 39 37 40 38 41 34 42 35 43
REMARK H PARENT 10 23
ROOT
ATOM      1  O   UNL     1       2.392  -0.102   0.294  1.00  0.00    -0.456 OA
ENDROOT
BRANCH   1   2
ATOM      2  C   UNL     1       1.053   0.215   0.118  1.00  0.00     0.207 C 
ATOM      3  C   UNL     1      -0.927   0.251  -1.449  1.00  0.00     0.135 C 
ATOM      4  C   UNL     1       0.522  -0.312  -1.216  1.00  0.00     0.173 C 
ATOM      5  C   UNL     1      -1.686   0.581  -0.103  1.00  0.00     0.012 C 
ATOM      6  C   UNL     1      -3.203   0.631  -0.341  1.00  0.00     0.030 C 
ATOM      7  C   UNL     1      -1.313  -0.477   0.948  1.00  0.00     0.011 C 
ATOM      8  C   UNL     1       0.207  -0.353   1.293  1.00  0.00     0.053 C 
ATOM      9  C   UNL     1      -3.967   0.758   0.991  1.00  0.00     0.104 C 
ATOM     10  C   UNL     1      -2.166  -0.353   2.228  1.00  0.00     0.089 C 
ATOM     11  C   UNL     1      -5.438   0.732   0.708  1.00  0.00     0.037 A 
ATOM     12  N   UNL     1      -3.616  -0.331   1.948  1.00  0.00    -0.294 NA
ATOM     13  C   UNL     1      -6.241  -0.344   1.026  1.00  0.00    -0.016 A 
ATOM     14  N   UNL     1      -6.155   1.725   0.138  1.00  0.00    -0.357 N 
ATOM     15  C   UNL     1      -4.188  -1.647   1.582  1.00  0.00     0.090 C 
ATOM     16  C   UNL     1      -5.732  -1.604   1.659  1.00  0.00     0.053 C 
ATOM     17  C   UNL     1      -7.518   0.019   0.657  1.00  0.00     0.003 A 
ATOM     18  C   UNL     1      -7.427   1.284   0.119  1.00  0.00     0.046 A 
ATOM     19  C   UNL     1      -8.734  -0.657   0.741  1.00  0.00     0.010 A 
ATOM     20  C   UNL     1      -8.548   1.958  -0.361  1.00  0.00     0.026 A 
ATOM     21  C   UNL     1      -9.882   0.000   0.259  1.00  0.00     0.001 A 
ATOM     22  C   UNL     1      -9.790   1.301  -0.286  1.00  0.00     0.002 A 
ATOM     23  H   UNL     1      -5.800   2.649  -0.196  1.00  0.00     0.166 HD
BRANCH   3  24
ATOM     24  C   UNL     1      -0.919   1.430  -2.403  1.00  0.00     0.311 C 
ATOM     25  O   UNL     1      -1.354   2.524  -2.064  1.00  0.00    -0.252 OA
BRANCH  24  26
ATOM     26  O   UNL     1      -0.456   1.236  -3.664  1.00  0.00    -0.469 OA
ATOM     27  C   UNL     1      -0.493   2.192  -4.656  1.00  0.00     0.282 C 
ENDBRANCH  24  26
ENDBRANCH   3  24
BRANCH   4  28
ATOM     28  O   UNL     1       0.478  -1.733  -1.145  1.00  0.00    -0.377 OA
ATOM     29  C   UNL     1       1.304  -2.319  -2.125  1.00  0.00     0.195 C 
ENDBRANCH   4  28
ENDBRANCH   1   2
BRANCH   1  30
ATOM     30  C   UNL     1       3.398   0.812   0.408  1.00  0.00     0.338 C 
ATOM     31  O   UNL     1       3.152   2.010   0.366  1.00  0.00    -0.246 OA
BRANCH  30  32
ATOM     32  C   UNL     1       4.804   0.362   0.576  1.00  0.00     0.067 A 
ATOM     33  C   UNL     1       5.118  -1.004   0.638  1.00  0.00     0.066 A 
ATOM     34  C   UNL     1       5.839   1.308   0.672  1.00  0.00     0.066 A 
ATOM     35  C   UNL     1       6.454  -1.428   0.795  1.00  0.00     0.165 A 
ATOM     36  C   UNL     1       7.177   0.901   0.826  1.00  0.00     0.165 A 
ATOM     37  C   UNL     1       7.475  -0.468   0.883  1.00  0.00     0.203 A 
BRANCH  35  38
ATOM     38  O   UNL     1       6.798  -2.741   0.863  1.00  0.00    -0.493 OA
ATOM     39  C   UNL     1       5.931  -3.811   0.802  1.00  0.00     0.278 C 
ENDBRANCH  35  38
BRANCH  36  40
ATOM     40  O   UNL     1       8.200   1.793   0.921  1.00  0.00    -0.493 OA
ATOM     41  C   UNL     1       8.082   3.166   0.881  1.00  0.00     0.278 C 
ENDBRANCH  36  40
BRANCH  37  42
ATOM     42  O   UNL     1       8.758  -0.868   1.032  1.00  0.00    -0.490 OA
ATOM     43  C   UNL     1       9.580  -1.088  -0.051  1.00  0.00     0.278 C 
ENDBRANCH  37  42
ENDBRANCH  30  32
ENDBRANCH   1  30
TORSDOF 9
