REMARK SMILES C[C@@H]1CC(=O)[C@]2(O)O[C@@H]3C[C@@]4(C=O)[C@@H](CC[C@@H]5[C@@H]4CC[C@]4(C)[C@H](C6=CC(=O)OC6)CC[C@]54O)C[C@H]3O[C@@H]2O1
REMARK SMILES IDX 1 1 2 2 3 3 4 4 5 5 6 6 8 7 9 8 10 9 11 10 14 11 15 12 16 13
REMARK SMILES IDX 17 14 18 15 19 16 20 17 21 18 22 19 23 20 30 21 31 22 32 23
REMARK SMILES IDX 34 24 35 25 36 26 37 27 38 28 7 29 12 31 13 32 33 33 24 35
REMARK SMILES IDX 25 36 29 37 26 38 28 39 27 40
REMARK H PARENT 7 30 33 34
ROOT
ATOM      1  C   UNL     1       8.558  -1.298   0.108  1.00  0.00     0.039 C 
ATOM      2  C   UNL     1       7.261  -1.410  -0.691  1.00  0.00     0.126 C 
ATOM      3  C   UNL     1       6.619  -0.010  -0.828  1.00  0.00     0.113 C 
ATOM      4  C   UNL     1       5.277  -0.119  -1.477  1.00  0.00     0.199 C 
ATOM      5  O   UNL     1       4.616   0.887  -1.692  1.00  0.00    -0.293 OA
ATOM      6  C   UNL     1       4.688  -1.498  -1.660  1.00  0.00     0.279 C 
ATOM      7  O   UNL     1       3.282  -1.434  -1.908  1.00  0.00    -0.334 OA
ATOM      8  C   UNL     1       2.478  -1.527  -0.735  1.00  0.00     0.152 C 
ATOM      9  C   UNL     1       1.195  -0.684  -0.951  1.00  0.00     0.050 C 
ATOM     10  C   UNL     1       0.257  -0.641   0.308  1.00  0.00     0.035 C 
ATOM     11  C   UNL     1       1.138  -0.094   1.486  1.00  0.00     0.005 C 
ATOM     12  C   UNL     1       0.337   0.193   2.764  1.00  0.00     0.005 C 
ATOM     13  C   UNL     1      -0.763   1.220   2.466  1.00  0.00     0.007 C 
ATOM     14  C   UNL     1      -1.718   0.645   1.406  1.00  0.00     0.026 C 
ATOM     15  C   UNL     1      -0.941   0.354   0.070  1.00  0.00     0.009 C 
ATOM     16  C   UNL     1      -1.909  -0.080  -1.080  1.00  0.00     0.006 C 
ATOM     17  C   UNL     1      -3.317  -0.429  -0.568  1.00  0.00     0.010 C 
ATOM     18  C   UNL     1      -4.041   0.659   0.328  1.00  0.00     0.003 C 
ATOM     19  C   UNL     1      -5.015  -0.127   1.256  1.00  0.00     0.015 C 
ATOM     20  C   UNL     1      -4.786   1.773  -0.469  1.00  0.00     0.028 C 
ATOM     21  C   UNL     1      -3.670   2.744  -0.861  1.00  0.00     0.012 C 
ATOM     22  C   UNL     1      -2.791   2.833   0.388  1.00  0.00     0.037 C 
ATOM     23  C   UNL     1      -3.002   1.497   1.177  1.00  0.00     0.074 C 
ATOM     24  C   UNL     1       2.323  -1.037   1.764  1.00  0.00     0.039 C 
ATOM     25  C   UNL     1       3.235  -1.050   0.537  1.00  0.00     0.151 C 
ATOM     26  O   UNL     1       4.363  -1.857   0.808  1.00  0.00    -0.341 OA
ATOM     27  C   UNL     1       5.033  -2.310  -0.362  1.00  0.00     0.319 C 
ATOM     28  O   UNL     1       6.428  -2.376  -0.053  1.00  0.00    -0.344 OA
ENDROOT
BRANCH   6  29
ATOM     29  O   UNL     1       5.306  -2.134  -2.750  1.00  0.00    -0.356 OA
ATOM     30  H   UNL     1       5.085  -1.605  -3.561  1.00  0.00     0.214 HD
ENDBRANCH   6  29
BRANCH  10  31
ATOM     31  C   UNL     1      -0.316  -2.024   0.636  1.00  0.00     0.231 C 
ATOM     32  O   UNL     1      -0.127  -2.989  -0.089  1.00  0.00    -0.303 OA
ENDBRANCH  10  31
BRANCH  23  33
ATOM     33  O   UNL     1      -3.534   1.812   2.452  1.00  0.00    -0.389 OA
ATOM     34  H   UNL     1      -4.348   2.370   2.342  1.00  0.00     0.211 HD
ENDBRANCH  23  33
BRANCH  20  35
ATOM     35  C   UNL     1      -5.678   1.318  -1.624  1.00  0.00    -0.022 C 
ATOM     36  C   UNL     1      -5.556   1.696  -2.896  1.00  0.00     0.096 C 
ATOM     37  C   UNL     1      -6.874   0.392  -1.511  1.00  0.00     0.265 C 
ATOM     38  C   UNL     1      -6.628   1.052  -3.613  1.00  0.00     0.331 C 
ATOM     39  O   UNL     1      -7.385   0.315  -2.793  1.00  0.00    -0.458 OA
ATOM     40  O   UNL     1      -6.842   1.163  -4.810  1.00  0.00    -0.247 OA
ENDBRANCH  20  35
TORSDOF 4
