REMARK SMILES COc1ccc(C=CC(=O)OC[C@H](O)COC(=O)C=Cc2ccc(O)cc2)cc1OC
REMARK SMILES IDX 13 1 12 2 11 3 9 4 10 5 8 6 7 7 6 8 3 9 4 10 29 11 5 12
REMARK SMILES IDX 28 13 2 14 1 15 30 16 31 17 14 18 15 20 16 21 17 22 18 23
REMARK SMILES IDX 19 24 20 25 21 26 22 27 27 28 23 29 26 30 24 31 25 32
REMARK H PARENT 14 19 25 33
ROOT
ATOM      1  C   UNL     1       0.317   0.221  -2.681  1.00  0.00     0.189 C 
ENDROOT
BRANCH   1   2
ATOM      2  C   UNL     1      -0.599  -0.824  -2.017  1.00  0.00     0.268 C 
BRANCH   2   3
ATOM      3  O   UNL     1      -1.115  -0.342  -0.821  1.00  0.00    -0.460 OA
BRANCH   3   4
ATOM      4  C   UNL     1      -0.764  -0.794   0.407  1.00  0.00     0.330 C 
ATOM      5  O   UNL     1       0.251  -1.467   0.532  1.00  0.00    -0.247 OA
BRANCH   4   6
ATOM      6  C   UNL     1      -1.461  -0.385   1.653  1.00  0.00     0.094 C 
ATOM      7  C   UNL     1      -2.692   0.127   1.906  1.00  0.00     0.016 C 
BRANCH   7   8
ATOM      8  C   UNL     1      -3.903   0.417   1.065  1.00  0.00    -0.021 A 
ATOM      9  C   UNL     1      -6.334   0.986  -0.293  1.00  0.00     0.160 A 
ATOM     10  C   UNL     1      -5.271   0.342  -0.954  1.00  0.00     0.051 A 
ATOM     11  C   UNL     1      -6.187   1.340   1.054  1.00  0.00     0.161 A 
ATOM     12  C   UNL     1      -4.078   0.053  -0.282  1.00  0.00     0.012 A 
ATOM     13  C   UNL     1      -4.978   1.056   1.718  1.00  0.00     0.058 A 
BRANCH   9  14
ATOM     14  O   UNL     1      -7.514   1.266  -0.907  1.00  0.00    -0.493 OA
ATOM     15  C   UNL     1      -7.840   0.969  -2.214  1.00  0.00     0.278 C 
ENDBRANCH   9  14
BRANCH  11  16
ATOM     16  O   UNL     1      -7.238   1.937   1.680  1.00  0.00    -0.493 OA
ATOM     17  C   UNL     1      -7.295   2.290   3.012  1.00  0.00     0.278 C 
ENDBRANCH  11  16
ENDBRANCH   7   8
ENDBRANCH   4   6
ENDBRANCH   3   4
ENDBRANCH   2   3
ENDBRANCH   1   2
BRANCH   1  18
ATOM     18  O   UNL     1       0.713  -0.214  -3.959  1.00  0.00    -0.386 OA
ATOM     19  H   UNL     1       1.173  -1.089  -3.857  1.00  0.00     0.211 HD
ENDBRANCH   1  18
BRANCH   1  20
ATOM     20  C   UNL     1       1.554   0.556  -1.823  1.00  0.00     0.268 C 
BRANCH  20  21
ATOM     21  O   UNL     1       2.333  -0.572  -1.644  1.00  0.00    -0.460 OA
BRANCH  21  22
ATOM     22  C   UNL     1       3.473  -0.621  -0.906  1.00  0.00     0.330 C 
ATOM     23  O   UNL     1       3.819   0.347  -0.253  1.00  0.00    -0.247 OA
BRANCH  22  24
ATOM     24  C   UNL     1       4.197  -1.917  -0.854  1.00  0.00     0.094 C 
ATOM     25  C   UNL     1       5.372  -2.289  -0.286  1.00  0.00     0.015 C 
BRANCH  25  26
ATOM     26  C   UNL     1       6.452  -1.543   0.443  1.00  0.00    -0.025 A 
ATOM     27  C   UNL     1       7.375  -2.326   1.168  1.00  0.00     0.012 A 
ATOM     28  C   UNL     1       6.645  -0.145   0.427  1.00  0.00     0.012 A 
ATOM     29  C   UNL     1       8.431  -1.741   1.871  1.00  0.00     0.047 A 
ATOM     30  C   UNL     1       7.704   0.439   1.133  1.00  0.00     0.047 A 
ATOM     31  C   UNL     1       8.596  -0.353   1.859  1.00  0.00     0.115 A 
BRANCH  31  32
ATOM     32  O   UNL     1       9.612   0.228   2.531  1.00  0.00    -0.508 OA
ATOM     33  H   UNL     1      10.254  -0.288   3.039  1.00  0.00     0.293 HD
ENDBRANCH  31  32
ENDBRANCH  25  26
ENDBRANCH  22  24
ENDBRANCH  21  22
ENDBRANCH  20  21
ENDBRANCH   1  20
TORSDOF 14
