REMARK SMILES C=CCCC[C@@H]1CCC[C@H](CCCCC)N1
REMARK SMILES IDX 6 1 7 2 8 3 9 4 10 5 16 6 5 8 4 9 3 10 2 11 1 12 11 13 12 14
REMARK SMILES IDX 13 15 14 16 15 17
REMARK H PARENT 16 7
ROOT
ATOM      1  C   UNL     1      -1.372  -1.082  -0.896  1.00  0.00     0.053 C 
ATOM      2  C   UNL     1      -1.430  -1.751   0.489  1.00  0.00     0.019 C 
ATOM      3  C   UNL     1      -0.929  -0.806   1.597  1.00  0.00     0.003 C 
ATOM      4  C   UNL     1       0.255   0.068   1.133  1.00  0.00     0.019 C 
ATOM      5  C   UNL     1       0.967  -0.568  -0.077  1.00  0.00     0.053 C 
ATOM      6  N   UNL     1       0.017  -0.651  -1.219  1.00  0.00    -0.311 NA
ATOM      7  H   UNL     1       0.425  -1.287  -1.946  1.00  0.00     0.123 HD
ENDROOT
BRANCH   1   8
ATOM      8  C   UNL     1      -2.335   0.119  -1.046  1.00  0.00     0.019 C 
BRANCH   8   9
ATOM      9  C   UNL     1      -3.810  -0.273  -0.856  1.00  0.00     0.006 C 
BRANCH   9  10
ATOM     10  C   UNL     1      -4.732   0.938  -1.015  1.00  0.00     0.027 C 
BRANCH  10  11
ATOM     11  C   UNL     1      -6.165   0.517  -0.827  1.00  0.00    -0.035 C 
ATOM     12  C   UNL     1      -6.925   1.011   0.155  1.00  0.00     0.004 C 
ENDBRANCH  10  11
ENDBRANCH   9  10
ENDBRANCH   8   9
ENDBRANCH   1   8
BRANCH   5  13
ATOM     13  C   UNL     1       2.211   0.227  -0.527  1.00  0.00     0.019 C 
BRANCH  13  14
ATOM     14  C   UNL     1       3.317   0.266   0.541  1.00  0.00     0.002 C 
BRANCH  14  15
ATOM     15  C   UNL     1       4.582   0.951   0.002  1.00  0.00    -0.000 C 
BRANCH  15  16
ATOM     16  C   UNL     1       5.702   1.059   1.051  1.00  0.00    -0.003 C 
ATOM     17  C   UNL     1       6.221  -0.298   1.530  1.00  0.00     0.004 C 
ENDBRANCH  15  16
ENDBRANCH  14  15
ENDBRANCH  13  14
ENDBRANCH   5  13
TORSDOF 8
