REMARK SMILES CC(=O)c1c(O)c(C)c(O)c2c1OC1=CC(=O)/C(=C(/C)Nc3ccc4[nH]c(=O)[nH]c4c3)C(=O)[C@@]12C
REMARK SMILES IDX 4 1 5 2 7 3 8 4 9 5 11 6 12 7 13 8 14 9 15 10 16 11 17 12
REMARK SMILES IDX 18 13 19 14 20 15 32 16 33 17 34 18 35 19 2 20 3 21 1 22
REMARK SMILES IDX 6 23 10 25 21 27 22 29 23 30 31 31 24 32 30 33 25 34 29 35
REMARK SMILES IDX 26 36 27 37 28 38
REMARK H PARENT 6 24 10 26 21 28 29 39 26 40
ROOT
ATOM      1  C   UNL     1      -4.618   1.414   0.221  1.00  0.00     0.103 A 
ATOM      2  C   UNL     1      -5.306   0.550  -0.709  1.00  0.00     0.136 A 
ATOM      3  C   UNL     1      -4.744  -0.712  -1.076  1.00  0.00     0.034 A 
ATOM      4  C   UNL     1      -5.456  -1.615  -2.059  1.00  0.00     0.052 C 
ATOM      5  C   UNL     1      -3.512  -1.136  -0.526  1.00  0.00     0.130 A 
ATOM      6  C   UNL     1      -2.855  -0.286   0.353  1.00  0.00     0.059 A 
ATOM      7  C   UNL     1      -3.382   0.939   0.714  1.00  0.00     0.149 A 
ATOM      8  O   UNL     1      -2.570   1.593   1.570  1.00  0.00    -0.459 OA
ATOM      9  C   UNL     1      -1.447   0.862   1.705  1.00  0.00     0.126 C 
ATOM     10  C   UNL     1      -0.317   1.310   2.261  1.00  0.00     0.096 C 
ATOM     11  C   UNL     1       0.934   0.523   2.089  1.00  0.00     0.194 C 
ATOM     12  O   UNL     1       1.927   0.895   2.692  1.00  0.00    -0.289 OA
ATOM     13  C   UNL     1       0.997  -0.555   1.011  1.00  0.00     0.085 C 
ATOM     14  C   UNL     1       2.169  -1.174   0.641  1.00  0.00     0.027 C 
ATOM     15  C   UNL     1       2.231  -2.305  -0.382  1.00  0.00     0.065 C 
ATOM     16  C   UNL     1      -0.319  -0.784   0.306  1.00  0.00     0.186 C 
ATOM     17  O   UNL     1      -0.385  -1.117  -0.867  1.00  0.00    -0.292 OA
ATOM     18  C   UNL     1      -1.567  -0.492   1.091  1.00  0.00     0.121 C 
ATOM     19  C   UNL     1      -1.739  -1.572   2.177  1.00  0.00     0.034 C 
ENDROOT
BRANCH   1  20
ATOM     20  C   UNL     1      -5.088   2.768   0.721  1.00  0.00     0.167 C 
ATOM     21  O   UNL     1      -4.380   3.385   1.504  1.00  0.00    -0.294 OA
ATOM     22  C   UNL     1      -6.379   3.439   0.355  1.00  0.00     0.094 C 
ENDBRANCH   1  20
BRANCH   2  23
ATOM     23  O   UNL     1      -6.490   0.860  -1.282  1.00  0.00    -0.507 OA
ATOM     24  H   UNL     1      -7.016   1.650  -1.171  1.00  0.00     0.293 HD
ENDBRANCH   2  23
BRANCH   5  25
ATOM     25  O   UNL     1      -2.950  -2.328  -0.831  1.00  0.00    -0.507 OA
ATOM     26  H   UNL     1      -3.337  -2.969  -1.440  1.00  0.00     0.293 HD
ENDBRANCH   5  25
BRANCH  14  27
ATOM     27  N   UNL     1       3.403  -0.835   1.280  1.00  0.00    -0.358 N 
ATOM     28  H   UNL     1       3.440  -0.824   2.310  1.00  0.00     0.166 HD
BRANCH  27  29
ATOM     29  C   UNL     1       4.569  -0.410   0.571  1.00  0.00     0.040 A 
ATOM     30  C   UNL     1       5.798  -0.275   1.274  1.00  0.00     0.028 A 
ATOM     31  C   UNL     1       4.519  -0.060  -0.804  1.00  0.00     0.054 A 
ATOM     32  C   UNL     1       6.963   0.177   0.621  1.00  0.00     0.030 A 
ATOM     33  C   UNL     1       5.686   0.377  -1.414  1.00  0.00     0.068 A 
ATOM     34  C   UNL     1       6.865   0.492  -0.730  1.00  0.00     0.066 A 
ATOM     35  N   UNL     1       5.865   0.754  -2.692  1.00  0.00    -0.306 N 
ATOM     36  N   UNL     1       7.824   0.943  -1.558  1.00  0.00    -0.306 N 
ATOM     37  C   UNL     1       7.183   1.095  -2.754  1.00  0.00     0.323 A 
ATOM     38  O   UNL     1       7.730   1.494  -3.766  1.00  0.00    -0.248 OA
ATOM     39  H   UNL     1       5.156   0.779  -3.459  1.00  0.00     0.171 HD
ATOM     40  H   UNL     1       8.826   1.137  -1.336  1.00  0.00     0.171 HD
ENDBRANCH  27  29
ENDBRANCH  14  27
TORSDOF 5
