REMARK SMILES CC1=C(CC[C@@H](C)CO)O[C@H]2C[C@H]3[C@@H]4CC[C@H]5C[C@@H](O)CC[C@]5(C)[C@@H]4CC(=O)[C@]3(C)[C@H]12
REMARK SMILES IDX 5 1 4 2 3 3 2 4 31 5 10 6 29 7 11 8 27 9 13 10 12 11 26 12
REMARK SMILES IDX 28 13 14 14 25 15 15 16 23 17 16 18 22 19 17 20 21 21 18 22
REMARK SMILES IDX 19 23 1 24 30 25 24 26 20 27 6 29 7 30 8 31 9 32
REMARK H PARENT 20 28 9 33
ROOT
ATOM      1  C   UNL     1      -5.703   1.519  -0.221  1.00  0.00     0.013 C 
ENDROOT
BRANCH   1   2
ATOM      2  C   UNL     1      -5.396   0.373  -1.208  1.00  0.00     0.075 C 
BRANCH   2   3
ATOM      3  C   UNL     1      -3.993  -0.161  -1.046  1.00  0.00     0.096 C 
ATOM      4  C   UNL     1      -2.972  -0.078  -1.946  1.00  0.00    -0.028 C 
ATOM      5  C   UNL     1      -1.859  -0.829  -1.316  1.00  0.00     0.073 C 
ATOM      6  O   UNL     1      -3.582  -0.782   0.105  1.00  0.00    -0.494 OA
ATOM      7  C   UNL     1      -0.296  -0.880  -1.394  1.00  0.00     0.040 C 
ATOM      8  C   UNL     1      -2.217  -0.646   0.116  1.00  0.00     0.181 C 
ATOM      9  C   UNL     1       0.504   0.322  -1.907  1.00  0.00     0.140 C 
ATOM     10  C   UNL     1       0.056  -0.986   0.118  1.00  0.00     0.010 C 
ATOM     11  C   UNL     1      -1.201  -1.572   0.821  1.00  0.00     0.050 C 
ATOM     12  C   UNL     1       1.760   0.778  -1.127  1.00  0.00     0.080 C 
ATOM     13  O   UNL     1       0.327   0.720  -3.049  1.00  0.00    -0.299 OA
ATOM     14  C   UNL     1       1.548  -1.291   0.447  1.00  0.00    -0.003 C 
ATOM     15  C   UNL     1       2.486  -0.507  -0.587  1.00  0.00     0.006 C 
ATOM     16  C   UNL     1       1.780  -0.818   1.917  1.00  0.00     0.004 C 
ATOM     17  C   UNL     1       3.981  -0.395  -0.083  1.00  0.00    -0.026 C 
ATOM     18  C   UNL     1       3.243  -0.787   2.337  1.00  0.00     0.004 C 
ATOM     19  C   UNL     1       4.804   0.584  -0.981  1.00  0.00     0.010 C 
ATOM     20  C   UNL     1       4.026   0.139   1.387  1.00  0.00    -0.002 C 
ATOM     21  C   UNL     1       6.248   0.783  -0.487  1.00  0.00     0.032 C 
ATOM     22  C   UNL     1       5.475   0.336   1.893  1.00  0.00     0.036 C 
ATOM     23  C   UNL     1       6.243   1.296   0.964  1.00  0.00     0.114 C 
ATOM     24  C   UNL     1      -2.940   0.554  -3.308  1.00  0.00     0.043 C 
ATOM     25  C   UNL     1       0.077  -2.144  -2.229  1.00  0.00     0.021 C 
ATOM     26  C   UNL     1       4.615  -1.823  -0.199  1.00  0.00     0.012 C 
BRANCH  23  27
ATOM     27  O   UNL     1       7.554   1.497   1.427  1.00  0.00    -0.393 OA
ATOM     28  H   UNL     1       8.017   0.618   1.408  1.00  0.00     0.210 HD
ENDBRANCH  23  27
ENDBRANCH   2   3
ENDBRANCH   1   2
BRANCH   1  29
ATOM     29  C   UNL     1      -5.637   1.158   1.287  1.00  0.00     0.012 C 
ATOM     30  C   UNL     1      -5.910   2.408   2.135  1.00  0.00     0.010 C 
BRANCH  29  31
ATOM     31  C   UNL     1      -6.612   0.025   1.667  1.00  0.00     0.159 C 
BRANCH  31  32
ATOM     32  O   UNL     1      -7.938   0.361   1.348  1.00  0.00    -0.396 OA
ATOM     33  H   UNL     1      -8.326   0.800   2.149  1.00  0.00     0.210 HD
ENDBRANCH  31  32
ENDBRANCH  29  31
ENDBRANCH   1  29
TORSDOF 6
