REMARK SMILES Cc1c(Cl)ccc2c1NC(=O)[C@@]21N[C@@H](CC(N)=O)[C@H]2C(=O)N(CCc3ccccc3)C(=O)[C@H]21
REMARK SMILES IDX 1 1 2 2 3 3 4 4 5 5 6 6 7 7 8 8 9 9 10 10 11 11 12 12 13 13
REMARK SMILES IDX 14 14 19 15 20 16 21 17 22 18 31 19 32 20 33 21 15 24 16 25
REMARK SMILES IDX 17 26 18 27 23 30 24 31 25 32 26 33 30 34 27 35 29 36 28 37
REMARK H PARENT 9 22 13 23 17 28 17 29
ROOT
ATOM      1  C   UNL     1      -3.140   1.472  -4.353  1.00  0.00     0.048 C 
ATOM      2  C   UNL     1      -2.652   0.690  -3.162  1.00  0.00    -0.008 A 
ATOM      3  C   UNL     1      -2.487  -0.719  -3.178  1.00  0.00     0.046 A 
ATOM      4  Cl  UNL     1      -2.833  -1.686  -4.608  1.00  0.00    -0.084 Cl
ATOM      5  C   UNL     1      -2.047  -1.393  -2.019  1.00  0.00     0.021 A 
ATOM      6  C   UNL     1      -1.766  -0.688  -0.840  1.00  0.00     0.010 A 
ATOM      7  C   UNL     1      -1.923   0.699  -0.835  1.00  0.00     0.006 A 
ATOM      8  C   UNL     1      -2.356   1.360  -1.967  1.00  0.00     0.051 A 
ATOM      9  N   UNL     1      -2.474   2.735  -1.724  1.00  0.00    -0.324 N 
ATOM     10  C   UNL     1      -2.143   2.958  -0.439  1.00  0.00     0.250 C 
ATOM     11  O   UNL     1      -2.189   4.069   0.066  1.00  0.00    -0.272 OA
ATOM     12  C   UNL     1      -1.735   1.701   0.299  1.00  0.00     0.138 C 
ATOM     13  N   UNL     1      -2.664   1.405   1.396  1.00  0.00    -0.295 NA
ATOM     14  C   UNL     1      -1.874   1.045   2.583  1.00  0.00     0.077 C 
ATOM     15  C   UNL     1      -0.387   1.026   2.194  1.00  0.00     0.112 C 
ATOM     16  C   UNL     1       0.358  -0.221   1.811  1.00  0.00     0.234 C 
ATOM     17  O   UNL     1       0.473  -1.198   2.535  1.00  0.00    -0.274 OA
ATOM     18  N   UNL     1       1.066  -0.059   0.672  1.00  0.00    -0.282 N 
ATOM     19  C   UNL     1       0.749   1.134   0.124  1.00  0.00     0.235 C 
ATOM     20  O   UNL     1       1.198   1.530  -0.940  1.00  0.00    -0.274 OA
ATOM     21  C   UNL     1      -0.313   1.846   0.913  1.00  0.00     0.127 C 
ATOM     22  H   UNL     1      -2.786   3.453  -2.394  1.00  0.00     0.170 HD
ATOM     23  H   UNL     1      -3.384   0.687   1.143  1.00  0.00     0.124 HD
ENDROOT
BRANCH  14  24
ATOM     24  C   UNL     1      -2.350  -0.246   3.283  1.00  0.00     0.119 C 
BRANCH  24  25
ATOM     25  C   UNL     1      -3.767  -0.235   3.825  1.00  0.00     0.219 C 
ATOM     26  N   UNL     1      -4.582   0.848   3.757  1.00  0.00    -0.370 N 
ATOM     27  O   UNL     1      -4.184  -1.255   4.353  1.00  0.00    -0.275 OA
ATOM     28  H   UNL     1      -4.287   1.738   3.338  1.00  0.00     0.159 HD
ATOM     29  H   UNL     1      -5.536   0.798   4.145  1.00  0.00     0.159 HD
ENDBRANCH  24  25
ENDBRANCH  14  24
BRANCH  18  30
ATOM     30  C   UNL     1       2.037  -1.011   0.149  1.00  0.00     0.133 C 
BRANCH  30  31
ATOM     31  C   UNL     1       3.446  -0.387   0.165  1.00  0.00     0.057 C 
BRANCH  31  32
ATOM     32  C   UNL     1       4.532  -1.369  -0.201  1.00  0.00    -0.046 A 
ATOM     33  C   UNL     1       5.324  -1.164  -1.344  1.00  0.00     0.004 A 
ATOM     34  C   UNL     1       4.788  -2.483   0.619  1.00  0.00     0.004 A 
ATOM     35  C   UNL     1       6.351  -2.061  -1.661  1.00  0.00     0.000 A 
ATOM     36  C   UNL     1       5.818  -3.374   0.300  1.00  0.00     0.000 A 
ATOM     37  C   UNL     1       6.598  -3.163  -0.840  1.00  0.00     0.000 A 
ENDBRANCH  31  32
ENDBRANCH  30  31
ENDBRANCH  18  30
TORSDOF 5
