REMARK SMILES O=C(N[C@H](Cc1ccccc1)C(=O)OC[C@@H]1O[C@@H](O)[C@@H](O)[C@H](O)[C@@H]1O)OCc1ccccc1
REMARK SMILES IDX 12 1 13 2 4 3 3 4 1 5 2 6 26 8 27 9 28 10 29 11 33 12 30 13
REMARK SMILES IDX 32 14 31 15 5 16 6 17 7 18 11 19 8 20 10 21 9 22 14 23 15 24
REMARK SMILES IDX 16 25 17 26 24 27 18 28 22 29 20 30 25 31 19 33 23 35 21 37
REMARK H PARENT 3 7 25 32 19 34 23 36 21 38
ROOT
ATOM      1  C   UNL     1       1.257  -0.667   0.640  1.00  0.00     0.329 C 
ATOM      2  O   UNL     1       1.145  -1.664  -0.063  1.00  0.00    -0.250 OA
ENDROOT
BRANCH   1   3
ATOM      3  C   UNL     1       0.045   0.141   1.022  1.00  0.00     0.199 C 
BRANCH   3   4
ATOM      4  N   UNL     1      -1.171  -0.437   0.448  1.00  0.00    -0.308 N 
ATOM      5  O   UNL     1      -2.218  -0.726   2.411  1.00  0.00    -0.225 OA
ATOM      6  C   UNL     1      -2.239  -0.825   1.191  1.00  0.00     0.408 C 
ATOM      7  H   UNL     1      -1.239  -0.509  -0.580  1.00  0.00     0.168 HD
BRANCH   6   8
ATOM      8  O   UNL     1      -3.358  -1.276   0.561  1.00  0.00    -0.445 OA
BRANCH   8   9
ATOM      9  C   UNL     1      -4.572  -1.417   1.206  1.00  0.00     0.270 C 
BRANCH   9  10
ATOM     10  C   UNL     1      -5.639  -1.856   0.239  1.00  0.00    -0.011 A 
ATOM     11  C   UNL     1      -5.612  -3.143  -0.324  1.00  0.00     0.007 A 
ATOM     12  C   UNL     1      -6.686  -0.980  -0.098  1.00  0.00     0.007 A 
ATOM     13  C   UNL     1      -6.626  -3.548  -1.202  1.00  0.00     0.000 A 
ATOM     14  C   UNL     1      -7.689  -1.385  -0.983  1.00  0.00     0.000 A 
ATOM     15  C   UNL     1      -7.662  -2.668  -1.532  1.00  0.00     0.000 A 
ENDBRANCH   9  10
ENDBRANCH   8   9
ENDBRANCH   6   8
ENDBRANCH   3   4
BRANCH   3  16
ATOM     16  C   UNL     1       0.171   1.599   0.535  1.00  0.00     0.072 C 
BRANCH  16  17
ATOM     17  C   UNL     1      -0.959   2.434   1.095  1.00  0.00    -0.045 A 
ATOM     18  C   UNL     1      -0.991   2.743   2.467  1.00  0.00     0.004 A 
ATOM     19  C   UNL     1      -1.992   2.899   0.264  1.00  0.00     0.004 A 
ATOM     20  C   UNL     1      -2.037   3.503   2.997  1.00  0.00     0.000 A 
ATOM     21  C   UNL     1      -3.045   3.649   0.801  1.00  0.00     0.000 A 
ATOM     22  C   UNL     1      -3.066   3.952   2.165  1.00  0.00     0.000 A 
ENDBRANCH  16  17
ENDBRANCH   3  16
ENDBRANCH   1   3
BRANCH   1  23
ATOM     23  O   UNL     1       2.465  -0.309   1.152  1.00  0.00    -0.461 OA
BRANCH  23  24
ATOM     24  C   UNL     1       3.653  -0.998   0.977  1.00  0.00     0.268 C 
BRANCH  24  25
ATOM     25  C   UNL     1       4.157  -0.950  -0.475  1.00  0.00     0.190 C 
ATOM     26  O   UNL     1       5.326  -1.775  -0.606  1.00  0.00    -0.340 OA
ATOM     27  C   UNL     1       4.294   0.522  -1.012  1.00  0.00     0.178 C 
ATOM     28  C   UNL     1       6.506  -1.036  -0.867  1.00  0.00     0.279 C 
ATOM     29  C   UNL     1       5.010   0.394  -2.376  1.00  0.00     0.179 C 
ATOM     30  C   UNL     1       6.414  -0.249  -2.205  1.00  0.00     0.201 C 
BRANCH  27  31
ATOM     31  O   UNL     1       4.989   1.324  -0.079  1.00  0.00    -0.387 OA
ATOM     32  H   UNL     1       5.541   1.993  -0.552  1.00  0.00     0.211 HD
ENDBRANCH  27  31
BRANCH  28  33
ATOM     33  O   UNL     1       7.635  -1.871  -0.851  1.00  0.00    -0.366 OA
ATOM     34  H   UNL     1       7.402  -2.694  -1.353  1.00  0.00     0.213 HD
ENDBRANCH  28  33
BRANCH  29  35
ATOM     35  O   UNL     1       5.044   1.590  -3.115  1.00  0.00    -0.387 OA
ATOM     36  H   UNL     1       5.721   2.191  -2.711  1.00  0.00     0.211 HD
ENDBRANCH  29  35
BRANCH  30  37
ATOM     37  O   UNL     1       6.707  -1.051  -3.322  1.00  0.00    -0.385 OA
ATOM     38  H   UNL     1       6.106  -1.841  -3.289  1.00  0.00     0.211 HD
ENDBRANCH  30  37
ENDBRANCH  24  25
ENDBRANCH  23  24
ENDBRANCH   1  23
TORSDOF 14
