REMARK SMILES C[C][C][C][C][C][C][C]/C=C\CCCCCCC[C]CC[C]CCC(=O)OC[C@@H](COC(=O)CCCCCCCCCCCCC)OC(=O)CCCCCC/C=C\C/C=C\C/C=C\CCCCC
REMARK SMILES IDX 24 1 25 2 26 3 27 4 28 5 46 6 47 7 48 8 49 9 50 10 51 11
REMARK SMILES IDX 52 12 53 13 54 14 55 15 56 16 57 17 58 18 59 19 60 20 61 21
REMARK SMILES IDX 62 22 63 23 64 24 65 25 66 26 67 27 29 28 30 29 31 30 32 31
REMARK SMILES IDX 33 32 34 33 35 34 36 35 37 36 38 37 39 38 40 39 41 40 42 41
REMARK SMILES IDX 43 42 44 43 45 44 23 45 22 46 21 47 20 48 19 49 18 50 17 51
REMARK SMILES IDX 16 52 15 53 14 54 13 55 12 56 11 57 10 58 9 59 8 60 7 61
REMARK SMILES IDX 6 62 5 63 4 64 3 65 2 66 1 67
REMARK H PARENT
ROOT
ATOM      1  C   UNL     1      17.726 -13.341  -0.011  1.00  0.00     0.305 C 
ATOM      2  O   UNL     1      17.174 -13.973   0.877  1.00  0.00    -0.252 OA
ENDROOT
BRANCH   1   3
ATOM      3  O   UNL     1      17.132 -12.054  -0.356  1.00  0.00    -0.462 OA
BRANCH   3   4
ATOM      4  C   UNL     1      15.750 -11.691   0.000  1.00  0.00     0.281 C 
BRANCH   4   5
ATOM      5  C   UNL     1      15.000 -10.392   0.000  1.00  0.00     0.251 C 
BRANCH   5   6
ATOM      6  O   UNL     1      14.250  -9.093   0.000  1.00  0.00    -0.455 OA
BRANCH   6   7
ATOM      7  C   UNL     1      13.352  -8.280   0.709  1.00  0.00     0.306 C 
ATOM      8  O   UNL     1      13.463  -8.174   1.919  1.00  0.00    -0.252 OA
BRANCH   7   9
ATOM      9  C   UNL     1      12.000  -7.794   0.000  1.00  0.00     0.123 C 
BRANCH   9  10
ATOM     10  C   UNL     1      11.250  -6.495   0.000  1.00  0.00     0.012 C 
BRANCH  10  11
ATOM     11  C   UNL     1      10.500  -5.196   0.000  1.00  0.00     0.001 C 
BRANCH  11  12
ATOM     12  C   UNL     1      10.632  -3.701   0.312  1.00  0.00     0.000 C 
BRANCH  12  13
ATOM     13  C   UNL     1       9.179  -3.044   0.174  1.00  0.00     0.004 C 
BRANCH  13  14
ATOM     14  C   UNL     1       9.240  -1.530   0.335  1.00  0.00     0.027 C 
BRANCH  14  15
ATOM     15  C   UNL     1       8.062  -0.540   0.262  1.00  0.00    -0.031 C 
ATOM     16  C   UNL     1       6.691  -0.337   0.175  1.00  0.00    -0.027 C 
BRANCH  16  17
ATOM     17  C   UNL     1       5.221  -0.835   0.096  1.00  0.00     0.054 C 
BRANCH  17  18
ATOM     18  C   UNL     1       4.429  -2.158   0.113  1.00  0.00    -0.027 C 
ATOM     19  C   UNL     1       3.028  -2.155   0.088  1.00  0.00    -0.027 C 
BRANCH  19  20
ATOM     20  C   UNL     1       2.243  -0.828   0.047  1.00  0.00     0.054 C 
BRANCH  20  21
ATOM     21  C   UNL     1       0.771  -0.322   0.042  1.00  0.00    -0.027 C 
ATOM     22  C   UNL     1      -0.602  -0.516   0.052  1.00  0.00    -0.031 C 
BRANCH  22  23
ATOM     23  C   UNL     1      -1.789  -1.500   0.073  1.00  0.00     0.027 C 
BRANCH  23  24
ATOM     24  C   UNL     1      -1.716  -3.020   0.053  1.00  0.00     0.004 C 
BRANCH  24  25
ATOM     25  C   UNL     1      -3.178  -3.676   0.063  1.00  0.00     0.000 C 
BRANCH  25  26
ATOM     26  C   UNL     1      -3.000  -5.196   0.000  1.00  0.00    -0.003 C 
ATOM     27  C   UNL     1      -3.750  -6.495   0.000  1.00  0.00     0.004 C 
ENDBRANCH  25  26
ENDBRANCH  24  25
ENDBRANCH  23  24
ENDBRANCH  22  23
ENDBRANCH  20  21
ENDBRANCH  19  20
ENDBRANCH  17  18
ENDBRANCH  16  17
ENDBRANCH  14  15
ENDBRANCH  13  14
ENDBRANCH  12  13
ENDBRANCH  11  12
ENDBRANCH  10  11
ENDBRANCH   9  10
ENDBRANCH   7   9
ENDBRANCH   6   7
ENDBRANCH   5   6
BRANCH   5  28
ATOM     28  C   UNL     1      13.501 -11.243   0.321  1.00  0.00     0.281 C 
BRANCH  28  29
ATOM     29  O   UNL     1      12.959 -12.399  -0.399  1.00  0.00    -0.462 OA
BRANCH  29  30
ATOM     30  C   UNL     1      12.186 -13.466   0.160  1.00  0.00     0.305 C 
ATOM     31  O   UNL     1      12.245 -13.621   1.371  1.00  0.00    -0.252 OA
BRANCH  30  32
ATOM     32  C   UNL     1      11.278 -14.564  -0.635  1.00  0.00     0.123 C 
BRANCH  32  33
ATOM     33  C   UNL     1       9.804 -14.892   0.000  1.00  0.00     0.012 C 
BRANCH  33  34
ATOM     34  C   UNL     1       8.505 -15.642   0.000  1.00  0.00     0.001 C 
BRANCH  34  35
ATOM     35  C   UNL     1       7.206 -16.392   0.000  1.00  0.00     0.000 C 
BRANCH  35  36
ATOM     36  C   UNL     1       5.907 -17.142   0.000  1.00  0.00     0.000 C 
BRANCH  36  37
ATOM     37  C   UNL     1       4.608 -17.892   0.000  1.00  0.00     0.000 C 
BRANCH  37  38
ATOM     38  C   UNL     1       3.309 -18.642   0.000  1.00  0.00     0.000 C 
BRANCH  38  39
ATOM     39  C   UNL     1       1.811 -18.916   0.703  1.00  0.00    -0.000 C 
BRANCH  39  40
ATOM     40  C   UNL     1       0.776 -20.060  -0.000  1.00  0.00    -0.000 C 
BRANCH  40  41
ATOM     41  C   UNL     1      -0.766 -20.515   0.521  1.00  0.00    -0.000 C 
BRANCH  41  42
ATOM     42  C   UNL     1      -1.645 -21.691  -0.302  1.00  0.00    -0.000 C 
BRANCH  42  43
ATOM     43  C   UNL     1      -3.187 -22.392   0.000  1.00  0.00    -0.003 C 
ATOM     44  C   UNL     1      -4.486 -23.142   0.000  1.00  0.00     0.004 C 
ENDBRANCH  42  43
ENDBRANCH  41  42
ENDBRANCH  40  41
ENDBRANCH  39  40
ENDBRANCH  38  39
ENDBRANCH  37  38
ENDBRANCH  36  37
ENDBRANCH  35  36
ENDBRANCH  34  35
ENDBRANCH  33  34
ENDBRANCH  32  33
ENDBRANCH  30  32
ENDBRANCH  29  30
ENDBRANCH  28  29
ENDBRANCH   5  28
ENDBRANCH   4   5
ENDBRANCH   3   4
ENDBRANCH   1   3
BRANCH   1  45
ATOM     45  C   UNL     1      19.036 -14.116  -0.660  1.00  0.00     0.123 C 
BRANCH  45  46
ATOM     46  C   UNL     1      19.500 -15.588   0.000  1.00  0.00     0.020 C 
BRANCH  46  47
ATOM     47  C   UNL     1      20.250 -16.887   0.000  1.00  0.00    -0.017 C 
BRANCH  47  48
ATOM     48  C   UNL     1      21.000 -18.186   0.000  1.00  0.00     0.009 C 
BRANCH  48  49
ATOM     49  C   UNL     1      21.750 -19.486   0.000  1.00  0.00     0.009 C 
BRANCH  49  50
ATOM     50  C   UNL     1      22.500 -20.785   0.000  1.00  0.00    -0.017 C 
BRANCH  50  51
ATOM     51  C   UNL     1      23.250 -22.084   0.000  1.00  0.00     0.008 C 
BRANCH  51  52
ATOM     52  C   UNL     1      23.779 -23.627  -0.408  1.00  0.00     0.001 C 
BRANCH  52  53
ATOM     53  C   UNL     1      24.991 -24.448   0.462  1.00  0.00     0.000 C 
BRANCH  53  54
ATOM     54  C   UNL     1      25.500 -25.981   0.000  1.00  0.00     0.000 C 
BRANCH  54  55
ATOM     55  C   UNL     1      26.250 -27.280   0.000  1.00  0.00     0.000 C 
BRANCH  55  56
ATOM     56  C   UNL     1      27.000 -28.579   0.000  1.00  0.00     0.004 C 
BRANCH  56  57
ATOM     57  C   UNL     1      26.721 -30.028   0.047  1.00  0.00     0.027 C 
BRANCH  57  58
ATOM     58  C   UNL     1      27.981 -31.092   0.014  1.00  0.00    -0.031 C 
ATOM     59  C   UNL     1      27.750 -32.476   0.000  1.00  0.00    -0.022 C 
BRANCH  59  60
ATOM     60  C   UNL     1      26.250 -32.476   0.000  1.00  0.00     0.017 C 
BRANCH  60  61
ATOM     61  C   UNL     1      24.750 -32.476   0.000  1.00  0.00     0.004 C 
BRANCH  61  62
ATOM     62  C   UNL     1      23.250 -32.476   0.000  1.00  0.00     0.000 C 
BRANCH  62  63
ATOM     63  C   UNL     1      21.750 -32.476   0.000  1.00  0.00     0.000 C 
BRANCH  63  64
ATOM     64  C   UNL     1      20.250 -32.476   0.000  1.00  0.00    -0.000 C 
BRANCH  64  65
ATOM     65  C   UNL     1      18.750 -32.476   0.000  1.00  0.00    -0.001 C 
BRANCH  65  66
ATOM     66  C   UNL     1      17.250 -32.476   0.000  1.00  0.00    -0.012 C 
ATOM     67  C   UNL     1      15.750 -32.476   0.000  1.00  0.00     0.013 C 
ENDBRANCH  65  66
ENDBRANCH  64  65
ENDBRANCH  63  64
ENDBRANCH  62  63
ENDBRANCH  61  62
ENDBRANCH  60  61
ENDBRANCH  59  60
ENDBRANCH  57  58
ENDBRANCH  56  57
ENDBRANCH  55  56
ENDBRANCH  54  55
ENDBRANCH  53  54
ENDBRANCH  52  53
ENDBRANCH  51  52
ENDBRANCH  50  51
ENDBRANCH  49  50
ENDBRANCH  48  49
ENDBRANCH  47  48
ENDBRANCH  46  47
ENDBRANCH  45  46
ENDBRANCH   1  45
TORSDOF 56
