REMARK SMILES C=CCCCCCC=C[C@H](O)C#CC#CC(=O)CCO
REMARK SMILES IDX 8 1 9 2 7 3 6 4 5 5 4 6 3 7 2 8 1 9 10 10 12 11 11 12 13 14
REMARK SMILES IDX 14 15 15 16 16 17 17 18 18 19 19 20 20 21
REMARK H PARENT 11 13 20 22
ROOT
ATOM      1  C   UNL     1      -1.319  -0.405   0.793  1.00  0.00    -0.028 C 
ATOM      2  C   UNL     1      -0.515   0.360   0.024  1.00  0.00     0.013 C 
ENDROOT
BRANCH   1   3
ATOM      3  C   UNL     1      -1.763  -1.838   0.593  1.00  0.00     0.027 C 
BRANCH   3   4
ATOM      4  C   UNL     1      -3.218  -2.084   1.037  1.00  0.00     0.004 C 
BRANCH   4   5
ATOM      5  C   UNL     1      -4.285  -1.265   0.342  1.00  0.00     0.001 C 
BRANCH   5   6
ATOM      6  C   UNL     1      -4.193   0.245   0.693  1.00  0.00     0.004 C 
BRANCH   6   7
ATOM      7  C   UNL     1      -5.306   1.056   0.093  1.00  0.00     0.027 C 
BRANCH   7   8
ATOM      8  C   UNL     1      -5.482   0.574  -1.324  1.00  0.00    -0.035 C 
ATOM      9  C   UNL     1      -6.636  -0.017  -1.616  1.00  0.00     0.004 C 
ENDBRANCH   7   8
ENDBRANCH   6   7
ENDBRANCH   5   6
ENDBRANCH   4   5
ENDBRANCH   3   4
ENDBRANCH   1   3
BRANCH   2  10
ATOM     10  C   UNL     1       0.356  -0.042  -1.151  1.00  0.00     0.213 C 
ATOM     11  C   UNL     1       1.695   0.374  -0.751  1.00  0.00    -0.053 C 
BRANCH  10  12
ATOM     12  O   UNL     1       0.352  -1.419  -1.404  1.00  0.00    -0.377 OA
ATOM     13  H   UNL     1       0.560  -1.877  -0.545  1.00  0.00     0.212 HD
ENDBRANCH  10  12
BRANCH  11  14
ATOM     14  C   UNL     1       2.731   0.776  -0.300  1.00  0.00    -0.012 C 
ATOM     15  C   UNL     1       3.945   1.199   0.252  1.00  0.00    -0.007 C 
BRANCH  15  16
ATOM     16  C   UNL     1       5.006   1.537   0.688  1.00  0.00    -0.014 C 
ATOM     17  C   UNL     1       6.268   1.978   1.185  1.00  0.00     0.208 C 
ATOM     18  O   UNL     1       6.309   2.751   2.130  1.00  0.00    -0.285 OA
BRANCH  17  19
ATOM     19  C   UNL     1       7.528   1.553   0.489  1.00  0.00     0.118 C 
BRANCH  19  20
ATOM     20  C   UNL     1       7.672   0.028   0.357  1.00  0.00     0.165 C 
BRANCH  20  21
ATOM     21  O   UNL     1       8.926  -0.289  -0.185  1.00  0.00    -0.396 OA
ATOM     22  H   UNL     1       9.016   0.218  -1.035  1.00  0.00     0.210 HD
ENDBRANCH  20  21
ENDBRANCH  19  20
ENDBRANCH  17  19
ENDBRANCH  15  16
ENDBRANCH  11  14
ENDBRANCH   2  10
TORSDOF 13
