REMARK SMILES COc1cc([C@@H]2OC[C@H]3[C@@H]2CO[C@H]3c2ccc(O)c(OC)c2)ccc1O
REMARK SMILES IDX 6 1 7 2 8 3 9 4 10 5 11 6 12 7 13 8 5 9 3 10 4 11 25 12
REMARK SMILES IDX 24 13 23 14 2 15 1 16 26 17 14 19 15 20 22 21 16 22 19 23
REMARK SMILES IDX 17 24 20 25 21 26 18 27
REMARK H PARENT 26 18 18 28
ROOT
ATOM      1  C   UNL     1      -1.255   0.177   0.878  1.00  0.00     0.154 C 
ATOM      2  O   UNL     1      -0.141   0.975   0.561  1.00  0.00    -0.373 OA
ATOM      3  C   UNL     1       0.780   0.567   1.542  1.00  0.00     0.168 C 
ATOM      4  C   UNL     1       0.704  -0.966   1.616  1.00  0.00     0.057 C 
ATOM      5  C   UNL     1      -0.723  -1.250   1.140  1.00  0.00     0.057 C 
ATOM      6  C   UNL     1      -0.489  -2.117  -0.106  1.00  0.00     0.168 C 
ATOM      7  O   UNL     1       0.779  -1.778  -0.611  1.00  0.00    -0.373 OA
ATOM      8  C   UNL     1       1.547  -1.726   0.567  1.00  0.00     0.154 C 
ENDROOT
BRANCH   1   9
ATOM      9  C   UNL     1      -2.387   0.343  -0.120  1.00  0.00    -0.015 A 
ATOM     10  C   UNL     1      -4.753   0.815  -0.555  1.00  0.00     0.160 A 
ATOM     11  C   UNL     1      -3.680   0.648   0.343  1.00  0.00     0.056 A 
ATOM     12  C   UNL     1      -4.519   0.686  -1.932  1.00  0.00     0.157 A 
ATOM     13  C   UNL     1      -3.229   0.397  -2.400  1.00  0.00     0.050 A 
ATOM     14  C   UNL     1      -2.172   0.230  -1.503  1.00  0.00     0.010 A 
BRANCH  10  15
ATOM     15  O   UNL     1      -6.015   1.097  -0.135  1.00  0.00    -0.493 OA
ATOM     16  C   UNL     1      -6.414   1.244   1.179  1.00  0.00     0.278 C 
ENDBRANCH  10  15
BRANCH  12  17
ATOM     17  O   UNL     1      -5.541   0.844  -2.799  1.00  0.00    -0.504 OA
ATOM     18  H   UNL     1      -5.423   0.764  -3.756  1.00  0.00     0.293 HD
ENDBRANCH  12  17
ENDBRANCH   1   9
BRANCH   8  19
ATOM     19  C   UNL     1       2.957  -1.224   0.316  1.00  0.00    -0.015 A 
ATOM     20  C   UNL     1       4.053  -1.938   0.829  1.00  0.00     0.010 A 
ATOM     21  C   UNL     1       3.195  -0.063  -0.442  1.00  0.00     0.056 A 
ATOM     22  C   UNL     1       5.355  -1.488   0.615  1.00  0.00     0.050 A 
ATOM     23  C   UNL     1       4.511   0.395  -0.666  1.00  0.00     0.160 A 
ATOM     24  C   UNL     1       5.589  -0.323  -0.127  1.00  0.00     0.157 A 
BRANCH  23  25
ATOM     25  O   UNL     1       4.777   1.514  -1.390  1.00  0.00    -0.493 OA
ATOM     26  C   UNL     1       3.841   2.324  -1.998  1.00  0.00     0.278 C 
ENDBRANCH  23  25
BRANCH  24  27
ATOM     27  O   UNL     1       6.850   0.113  -0.331  1.00  0.00    -0.504 OA
ATOM     28  H   UNL     1       7.620  -0.350   0.029  1.00  0.00     0.293 HD
ENDBRANCH  24  27
ENDBRANCH   8  19
TORSDOF 6
