REMARK SMILES COc1ccc2ccc(=O)oc2c1C=CC(C)=O
REMARK SMILES IDX 3 1 4 2 5 3 6 4 7 5 8 6 9 7 10 8 11 9 12 10 13 11 2 12 1 13
REMARK SMILES IDX 14 14 15 15 16 16 18 17 17 18
REMARK H PARENT
ROOT
ATOM      1  C   UNL     1      -0.685   1.457   0.099  1.00  0.00     0.129 A 
ATOM      2  C   UNL     1      -2.078   1.652   0.056  1.00  0.00     0.048 A 
ATOM      3  C   UNL     1      -2.947   0.572  -0.032  1.00  0.00     0.016 A 
ATOM      4  C   UNL     1      -2.444  -0.728  -0.079  1.00  0.00     0.018 A 
ATOM      5  C   UNL     1      -3.312  -1.822  -0.167  1.00  0.00     0.019 A 
ATOM      6  C   UNL     1      -2.790  -3.110  -0.212  1.00  0.00     0.094 A 
ATOM      7  C   UNL     1      -1.405  -3.274  -0.167  1.00  0.00     0.336 A 
ATOM      8  O   UNL     1      -0.923  -4.392  -0.204  1.00  0.00    -0.246 OA
ATOM      9  O   UNL     1      -0.605  -2.215  -0.083  1.00  0.00    -0.422 OA
ATOM     10  C   UNL     1      -1.047  -0.960  -0.036  1.00  0.00     0.149 A 
ATOM     11  C   UNL     1      -0.146   0.141   0.053  1.00  0.00     0.060 A 
ENDROOT
BRANCH   1  12
ATOM     12  O   UNL     1       0.168   2.515   0.186  1.00  0.00    -0.496 OA
ATOM     13  C   UNL     1      -0.172   3.850   0.240  1.00  0.00     0.278 C 
ENDBRANCH   1  12
BRANCH  11  14
ATOM     14  C   UNL     1       1.357   0.019   0.105  1.00  0.00     0.019 C 
ATOM     15  C   UNL     1       2.099  -1.107   0.076  1.00  0.00     0.048 C 
BRANCH  15  16
ATOM     16  C   UNL     1       3.590  -1.134   0.132  1.00  0.00     0.152 C 
ATOM     17  O   UNL     1       4.138  -2.225   0.097  1.00  0.00    -0.295 OA
ATOM     18  C   UNL     1       4.481   0.082   0.228  1.00  0.00     0.093 C 
ENDBRANCH  15  16
ENDBRANCH  11  14
TORSDOF 3
