REMARK SMILES O=C1[C@@H]2Cc3c([nH]c4ccccc34)[C@H](c3ccccc3)N2C(=O)CN1/N=C/c1ccncc1
REMARK SMILES IDX 1 1 2 2 3 3 4 4 5 5 6 6 7 7 8 8 9 9 10 10 11 11 12 12 13 13
REMARK SMILES IDX 14 14 21 15 22 16 23 17 24 18 25 19 26 21 27 22 28 23 29 24
REMARK SMILES IDX 33 25 30 26 32 27 31 28 15 29 16 30 20 31 17 32 19 33 18 34
REMARK H PARENT 7 20
ROOT
ATOM      1  O   UNL     1       2.148  -2.000   0.132  1.00  0.00    -0.271 OA
ATOM      2  C   UNL     1       1.607  -0.915   0.308  1.00  0.00     0.266 C 
ATOM      3  C   UNL     1       0.117  -0.908   0.559  1.00  0.00     0.182 C 
ATOM      4  C   UNL     1      -0.645  -1.632  -0.563  1.00  0.00     0.073 C 
ATOM      5  C   UNL     1      -2.062  -1.724  -0.104  1.00  0.00    -0.014 A 
ATOM      6  C   UNL     1      -2.659  -0.729   0.639  1.00  0.00     0.047 A 
ATOM      7  N   UNL     1      -3.941  -1.047   0.929  1.00  0.00    -0.356 N 
ATOM      8  C   UNL     1      -4.142  -2.266   0.388  1.00  0.00     0.046 A 
ATOM      9  C   UNL     1      -5.306  -3.030   0.435  1.00  0.00     0.026 A 
ATOM     10  C   UNL     1      -5.290  -4.288  -0.196  1.00  0.00     0.002 A 
ATOM     11  C   UNL     1      -4.125  -4.748  -0.851  1.00  0.00     0.001 A 
ATOM     12  C   UNL     1      -2.963  -3.955  -0.884  1.00  0.00     0.010 A 
ATOM     13  C   UNL     1      -3.007  -2.715  -0.249  1.00  0.00     0.003 A 
ATOM     14  C   UNL     1      -1.935   0.526   1.056  1.00  0.00     0.163 C 
ATOM     15  N   UNL     1      -0.474   0.427   0.782  1.00  0.00    -0.316 N 
ATOM     16  C   UNL     1       0.316   1.547   0.831  1.00  0.00     0.245 C 
ATOM     17  O   UNL     1      -0.173   2.638   1.089  1.00  0.00    -0.273 OA
ATOM     18  C   UNL     1       1.795   1.524   0.577  1.00  0.00     0.248 C 
ATOM     19  N   UNL     1       2.369   0.212   0.320  1.00  0.00    -0.222 N 
ATOM     20  H   UNL     1      -4.624  -0.475   1.474  1.00  0.00     0.166 HD
ENDROOT
BRANCH  19  21
ATOM     21  N   UNL     1       3.740   0.064   0.155  1.00  0.00    -0.177 NA
ATOM     22  C   UNL     1       4.580   1.042   0.053  1.00  0.00     0.141 C 
BRANCH  22  23
ATOM     23  C   UNL     1       6.035   0.785  -0.029  1.00  0.00    -0.002 A 
ATOM     24  C   UNL     1       6.559  -0.517   0.052  1.00  0.00     0.030 A 
ATOM     25  C   UNL     1       6.919   1.865  -0.170  1.00  0.00     0.030 A 
ATOM     26  C   UNL     1       7.943  -0.707  -0.006  1.00  0.00     0.111 A 
ATOM     27  C   UNL     1       8.294   1.629  -0.229  1.00  0.00     0.111 A 
ATOM     28  N   UNL     1       8.773   0.360  -0.145  1.00  0.00    -0.265 NA
ENDBRANCH  22  23
ENDBRANCH  19  21
BRANCH  14  29
ATOM     29  C   UNL     1      -2.600   1.683   0.328  1.00  0.00    -0.019 A 
ATOM     30  C   UNL     1      -3.256   2.688   1.061  1.00  0.00     0.006 A 
ATOM     31  C   UNL     1      -2.570   1.771  -1.077  1.00  0.00     0.006 A 
ATOM     32  C   UNL     1      -3.866   3.760   0.405  1.00  0.00     0.000 A 
ATOM     33  C   UNL     1      -3.183   2.846  -1.729  1.00  0.00     0.000 A 
ATOM     34  C   UNL     1      -3.830   3.839  -0.989  1.00  0.00     0.000 A 
ENDBRANCH  14  29
TORSDOF 3
