REMARK SMILES C=C[C@H]1CC[C@H]2[C@@H]3CC[C@H]4CC(=O)/C(=C5\NCCc6nc[nH]c65)C(=O)[C@]4(C)[C@H]3CC[C@]12C
REMARK SMILES IDX 3 1 4 2 5 3 6 4 7 5 8 6 9 7 10 8 11 9 12 10 13 11 14 12
REMARK SMILES IDX 15 13 16 14 17 15 18 16 19 17 23 18 22 19 21 20 20 21 24 22
REMARK SMILES IDX 25 23 26 24 27 25 28 26 29 27 30 28 31 29 32 30 2 33 1 34
REMARK H PARENT 16 31 22 32
ROOT
ATOM      1  C   UNL     1       4.073   1.508  -0.892  1.00  0.00     0.017 C 
ATOM      2  C   UNL     1       4.702   0.497  -1.879  1.00  0.00     0.008 C 
ATOM      3  C   UNL     1       3.751  -0.727  -1.891  1.00  0.00     0.005 C 
ATOM      4  C   UNL     1       2.575  -0.283  -1.022  1.00  0.00    -0.001 C 
ATOM      5  C   UNL     1       1.603  -1.339  -0.437  1.00  0.00    -0.003 C 
ATOM      6  C   UNL     1       1.053  -2.234  -1.561  1.00  0.00     0.004 C 
ATOM      7  C   UNL     1      -0.019  -3.192  -1.034  1.00  0.00     0.005 C 
ATOM      8  C   UNL     1      -1.163  -2.358  -0.444  1.00  0.00     0.011 C 
ATOM      9  C   UNL     1      -2.424  -3.188  -0.152  1.00  0.00     0.086 C 
ATOM     10  C   UNL     1      -3.559  -2.254   0.191  1.00  0.00     0.168 C 
ATOM     11  O   UNL     1      -4.694  -2.700   0.176  1.00  0.00    -0.294 OA
ATOM     12  C   UNL     1      -3.266  -0.820   0.547  1.00  0.00     0.086 C 
ATOM     13  C   UNL     1      -4.130   0.231   0.326  1.00  0.00     0.074 C 
ATOM     14  N   UNL     1      -5.446   0.039  -0.242  1.00  0.00    -0.382 N 
ATOM     15  C   UNL     1      -6.193   1.168  -0.790  1.00  0.00     0.119 C 
ATOM     16  C   UNL     1      -6.191   2.323   0.216  1.00  0.00     0.080 C 
ATOM     17  C   UNL     1      -4.754   2.646   0.478  1.00  0.00     0.069 A 
ATOM     18  C   UNL     1      -3.784   1.679   0.539  1.00  0.00     0.086 A 
ATOM     19  N   UNL     1      -2.596   2.300   0.687  1.00  0.00    -0.343 N 
ATOM     20  C   UNL     1      -2.882   3.618   0.724  1.00  0.00     0.197 A 
ATOM     21  N   UNL     1      -4.203   3.868   0.582  1.00  0.00    -0.241 NA
ATOM     22  C   UNL     1      -1.926  -0.638   1.190  1.00  0.00     0.175 C 
ATOM     23  O   UNL     1      -1.834   0.124   2.138  1.00  0.00    -0.293 OA
ATOM     24  C   UNL     1      -0.717  -1.490   0.780  1.00  0.00     0.037 C 
ATOM     25  C   UNL     1      -0.288  -2.365   1.988  1.00  0.00     0.021 C 
ATOM     26  C   UNL     1       0.456  -0.550   0.291  1.00  0.00     0.006 C 
ATOM     27  C   UNL     1       1.078   0.363   1.404  1.00  0.00     0.005 C 
ATOM     28  C   UNL     1       2.112   1.348   0.817  1.00  0.00     0.008 C 
ATOM     29  C   UNL     1       3.235   0.605   0.056  1.00  0.00    -0.023 C 
ATOM     30  C   UNL     1       4.132  -0.222   1.044  1.00  0.00     0.012 C 
ATOM     31  H   UNL     1      -5.905  -0.875  -0.282  1.00  0.00     0.160 HD
ATOM     32  H   UNL     1      -1.631   1.911   0.714  1.00  0.00     0.168 HD
ENDROOT
BRANCH   1  33
ATOM     33  C   UNL     1       5.057   2.556  -0.402  1.00  0.00    -0.031 C 
ATOM     34  C   UNL     1       5.270   2.921   0.866  1.00  0.00     0.004 C 
ENDBRANCH   1  33
TORSDOF 1
