REMARK SMILES Cc1ccc(N2CCCN2C(=S)Nc2ccccc2)cc1
REMARK SMILES IDX 6 1 7 2 8 3 9 4 10 5 5 6 2 7 3 8 21 9 4 10 20 11 1 12 11 13
REMARK SMILES IDX 12 14 13 15 14 17 15 18 19 19 16 20 18 21 17 22
REMARK H PARENT 13 16
ROOT
ATOM      1  N   UNL     1      -1.199  -1.459   0.537  1.00  0.00    -0.283 N 
ATOM      2  C   UNL     1      -1.610  -2.811   0.818  1.00  0.00     0.145 C 
ATOM      3  C   UNL     1      -0.945  -3.560  -0.325  1.00  0.00     0.047 C 
ATOM      4  C   UNL     1       0.390  -2.820  -0.457  1.00  0.00     0.147 C 
ATOM      5  N   UNL     1       0.050  -1.471  -0.056  1.00  0.00    -0.260 N 
ENDROOT
BRANCH   1   6
ATOM      6  C   UNL     1      -2.128  -0.364   0.498  1.00  0.00     0.057 A 
ATOM      7  C   UNL     1      -3.986   1.762   0.430  1.00  0.00    -0.051 A 
ATOM      8  C   UNL     1      -4.112   0.741   1.383  1.00  0.00     0.005 A 
ATOM      9  C   UNL     1      -2.935   1.712  -0.495  1.00  0.00     0.005 A 
ATOM     10  C   UNL     1      -3.198  -0.315   1.410  1.00  0.00     0.028 A 
ATOM     11  C   UNL     1      -2.014   0.661  -0.462  1.00  0.00     0.028 A 
ATOM     12  C   UNL     1      -4.961   2.901   0.388  1.00  0.00     0.044 C 
ENDBRANCH   1   6
BRANCH   5  13
ATOM     13  C   UNL     1       1.016  -0.393  -0.006  1.00  0.00     0.192 C 
ATOM     14  S   UNL     1       0.773   0.729   0.872  1.00  0.00    -0.039 S 
ATOM     15  N   UNL     1       2.320  -0.589  -0.599  1.00  0.00    -0.331 N 
ATOM     16  H   UNL     1       2.520  -1.534  -0.951  1.00  0.00     0.169 HD
BRANCH  15  17
ATOM     17  C   UNL     1       3.419   0.337  -0.710  1.00  0.00     0.040 A 
ATOM     18  C   UNL     1       4.697  -0.190  -0.983  1.00  0.00     0.026 A 
ATOM     19  C   UNL     1       3.293   1.743  -0.591  1.00  0.00     0.026 A 
ATOM     20  C   UNL     1       5.812   0.644  -1.101  1.00  0.00     0.002 A 
ATOM     21  C   UNL     1       4.414   2.571  -0.715  1.00  0.00     0.002 A 
ATOM     22  C   UNL     1       5.671   2.023  -0.964  1.00  0.00     0.000 A 
ENDBRANCH  15  17
ENDBRANCH   5  13
TORSDOF 3
