REMARK SMILES N/C(=N/[C]CC[C](O)CCC1=C[C@@]2(C(=O)O)[C@@H](c3c(cc(O[C@@]4(O)O[C@@H](CO)[C@H](O)[C@@H](O)[C@H]4O)c(O)c3O)N2C(=O)/C=C/c2ccc(O)c(Cc3[nH]cnc3CCO)c2)[C@@H]1[C@]12c3c(O)cccc3CC[C@@H]1CCC[C@H]2CO)NCc1ccccc1
REMARK SMILES IDX 11 1 12 2 13 3 17 4 18 5 19 6 20 7 21 8 35 9 37 10 39 11
REMARK SMILES IDX 60 12 10 13 9 14 7 15 6 16 5 17 4 18 3 19 1 20 2 21 78 22
REMARK SMILES IDX 79 26 80 27 81 28 85 29 82 30 84 31 83 32 8 33 61 35 62 36
REMARK SMILES IDX 71 37 75 38 63 39 68 40 70 41 72 42 74 43 65 44 67 45 69 46
REMARK SMILES IDX 73 47 66 48 76 49 77 50 64 52 14 54 15 55 16 56 40 58 41 59
REMARK SMILES IDX 42 60 43 61 44 62 45 63 59 64 46 65 49 66 47 67 50 68 51 69
REMARK SMILES IDX 55 70 52 71 54 72 53 73 56 75 57 76 58 77 48 79 38 81 36 83
REMARK SMILES IDX 22 85 23 86 25 87 33 88 26 89 31 90 29 91 24 92 34 94 27 96
REMARK SMILES IDX 28 97 32 99 30 101
REMARK H PARENT 1 23 1 24 78 25 8 34 77 51 64 53 16 57 52 74 58 78 48 80 38 82
REMARK H PARENT 36 84 24 93 34 95 28 98 32 100 30 102
ROOT
ATOM      1  C   UNL     1       2.784   0.346  -0.111  1.00  0.00    -0.066 C 
ATOM      2  C   UNL     1       4.118   0.480   0.297  1.00  0.00     0.014 C 
ATOM      3  C   UNL     1       4.766  -0.820   0.868  1.00  0.00     0.171 C 
ATOM      4  C   UNL     1       3.740  -1.839   0.378  1.00  0.00     0.075 C 
ATOM      5  C   UNL     1       4.235  -3.047   1.148  1.00  0.00     0.029 A 
ATOM      6  C   UNL     1       5.627  -2.987   1.066  1.00  0.00     0.057 A 
ATOM      7  C   UNL     1       6.383  -4.109   1.494  1.00  0.00     0.077 A 
ATOM      8  C   UNL     1       5.725  -5.242   2.013  1.00  0.00     0.173 A 
ATOM      9  C   UNL     1       4.343  -5.182   2.282  1.00  0.00     0.201 A 
ATOM     10  C   UNL     1       3.601  -4.074   1.873  1.00  0.00     0.167 A 
ATOM     11  N   UNL     1       6.045  -1.651   0.632  1.00  0.00    -0.287 N 
ATOM     12  C   UNL     1       2.437  -1.172  -0.277  1.00  0.00     0.037 C 
ENDROOT
BRANCH   1  13
ATOM     13  C   UNL     1       1.807   1.559  -0.507  1.00  0.00     0.034 C 
BRANCH  13  14
ATOM     14  C   UNL     1       1.065   2.507   0.565  1.00  0.00     0.043 C 
BRANCH  14  15
ATOM     15  C   UNL     1       0.069   3.768   0.000  1.00  0.00     0.094 C 
BRANCH  15  16
ATOM     16  C   UNL     1      -1.145   2.886   0.000  1.00  0.00     0.041 C 
BRANCH  16  17
ATOM     17  C   UNL     1      -2.359   2.005   0.000  1.00  0.00     0.039 C 
BRANCH  17  18
ATOM     18  C   UNL     1      -3.572   1.123   0.000  1.00  0.00     0.120 C 
BRANCH  18  19
ATOM     19  N   UNL     1      -4.786   0.241   0.000  1.00  0.00    -0.241 NA
ATOM     20  N   UNL     1      -7.144  -0.026  -0.001  1.00  0.00    -0.370 N 
ATOM     21  C   UNL     1      -6.021   0.836  -0.000  1.00  0.00     0.189 C 
ATOM     22  N   UNL     1      -6.313   2.343   0.000  1.00  0.00    -0.352 N 
ATOM     23  H   UNL     1      -8.098   0.362  -0.002  1.00  0.00     0.159 HD
ATOM     24  H   UNL     1      -7.019  -1.049  -0.002  1.00  0.00     0.159 HD
ATOM     25  H   UNL     1      -7.269   2.726  -0.001  1.00  0.00     0.163 HD
BRANCH  22  26
ATOM     26  C   UNL     1      -5.099   3.225   0.000  1.00  0.00     0.151 C 
BRANCH  26  27
ATOM     27  C   UNL     1      -3.886   4.107   0.000  1.00  0.00    -0.029 A 
ATOM     28  C   UNL     1      -3.379   4.670   1.218  1.00  0.00     0.005 A 
ATOM     29  C   UNL     1      -3.557   4.810  -1.204  1.00  0.00     0.005 A 
ATOM     30  C   UNL     1      -2.491   5.752   1.208  1.00  0.00     0.000 A 
ATOM     31  C   UNL     1      -2.671   5.895  -1.199  1.00  0.00     0.000 A 
ATOM     32  C   UNL     1      -2.129   6.355   0.002  1.00  0.00     0.000 A 
ENDBRANCH  26  27
ENDBRANCH  22  26
ENDBRANCH  18  19
ENDBRANCH  17  18
ENDBRANCH  16  17
ENDBRANCH  15  16
BRANCH  15  33
ATOM     33  O   UNL     1       1.282   4.650   0.000  1.00  0.00    -0.387 OA
ATOM     34  H   UNL     1       1.506   4.770  -0.958  1.00  0.00     0.211 HD
ENDBRANCH  15  33
ENDBRANCH  14  15
ENDBRANCH  13  14
ENDBRANCH   1  13
BRANCH  12  35
ATOM     35  C   UNL     1       1.521  -2.083  -1.363  1.00  0.00     0.014 C 
ATOM     36  C   UNL     1       0.260  -1.243  -1.871  1.00  0.00     0.005 A 
ATOM     37  C   UNL     1       0.814  -3.374  -0.721  1.00  0.00     0.001 C 
ATOM     38  C   UNL     1       2.475  -2.764  -2.558  1.00  0.00     0.026 C 
ATOM     39  C   UNL     1       0.325  -0.216  -2.869  1.00  0.00     0.119 A 
ATOM     40  C   UNL     1      -1.060  -1.488  -1.320  1.00  0.00    -0.041 A 
ATOM     41  C   UNL     1      -0.065  -2.984   0.455  1.00  0.00     0.009 C 
ATOM     42  C   UNL     1       1.688  -4.628  -0.651  1.00  0.00     0.004 C 
ATOM     43  C   UNL     1       1.882  -4.061  -3.153  1.00  0.00     0.007 C 
ATOM     44  C   UNL     1      -0.838   0.403  -3.354  1.00  0.00     0.046 A 
ATOM     45  C   UNL     1      -2.192  -0.874  -1.860  1.00  0.00     0.004 A 
ATOM     46  C   UNL     1      -1.340  -2.409  -0.146  1.00  0.00     0.036 C 
ATOM     47  C   UNL     1       1.892  -5.184  -2.083  1.00  0.00     0.001 C 
ATOM     48  C   UNL     1      -2.087   0.053  -2.876  1.00  0.00     0.004 A 
BRANCH  38  49
ATOM     49  C   UNL     1       3.036  -1.896  -3.707  1.00  0.00     0.160 C 
BRANCH  49  50
ATOM     50  O   UNL     1       3.990  -2.605  -4.456  1.00  0.00    -0.396 OA
ATOM     51  H   UNL     1       4.833  -2.600  -3.930  1.00  0.00     0.210 HD
ENDBRANCH  49  50
ENDBRANCH  38  49
BRANCH  39  52
ATOM     52  O   UNL     1       1.498   0.234  -3.341  1.00  0.00    -0.508 OA
ATOM     53  H   UNL     1       1.564   0.943  -3.997  1.00  0.00     0.293 HD
ENDBRANCH  39  52
ENDBRANCH  12  35
BRANCH   3  54
ATOM     54  C   UNL     1       4.705  -0.515   2.366  1.00  0.00     0.334 C 
ATOM     55  O   UNL     1       3.826  -0.986   3.076  1.00  0.00    -0.249 OA
BRANCH  54  56
ATOM     56  O   UNL     1       5.632   0.305   2.906  1.00  0.00    -0.479 OA
ATOM     57  H   UNL     1       5.625   0.525   3.849  1.00  0.00     0.296 HD
ENDBRANCH  54  56
ENDBRANCH   3  54
BRANCH  11  58
ATOM     58  C   UNL     1       7.367  -1.259   0.353  1.00  0.00     0.252 C 
ATOM     59  O   UNL     1       7.617  -0.068   0.266  1.00  0.00    -0.269 OA
BRANCH  58  60
ATOM     60  C   UNL     1       8.545  -2.267   0.144  1.00  0.00     0.072 C 
ATOM     61  C   UNL     1       9.920  -2.042   0.202  1.00  0.00     0.014 C 
BRANCH  61  62
ATOM     62  C   UNL     1      11.047  -3.123   0.064  1.00  0.00    -0.025 A 
ATOM     63  C   UNL     1      10.740  -4.493  -0.060  1.00  0.00     0.012 A 
ATOM     64  C   UNL     1      12.458  -2.802   0.091  1.00  0.00     0.016 A 
ATOM     65  C   UNL     1      11.746  -5.472  -0.145  1.00  0.00     0.047 A 
ATOM     66  C   UNL     1      13.514  -3.801   0.000  1.00  0.00     0.000 A 
ATOM     67  C   UNL     1      13.116  -5.146  -0.114  1.00  0.00     0.119 A 
BRANCH  66  68
ATOM     68  C   UNL     1      14.941  -3.338  -0.000  1.00  0.00     0.095 C 
BRANCH  68  69
ATOM     69  C   UNL     1      16.368  -2.874   0.000  1.00  0.00     0.042 A 
ATOM     70  C   UNL     1      16.791  -1.562   0.025  1.00  0.00     0.064 A 
ATOM     71  N   UNL     1      17.453  -3.669  -0.030  1.00  0.00    -0.348 N 
ATOM     72  N   UNL     1      18.141  -1.537   0.011  1.00  0.00    -0.242 NA
ATOM     73  C   UNL     1      18.511  -2.836  -0.021  1.00  0.00     0.197 A 
ATOM     74  H   UNL     1      17.475  -4.713  -0.055  1.00  0.00     0.167 HD
BRANCH  70  75
ATOM     75  C   UNL     1      15.902  -0.350   0.055  1.00  0.00     0.086 C 
BRANCH  75  76
ATOM     76  C   UNL     1      16.692   0.958   0.064  1.00  0.00     0.162 C 
BRANCH  76  77
ATOM     77  O   UNL     1      15.800   2.037   0.087  1.00  0.00    -0.396 OA
ATOM     78  H   UNL     1      16.359   2.856   0.070  1.00  0.00     0.210 HD
ENDBRANCH  76  77
ENDBRANCH  75  76
ENDBRANCH  70  75
ENDBRANCH  68  69
ENDBRANCH  66  68
BRANCH  67  79
ATOM     79  O   UNL     1      14.048  -6.119  -0.204  1.00  0.00    -0.508 OA
ATOM     80  H   UNL     1      13.811  -7.054  -0.287  1.00  0.00     0.293 HD
ENDBRANCH  67  79
ENDBRANCH  61  62
ENDBRANCH  58  60
ENDBRANCH  11  58
BRANCH  10  81
ATOM     81  O   UNL     1       2.300  -4.025   2.190  1.00  0.00    -0.504 OA
ATOM     82  H   UNL     1       1.838  -3.188   2.168  1.00  0.00     0.293 HD
ENDBRANCH  10  81
BRANCH   9  83
ATOM     83  O   UNL     1       3.704  -6.175   2.935  1.00  0.00    -0.502 OA
ATOM     84  H   UNL     1       4.167  -6.913   3.347  1.00  0.00     0.293 HD
ENDBRANCH   9  83
BRANCH   8  85
ATOM     85  O   UNL     1       6.432  -6.385   2.240  1.00  0.00    -0.433 OA
BRANCH  85  86
ATOM     86  C   UNL     1       6.554  -7.377   1.250  1.00  0.00     0.355 C 
ATOM     87  O   UNL     1       7.764  -8.099   1.476  1.00  0.00    -0.307 OA
ATOM     88  C   UNL     1       5.359  -8.378   1.340  1.00  0.00     0.249 C 
ATOM     89  C   UNL     1       7.992  -9.085   0.463  1.00  0.00     0.182 C 
ATOM     90  C   UNL     1       5.525  -9.480   0.282  1.00  0.00     0.184 C 
ATOM     91  C   UNL     1       6.883 -10.165   0.483  1.00  0.00     0.177 C 
BRANCH  86  92
ATOM     92  O   UNL     1       6.619  -6.761  -0.026  1.00  0.00    -0.331 OA
ATOM     93  H   UNL     1       5.701  -6.495  -0.295  1.00  0.00     0.218 HD
ENDBRANCH  86  92
BRANCH  88  94
ATOM     94  O   UNL     1       5.338  -8.949   2.626  1.00  0.00    -0.381 OA
ATOM     95  H   UNL     1       4.426  -9.315   2.767  1.00  0.00     0.211 HD
ENDBRANCH  88  94
BRANCH  89  96
ATOM     96  C   UNL     1       9.364  -9.727   0.691  1.00  0.00     0.191 C 
BRANCH  96  97
ATOM     97  O   UNL     1      10.357  -8.742   0.635  1.00  0.00    -0.394 OA
ATOM     98  H   UNL     1      11.225  -9.224   0.644  1.00  0.00     0.210 HD
ENDBRANCH  96  97
ENDBRANCH  89  96
BRANCH  90  99
ATOM     99  O   UNL     1       4.477 -10.410   0.396  1.00  0.00    -0.387 OA
ATOM    100  H   UNL     1       4.358 -10.827  -0.497  1.00  0.00     0.211 HD
ENDBRANCH  90  99
BRANCH  91 101
ATOM    101  O   UNL     1       7.103 -11.101  -0.542  1.00  0.00    -0.387 OA
ATOM    102  H   UNL     1       6.647 -11.940  -0.270  1.00  0.00     0.211 HD
ENDBRANCH  91 101
ENDBRANCH  85  86
ENDBRANCH   8  85
TORSDOF 35
