REMARK SMILES CO[C@@]1(CO)OC[C@H](O)[C@@H]1O
REMARK SMILES IDX 3 1 6 2 7 3 8 4 10 5 2 6 1 7 4 8 5 9 11 11 9 13
REMARK H PARENT 5 10 11 12 9 14
ROOT
ATOM      1  C   UNL     1       0.496   0.272  -0.233  1.00  0.00     0.220 C 
ATOM      2  O   UNL     1      -0.141   1.125  -1.181  1.00  0.00    -0.343 OA
ATOM      3  C   UNL     1      -1.469   0.663  -1.364  1.00  0.00     0.198 C 
ATOM      4  C   UNL     1      -1.856  -0.144  -0.134  1.00  0.00     0.174 C 
ATOM      5  C   UNL     1      -0.540  -0.847   0.061  1.00  0.00     0.207 C 
ENDROOT
BRANCH   1   6
ATOM      6  O   UNL     1       1.674  -0.248  -0.850  1.00  0.00    -0.349 OA
ATOM      7  C   UNL     1       2.361  -1.205  -0.066  1.00  0.00     0.198 C 
ENDBRANCH   1   6
BRANCH   1   8
ATOM      8  C   UNL     1       0.856   1.165   0.990  1.00  0.00     0.224 C 
BRANCH   8   9
ATOM      9  O   UNL     1       1.749   2.177   0.608  1.00  0.00    -0.391 OA
ATOM     10  H   UNL     1       2.660   1.785   0.644  1.00  0.00     0.210 HD
ENDBRANCH   8   9
ENDBRANCH   1   8
BRANCH   5  11
ATOM     11  O   UNL     1      -0.390  -1.519   1.290  1.00  0.00    -0.385 OA
ATOM     12  H   UNL     1      -0.617  -0.888   2.020  1.00  0.00     0.211 HD
ENDBRANCH   5  11
BRANCH   4  13
ATOM     13  O   UNL     1      -2.143   0.711   0.942  1.00  0.00    -0.388 OA
ATOM     14  H   UNL     1      -3.018   1.134   0.743  1.00  0.00     0.211 HD
ENDBRANCH   4  13
TORSDOF 5
