REMARK SMILES O=C1c2c(O)cccc2[C@@]2(O)C[C@@H]1[C@@]13O[C@]12C(=O)c1c(O)cccc1C3=O
REMARK SMILES IDX 1 1 2 2 3 3 4 4 6 5 7 6 8 7 9 8 10 9 12 10 13 11 14 12 15 13
REMARK SMILES IDX 16 14 17 15 18 16 19 17 20 18 22 19 23 20 24 21 25 22 26 23
REMARK SMILES IDX 27 24 5 25 11 27 21 29
REMARK H PARENT 5 26 11 28 21 30
ROOT
ATOM      1  O   UNL     1      -2.845  -2.638   0.728  1.00  0.00    -0.294 OA
ATOM      2  C   UNL     1      -2.276  -1.568   0.594  1.00  0.00     0.173 C 
ATOM      3  C   UNL     1      -2.968  -0.362   0.026  1.00  0.00     0.066 A 
ATOM      4  C   UNL     1      -4.275  -0.367  -0.544  1.00  0.00     0.126 A 
ATOM      5  C   UNL     1      -4.841   0.837  -0.982  1.00  0.00     0.047 A 
ATOM      6  C   UNL     1      -4.149   2.038  -0.864  1.00  0.00     0.004 A 
ATOM      7  C   UNL     1      -2.873   2.061  -0.310  1.00  0.00     0.008 A 
ATOM      8  C   UNL     1      -2.269   0.872   0.133  1.00  0.00     0.002 A 
ATOM      9  C   UNL     1      -0.862   0.885   0.741  1.00  0.00     0.131 C 
ATOM     10  C   UNL     1      -0.774  -0.110   1.902  1.00  0.00     0.059 C 
ATOM     11  C   UNL     1      -0.864  -1.418   1.139  1.00  0.00     0.108 C 
ATOM     12  C   UNL     1       0.152  -1.202   0.001  1.00  0.00     0.182 C 
ATOM     13  O   UNL     1      -0.299  -0.661  -1.217  1.00  0.00    -0.341 OA
ATOM     14  C   UNL     1       0.148   0.285  -0.270  1.00  0.00     0.202 C 
ATOM     15  C   UNL     1       1.456   0.960  -0.599  1.00  0.00     0.206 C 
ATOM     16  O   UNL     1       1.391   2.132  -0.925  1.00  0.00    -0.290 OA
ATOM     17  C   UNL     1       2.771   0.251  -0.526  1.00  0.00     0.074 A 
ATOM     18  C   UNL     1       4.033   0.897  -0.751  1.00  0.00     0.127 A 
ATOM     19  C   UNL     1       5.217   0.160  -0.657  1.00  0.00     0.047 A 
ATOM     20  C   UNL     1       5.195  -1.193  -0.351  1.00  0.00     0.005 A 
ATOM     21  C   UNL     1       3.984  -1.836  -0.135  1.00  0.00     0.013 A 
ATOM     22  C   UNL     1       2.768  -1.132  -0.218  1.00  0.00     0.035 A 
ATOM     23  C   UNL     1       1.499  -1.868   0.012  1.00  0.00     0.199 C 
ATOM     24  O   UNL     1       1.529  -3.073   0.220  1.00  0.00    -0.291 OA
ENDROOT
BRANCH   4  25
ATOM     25  O   UNL     1      -5.025  -1.482  -0.695  1.00  0.00    -0.507 OA
ATOM     26  H   UNL     1      -4.756  -2.379  -0.475  1.00  0.00     0.293 HD
ENDBRANCH   4  25
BRANCH   9  27
ATOM     27  O   UNL     1      -0.470   2.176   1.142  1.00  0.00    -0.381 OA
ATOM     28  H   UNL     1      -1.040   2.431   1.914  1.00  0.00     0.212 HD
ENDBRANCH   9  27
BRANCH  18  29
ATOM     29  O   UNL     1       4.179   2.209  -1.052  1.00  0.00    -0.507 OA
ATOM     30  H   UNL     1       3.485   2.866  -1.148  1.00  0.00     0.293 HD
ENDBRANCH  18  29
TORSDOF 3
