REMARK SMILES CC[C@H](C)[C@H](NC(=O)[C@@H]1C[C@@H](O)CN1C(=O)[C@@](C)(CC)NC(C)=O)C(=O)N[C@@](C)(CC)C(=O)N[C@@H](CC(C)C)C(=O)NC(C)(C)C(=O)NC(C)(C)C(=O)N[C@@](C)(CC)C(=O)N1C[C@H](O)C[C@H]1C(=O)N[C@@H](CC(C)C)C(=O)N[C@@](C)(CC)C(=O)NC(C)(C)C(=O)N1C[C@H](O)C[C@H]1C(=O)N[C@](C)(CC)C(=O)N[C@@](C)(CC)C(=O)NCC(=O)O
REMARK SMILES IDX 61 1 62 2 63 3 65 4 66 5 59 6 60 7 55 8 56 9 54 10 52 11
REMARK SMILES IDX 53 12 49 14 50 15 51 16 48 17 46 18 47 19 43 21 44 22 45 23
REMARK SMILES IDX 42 24 40 25 41 26 35 28 34 29 32 30 33 31 28 33 29 34 27 35
REMARK SMILES IDX 25 36 26 37 5 39 3 40 4 41 2 42 1 43 6 44 7 45 8 46 9 48
REMARK SMILES IDX 10 49 14 50 11 51 13 52 15 53 16 54 17 55 18 56 19 57 20 58
REMARK SMILES IDX 21 59 22 60 24 61 23 63 12 64 30 66 31 67 36 68 37 69 38 70
REMARK SMILES IDX 39 71 57 72 58 73 67 74 68 75 69 76 70 78 71 79 72 80 73 81
REMARK SMILES IDX 74 82 75 83 76 84 77 85 78 87 79 88 80 89 81 90 82 91 83 92
REMARK SMILES IDX 84 93 85 95 86 96 87 97 88 98 89 99 90 100 91 101 95 102
REMARK SMILES IDX 92 103 94 104 96 105 97 106 98 107 99 109 100 110 101 111
REMARK SMILES IDX 102 112 103 113 104 114 105 115 106 117 107 118 108 119
REMARK SMILES IDX 109 120 110 121 111 122 112 123 113 125 114 126 115 127
REMARK SMILES IDX 116 128 93 130 64 132
REMARK H PARENT 54 13 48 20 42 27 34 32 27 38 6 47 21 62 12 65 69 77 77 86
REMARK H PARENT 84 94 98 108 105 116 112 124 116 129 93 131 64 133
ROOT
ATOM      1  N   UNL     1       0.598   1.549  -0.990  1.00  0.00    -0.326 N 
ATOM      2  C   UNL     1       0.496   2.765  -1.770  1.00  0.00     0.152 C 
ATOM      3  C   UNL     1       1.168   3.829  -0.873  1.00  0.00     0.136 C 
ATOM      4  C   UNL     1       1.959   3.008   0.175  1.00  0.00     0.069 C 
ATOM      5  C   UNL     1       1.941   1.614  -0.422  1.00  0.00     0.177 C 
ENDROOT
BRANCH   1   6
ATOM      6  C   UNL     1      -0.370   0.592  -0.743  1.00  0.00     0.248 C 
ATOM      7  O   UNL     1      -0.097  -0.318   0.025  1.00  0.00    -0.272 OA
BRANCH   6   8
ATOM      8  C   UNL     1      -1.795   0.556  -1.371  1.00  0.00     0.116 C 
ATOM      9  C   UNL     1      -1.704   0.448  -2.912  1.00  0.00     0.045 C 
BRANCH   8  10
ATOM     10  N   UNL     1      -2.535  -0.612  -0.839  1.00  0.00    -0.340 N 
ATOM     11  C   UNL     1      -2.196  -1.929  -1.015  1.00  0.00     0.246 C 
ATOM     12  O   UNL     1      -1.251  -2.224  -1.734  1.00  0.00    -0.272 OA
ATOM     13  H   UNL     1      -3.387  -0.424  -0.296  1.00  0.00     0.164 HD
BRANCH  11  14
ATOM     14  C   UNL     1      -2.978  -3.075  -0.349  1.00  0.00     0.113 C 
ATOM     15  C   UNL     1      -1.985  -4.091   0.276  1.00  0.00     0.045 C 
ATOM     16  C   UNL     1      -3.766  -3.813  -1.450  1.00  0.00     0.045 C 
BRANCH  14  17
ATOM     17  N   UNL     1      -3.911  -2.599   0.689  1.00  0.00    -0.340 N 
ATOM     18  C   UNL     1      -3.505  -1.940   1.823  1.00  0.00     0.246 C 
ATOM     19  O   UNL     1      -2.315  -1.700   1.983  1.00  0.00    -0.272 OA
ATOM     20  H   UNL     1      -4.914  -2.813   0.574  1.00  0.00     0.164 HD
BRANCH  18  21
ATOM     21  C   UNL     1      -4.457  -1.506   2.950  1.00  0.00     0.113 C 
ATOM     22  C   UNL     1      -4.229  -0.019   3.305  1.00  0.00     0.045 C 
ATOM     23  C   UNL     1      -4.087  -2.343   4.195  1.00  0.00     0.045 C 
BRANCH  21  24
ATOM     24  N   UNL     1      -5.887  -1.683   2.667  1.00  0.00    -0.340 N 
ATOM     25  C   UNL     1      -6.564  -1.061   1.652  1.00  0.00     0.243 C 
ATOM     26  O   UNL     1      -5.953  -0.438   0.794  1.00  0.00    -0.273 OA
ATOM     27  H   UNL     1      -6.440  -2.220   3.350  1.00  0.00     0.164 HD
BRANCH  25  28
ATOM     28  C   UNL     1      -8.094  -1.072   1.639  1.00  0.00     0.171 C 
BRANCH  28  29
ATOM     29  N   UNL     1      -8.643  -0.269   0.545  1.00  0.00    -0.342 N 
ATOM     30  C   UNL     1      -8.431   1.078   0.428  1.00  0.00     0.246 C 
ATOM     31  O   UNL     1      -7.695   1.638   1.228  1.00  0.00    -0.272 OA
ATOM     32  H   UNL     1      -9.215  -0.747  -0.162  1.00  0.00     0.164 HD
BRANCH  30  33
ATOM     33  C   UNL     1      -9.030   1.894  -0.733  1.00  0.00     0.116 C 
ATOM     34  C   UNL     1      -7.882   2.160  -1.732  1.00  0.00     0.045 C 
BRANCH  33  35
ATOM     35  N   UNL     1     -10.079   1.121  -1.425  1.00  0.00    -0.340 N 
ATOM     36  C   UNL     1     -11.264   0.750  -0.843  1.00  0.00     0.243 C 
ATOM     37  O   UNL     1     -11.496   1.044   0.322  1.00  0.00    -0.273 OA
ATOM     38  H   UNL     1      -9.917   0.846  -2.404  1.00  0.00     0.164 HD
BRANCH  36  39
ATOM     39  C   UNL     1     -12.303  -0.065  -1.606  1.00  0.00     0.174 C 
BRANCH  39  40
ATOM     40  C   UNL     1     -12.721   0.587  -2.960  1.00  0.00     0.018 C 
ATOM     41  C   UNL     1     -13.705  -0.338  -3.701  1.00  0.00     0.010 C 
BRANCH  40  42
ATOM     42  C   UNL     1     -13.293   2.019  -2.781  1.00  0.00     0.002 C 
ATOM     43  C   UNL     1     -13.524   2.747  -4.107  1.00  0.00     0.004 C 
ENDBRANCH  40  42
ENDBRANCH  39  40
BRANCH  39  44
ATOM     44  N   UNL     1     -13.466  -0.270  -0.743  1.00  0.00    -0.342 N 
ATOM     45  C   UNL     1     -13.786  -1.470  -0.177  1.00  0.00     0.243 C 
ATOM     46  O   UNL     1     -13.086  -2.451  -0.384  1.00  0.00    -0.273 OA
ATOM     47  H   UNL     1     -14.012   0.562  -0.483  1.00  0.00     0.164 HD
BRANCH  45  48
ATOM     48  C   UNL     1     -14.891  -1.564   0.870  1.00  0.00     0.177 C 
ATOM     49  C   UNL     1     -15.682  -2.879   0.772  1.00  0.00     0.069 C 
ATOM     50  N   UNL     1     -15.919  -0.554   0.658  1.00  0.00    -0.326 N 
ATOM     51  C   UNL     1     -16.957  -2.543  -0.031  1.00  0.00     0.136 C 
ATOM     52  C   UNL     1     -16.817  -1.059  -0.361  1.00  0.00     0.152 C 
BRANCH  50  53
ATOM     53  C   UNL     1     -16.001   0.612   1.397  1.00  0.00     0.248 C 
ATOM     54  O   UNL     1     -15.115   0.819   2.216  1.00  0.00    -0.272 OA
BRANCH  53  55
ATOM     55  C   UNL     1     -17.117   1.694   1.249  1.00  0.00     0.116 C 
ATOM     56  C   UNL     1     -17.176   2.174  -0.228  1.00  0.00     0.045 C 
BRANCH  55  57
ATOM     57  C   UNL     1     -18.472   1.089   1.741  1.00  0.00     0.035 C 
ATOM     58  C   UNL     1     -18.438   0.716   3.230  1.00  0.00     0.007 C 
ENDBRANCH  55  57
BRANCH  55  59
ATOM     59  N   UNL     1     -16.799   2.887   2.069  1.00  0.00    -0.342 N 
ATOM     60  C   UNL     1     -17.580   4.011   2.163  1.00  0.00     0.217 C 
ATOM     61  O   UNL     1     -18.647   4.096   1.576  1.00  0.00    -0.275 OA
ATOM     62  H   UNL     1     -15.921   2.910   2.606  1.00  0.00     0.164 HD
ATOM     63  C   UNL     1     -17.140   5.183   2.993  1.00  0.00     0.114 C 
ENDBRANCH  55  59
ENDBRANCH  53  55
ENDBRANCH  50  53
BRANCH  51  64
ATOM     64  O   UNL     1     -18.108  -2.787   0.746  1.00  0.00    -0.391 OA
ATOM     65  H   UNL     1     -18.091  -2.174   1.528  1.00  0.00     0.211 HD
ENDBRANCH  51  64
ENDBRANCH  45  48
ENDBRANCH  39  44
ENDBRANCH  36  39
ENDBRANCH  33  35
BRANCH  33  66
ATOM     66  C   UNL     1      -9.647   3.268  -0.275  1.00  0.00     0.035 C 
ATOM     67  C   UNL     1      -8.702   4.281   0.388  1.00  0.00     0.007 C 
ENDBRANCH  33  66
ENDBRANCH  30  33
ENDBRANCH  28  29
BRANCH  28  68
ATOM     68  C   UNL     1      -8.663  -2.515   1.601  1.00  0.00     0.038 C 
BRANCH  68  69
ATOM     69  C   UNL     1     -10.217  -2.590   1.679  1.00  0.00    -0.015 C 
ATOM     70  C   UNL     1     -10.664  -4.056   1.684  1.00  0.00     0.007 C 
ATOM     71  C   UNL     1     -10.785  -1.881   2.921  1.00  0.00     0.007 C 
ENDBRANCH  68  69
ENDBRANCH  28  68
ENDBRANCH  25  28
ENDBRANCH  21  24
ENDBRANCH  18  21
ENDBRANCH  14  17
ENDBRANCH  11  14
ENDBRANCH   8  10
BRANCH   8  72
ATOM     72  C   UNL     1      -2.643   1.828  -1.026  1.00  0.00     0.035 C 
ATOM     73  C   UNL     1      -2.667   2.171   0.461  1.00  0.00     0.007 C 
ENDBRANCH   8  72
ENDBRANCH   6   8
ENDBRANCH   1   6
BRANCH   5  74
ATOM     74  C   UNL     1       2.404   0.513   0.520  1.00  0.00     0.243 C 
ATOM     75  O   UNL     1       1.992   0.452   1.671  1.00  0.00    -0.273 OA
ATOM     76  N   UNL     1       3.272  -0.411   0.033  1.00  0.00    -0.343 N 
ATOM     77  H   UNL     1       3.487  -0.344  -0.964  1.00  0.00     0.164 HD
BRANCH  76  78
ATOM     78  C   UNL     1       3.850  -1.514   0.784  1.00  0.00     0.171 C 
BRANCH  78  79
ATOM     79  C   UNL     1       3.024  -2.813   0.559  1.00  0.00     0.038 C 
BRANCH  79  80
ATOM     80  C   UNL     1       3.014  -3.475  -0.855  1.00  0.00    -0.015 C 
ATOM     81  C   UNL     1       2.257  -2.675  -1.931  1.00  0.00     0.007 C 
ATOM     82  C   UNL     1       2.344  -4.854  -0.745  1.00  0.00     0.007 C 
ENDBRANCH  79  80
ENDBRANCH  78  79
BRANCH  78  83
ATOM     83  C   UNL     1       5.326  -1.745   0.423  1.00  0.00     0.243 C 
ATOM     84  O   UNL     1       5.899  -2.694   0.940  1.00  0.00    -0.273 OA
ATOM     85  N   UNL     1       5.982  -0.961  -0.493  1.00  0.00    -0.340 N 
ATOM     86  H   UNL     1       5.508  -0.134  -0.868  1.00  0.00     0.164 HD
BRANCH  85  87
ATOM     87  C   UNL     1       7.280  -1.278  -1.099  1.00  0.00     0.116 C 
ATOM     88  C   UNL     1       7.137  -2.643  -1.825  1.00  0.00     0.045 C 
BRANCH  87  89
ATOM     89  C   UNL     1       7.616  -0.197  -2.179  1.00  0.00     0.035 C 
ATOM     90  C   UNL     1       7.808   1.218  -1.610  1.00  0.00     0.007 C 
ENDBRANCH  87  89
BRANCH  87  91
ATOM     91  C   UNL     1       8.428  -1.319  -0.079  1.00  0.00     0.246 C 
ATOM     92  O   UNL     1       8.229  -0.984   1.079  1.00  0.00    -0.272 OA
ATOM     93  N   UNL     1       9.673  -1.703  -0.502  1.00  0.00    -0.340 N 
ATOM     94  H   UNL     1       9.721  -1.965  -1.491  1.00  0.00     0.164 HD
BRANCH  93  95
ATOM     95  C   UNL     1      10.931  -1.717   0.273  1.00  0.00     0.113 C 
ATOM     96  C   UNL     1      11.287  -0.244   0.570  1.00  0.00     0.045 C 
ATOM     97  C   UNL     1      10.746  -2.530   1.575  1.00  0.00     0.045 C 
BRANCH  95  98
ATOM     98  C   UNL     1      12.032  -2.430  -0.573  1.00  0.00     0.248 C 
ATOM     99  O   UNL     1      11.672  -2.983  -1.605  1.00  0.00    -0.272 OA
BRANCH  98 100
ATOM    100  N   UNL     1      13.369  -2.528  -0.264  1.00  0.00    -0.326 N 
ATOM    101  C   UNL     1      14.271  -3.371  -1.030  1.00  0.00     0.152 C 
ATOM    102  C   UNL     1      14.126  -2.028   0.871  1.00  0.00     0.177 C 
ATOM    103  C   UNL     1      15.033  -4.149   0.053  1.00  0.00     0.136 C 
ATOM    104  C   UNL     1      14.815  -3.314   1.339  1.00  0.00     0.069 C 
BRANCH 102 105
ATOM    105  C   UNL     1      15.055  -0.925   0.357  1.00  0.00     0.243 C 
ATOM    106  O   UNL     1      14.546   0.155   0.105  1.00  0.00    -0.273 OA
ATOM    107  N   UNL     1      16.387  -1.136   0.100  1.00  0.00    -0.340 N 
ATOM    108  H   UNL     1      16.779  -2.059   0.313  1.00  0.00     0.164 HD
BRANCH 107 109
ATOM    109  C   UNL     1      17.282  -0.138  -0.514  1.00  0.00     0.116 C 
ATOM    110  C   UNL     1      16.692   0.349  -1.867  1.00  0.00     0.045 C 
BRANCH 109 111
ATOM    111  C   UNL     1      18.685  -0.780  -0.762  1.00  0.00     0.035 C 
ATOM    112  C   UNL     1      18.691  -1.986  -1.718  1.00  0.00     0.007 C 
ENDBRANCH 109 111
BRANCH 109 113
ATOM    113  C   UNL     1      17.474   1.038   0.449  1.00  0.00     0.246 C 
ATOM    114  O   UNL     1      17.000   0.950   1.572  1.00  0.00    -0.272 OA
ATOM    115  N   UNL     1      18.183   2.155   0.080  1.00  0.00    -0.340 N 
ATOM    116  H   UNL     1      18.547   2.155  -0.873  1.00  0.00     0.164 HD
BRANCH 115 117
ATOM    117  C   UNL     1      18.484   3.288   0.979  1.00  0.00     0.116 C 
ATOM    118  C   UNL     1      17.171   3.877   1.557  1.00  0.00     0.045 C 
BRANCH 117 119
ATOM    119  C   UNL     1      19.397   2.777   2.135  1.00  0.00     0.035 C 
ATOM    120  C   UNL     1      20.720   2.190   1.627  1.00  0.00     0.007 C 
ENDBRANCH 117 119
BRANCH 117 121
ATOM    121  C   UNL     1      19.192   4.486   0.292  1.00  0.00     0.245 C 
ATOM    122  O   UNL     1      19.532   5.412   1.020  1.00  0.00    -0.272 OA
ATOM    123  N   UNL     1      19.433   4.595  -1.052  1.00  0.00    -0.343 N 
ATOM    124  H   UNL     1      19.177   3.860  -1.719  1.00  0.00     0.164 HD
BRANCH 123 125
ATOM    125  C   UNL     1      20.063   5.775  -1.626  1.00  0.00     0.238 C 
BRANCH 125 126
ATOM    126  C   UNL     1      19.207   7.014  -1.475  1.00  0.00     0.322 C 
ATOM    127  O   UNL     1      18.104   6.956  -0.953  1.00  0.00    -0.250 OA
BRANCH 126 128
ATOM    128  O   UNL     1      19.654   8.203  -1.931  1.00  0.00    -0.480 OA
ATOM    129  H   UNL     1      20.522   8.291  -2.347  1.00  0.00     0.296 HD
ENDBRANCH 126 128
ENDBRANCH 125 126
ENDBRANCH 123 125
ENDBRANCH 117 121
ENDBRANCH 115 117
ENDBRANCH 109 113
ENDBRANCH 107 109
ENDBRANCH 102 105
BRANCH 103 130
ATOM    130  O   UNL     1      14.530  -5.454   0.224  1.00  0.00    -0.391 OA
ATOM    131  H   UNL     1      13.539  -5.396   0.283  1.00  0.00     0.211 HD
ENDBRANCH 103 130
ENDBRANCH  98 100
ENDBRANCH  95  98
ENDBRANCH  93  95
ENDBRANCH  87  91
ENDBRANCH  85  87
ENDBRANCH  78  83
ENDBRANCH  76  78
ENDBRANCH   5  74
BRANCH   3 132
ATOM    132  O   UNL     1       1.985   4.686  -1.632  1.00  0.00    -0.391 OA
ATOM    133  H   UNL     1       2.788   4.171  -1.910  1.00  0.00     0.211 HD
ENDBRANCH   3 132
TORSDOF 48
