REMARK SMILES COC(=O)C1=CO[C@@H](O[C@@H]2O[C@H](CO)[C@@H](O)[C@H](O)[C@H]2O)[C@H]2[C@@H]1C=C[C@@]21C=C([C@H](C)OC(=O)/C=C/c2ccc(O[C@@H]3O[C@H](CO)[C@@H](O)[C@H](O)[C@H]3O)cc2)C(=O)O1
REMARK SMILES IDX 31 1 32 2 30 3 28 4 29 5 27 6 5 7 6 8 22 9 7 10 21 11 23 12
REMARK SMILES IDX 8 13 25 14 24 15 26 16 55 17 53 18 54 19 3 20 4 21 2 22 1 23
REMARK SMILES IDX 9 24 10 25 11 26 19 27 12 28 17 29 15 30 20 31 13 33 14 34
REMARK SMILES IDX 18 36 16 38 33 40 34 41 35 42 36 43 52 44 37 45 51 46 38 47
REMARK SMILES IDX 39 48 40 49 41 50 49 51 42 52 47 53 45 54 50 55 43 57 44 58
REMARK SMILES IDX 48 60 46 62
REMARK H PARENT 20 32 14 35 18 37 16 39 50 56 44 59 48 61 46 63
ROOT
ATOM      1  C   UNL     1      -0.984   1.277  -2.459  1.00  0.00     0.331 C 
ATOM      2  O   UNL     1      -0.669   1.420  -3.632  1.00  0.00    -0.247 OA
ENDROOT
BRANCH   1   3
ATOM      3  O   UNL     1      -0.071   1.370  -1.463  1.00  0.00    -0.454 OA
BRANCH   3   4
ATOM      4  C   UNL     1       1.255   1.732  -1.561  1.00  0.00     0.211 C 
ATOM      5  C   UNL     1       1.540   2.804  -0.505  1.00  0.00     0.059 C 
BRANCH   4   6
ATOM      6  C   UNL     1       2.077   0.480  -1.384  1.00  0.00     0.078 C 
ATOM      7  C   UNL     1       6.509  -3.342  -0.300  1.00  0.00     0.079 C 
ATOM      8  C   UNL     1       7.276  -2.577   0.500  1.00  0.00     0.202 C 
ATOM      9  C   UNL     1       5.100  -2.901  -0.610  1.00  0.00     0.066 C 
ATOM     10  O   UNL     1       6.810  -1.421   1.042  1.00  0.00    -0.471 OA
ATOM     11  C   UNL     1       4.965  -1.375  -0.583  1.00  0.00     0.122 C 
ATOM     12  C   UNL     1       4.021  -3.303   0.350  1.00  0.00    -0.018 C 
ATOM     13  C   UNL     1       5.596  -0.813   0.749  1.00  0.00     0.317 C 
ATOM     14  C   UNL     1       3.425  -1.248  -0.619  1.00  0.00     0.159 C 
ATOM     15  C   UNL     1       3.028  -2.331   0.339  1.00  0.00     0.022 C 
ATOM     16  C   UNL     1       2.835   0.118  -0.354  1.00  0.00     0.041 C 
ATOM     17  O   UNL     1       2.940  -1.584  -1.875  1.00  0.00    -0.446 OA
ATOM     18  C   UNL     1       2.147  -0.607  -2.333  1.00  0.00     0.338 C 
ATOM     19  O   UNL     1       1.579  -0.650  -3.411  1.00  0.00    -0.246 OA
BRANCH   7  20
ATOM     20  C   UNL     1       7.068  -4.552  -0.962  1.00  0.00     0.337 C 
ATOM     21  O   UNL     1       6.358  -5.222  -1.701  1.00  0.00    -0.246 OA
BRANCH  20  22
ATOM     22  O   UNL     1       8.375  -4.879  -0.792  1.00  0.00    -0.466 OA
ATOM     23  C   UNL     1       9.010  -5.879  -1.498  1.00  0.00     0.282 C 
ENDBRANCH  20  22
ENDBRANCH   7  20
BRANCH  13  24
ATOM     24  O   UNL     1       5.824   0.576   0.584  1.00  0.00    -0.310 OA
BRANCH  24  25
ATOM     25  C   UNL     1       5.441   1.366   1.698  1.00  0.00     0.286 C 
ATOM     26  O   UNL     1       5.264   2.715   1.270  1.00  0.00    -0.341 OA
ATOM     27  C   UNL     1       6.395   1.253   2.931  1.00  0.00     0.202 C 
ATOM     28  C   UNL     1       6.478   3.416   0.981  1.00  0.00     0.178 C 
ATOM     29  C   UNL     1       7.750   1.908   2.623  1.00  0.00     0.179 C 
ATOM     30  C   UNL     1       7.513   3.353   2.150  1.00  0.00     0.177 C 
BRANCH  27  31
ATOM     31  O   UNL     1       5.846   1.852   4.088  1.00  0.00    -0.385 OA
ATOM     32  H   UNL     1       4.985   2.296   3.877  1.00  0.00     0.211 HD
ENDBRANCH  27  31
BRANCH  28  33
ATOM     33  C   UNL     1       7.040   3.169  -0.447  1.00  0.00     0.191 C 
BRANCH  33  34
ATOM     34  O   UNL     1       7.562   1.885  -0.649  1.00  0.00    -0.394 OA
ATOM     35  H   UNL     1       8.501   1.982  -0.956  1.00  0.00     0.210 HD
ENDBRANCH  33  34
ENDBRANCH  28  33
BRANCH  29  36
ATOM     36  O   UNL     1       8.436   1.174   1.644  1.00  0.00    -0.387 OA
ATOM     37  H   UNL     1       8.819   0.377   2.096  1.00  0.00     0.211 HD
ENDBRANCH  29  36
BRANCH  30  38
ATOM     38  O   UNL     1       7.093   4.133   3.252  1.00  0.00    -0.387 OA
ATOM     39  H   UNL     1       6.112   4.276   3.219  1.00  0.00     0.211 HD
ENDBRANCH  30  38
ENDBRANCH  24  25
ENDBRANCH  13  24
ENDBRANCH   4   6
ENDBRANCH   3   4
ENDBRANCH   1   3
BRANCH   1  40
ATOM     40  C   UNL     1      -2.365   0.956  -2.063  1.00  0.00     0.094 C 
ATOM     41  C   UNL     1      -3.364   0.702  -2.928  1.00  0.00     0.015 C 
BRANCH  41  42
ATOM     42  C   UNL     1      -4.763   0.409  -2.496  1.00  0.00    -0.025 A 
ATOM     43  C   UNL     1      -5.171   0.502  -1.150  1.00  0.00     0.012 A 
ATOM     44  C   UNL     1      -5.722   0.054  -3.462  1.00  0.00     0.012 A 
ATOM     45  C   UNL     1      -6.493   0.275  -0.789  1.00  0.00     0.047 A 
ATOM     46  C   UNL     1      -7.054  -0.187  -3.094  1.00  0.00     0.047 A 
ATOM     47  C   UNL     1      -7.456  -0.065  -1.757  1.00  0.00     0.123 A 
BRANCH  47  48
ATOM     48  O   UNL     1      -8.770  -0.236  -1.440  1.00  0.00    -0.462 OA
BRANCH  48  49
ATOM     49  C   UNL     1      -9.319   0.093  -0.212  1.00  0.00     0.339 C 
ATOM     50  O   UNL     1      -8.830  -0.809   0.789  1.00  0.00    -0.332 OA
ATOM     51  C   UNL     1     -10.855   0.057  -0.287  1.00  0.00     0.214 C 
ATOM     52  C   UNL     1      -9.563  -0.830   2.023  1.00  0.00     0.179 C 
ATOM     53  C   UNL     1     -11.451   0.608   1.032  1.00  0.00     0.180 C 
ATOM     54  C   UNL     1     -10.476   0.415   2.230  1.00  0.00     0.177 C 
BRANCH  51  55
ATOM     55  O   UNL     1     -11.365   0.758  -1.394  1.00  0.00    -0.384 OA
ATOM     56  H   UNL     1     -10.973   1.670  -1.375  1.00  0.00     0.211 HD
ENDBRANCH  51  55
BRANCH  52  57
ATOM     57  C   UNL     1     -10.295  -2.176   2.176  1.00  0.00     0.191 C 
BRANCH  57  58
ATOM     58  O   UNL     1     -10.962  -2.246   3.409  1.00  0.00    -0.394 OA
ATOM     59  H   UNL     1     -10.267  -2.399   4.101  1.00  0.00     0.210 HD
ENDBRANCH  57  58
ENDBRANCH  52  57
BRANCH  53  60
ATOM     60  O   UNL     1     -12.733   0.072   1.251  1.00  0.00    -0.387 OA
ATOM     61  H   UNL     1     -12.633  -0.819   1.669  1.00  0.00     0.211 HD
ENDBRANCH  53  60
BRANCH  54  62
ATOM     62  O   UNL     1      -9.640   1.548   2.302  1.00  0.00    -0.387 OA
ATOM     63  H   UNL     1      -9.158   1.506   3.170  1.00  0.00     0.211 HD
ENDBRANCH  54  62
ENDBRANCH  48  49
ENDBRANCH  47  48
ENDBRANCH  41  42
ENDBRANCH   1  40
TORSDOF 21
