REMARK SMILES Nc1ccn([C@H]2O[C@H](CO[P@@](=O)(O)O[P@@](=O)(O)OCCN(O)C=O)[C@@H](O)[C@@H]2O)c(=O)n1
REMARK SMILES IDX 14 1 11 2 12 3 10 4 9 5 8 6 6 7 7 8 27 9 25 10 5 11 2 12
REMARK SMILES IDX 31 13 3 14 29 15 4 16 30 17 1 18 28 21 26 23 13 25 15 27
REMARK SMILES IDX 16 28 17 29 18 31 19 32 20 33 21 34 22 35 23 37 24 38
REMARK H PARENT 1 19 1 20 28 22 26 24 13 26 17 30 22 36
ROOT
ATOM      1  O   UNL     1       2.855  -0.341   1.240  1.00  0.00    -0.185 OA
ENDROOT
BRANCH   1   2
ATOM      2  P   UNL     1       1.633  -0.868   0.113  1.00  0.00     0.481 P 
ATOM      3  O   UNL     1       1.041  -2.168   0.722  1.00  0.00    -0.228 OA
BRANCH   2   4
ATOM      4  O   UNL     1       0.370   0.340   0.011  1.00  0.00    -0.284 OA
BRANCH   4   5
ATOM      5  C   UNL     1      -0.791  -0.232  -0.542  1.00  0.00     0.208 C 
BRANCH   5   6
ATOM      6  C   UNL     1      -1.909   0.831  -0.519  1.00  0.00     0.179 C 
ATOM      7  C   UNL     1      -3.759  -0.338   0.010  1.00  0.00     0.255 C 
ATOM      8  O   UNL     1      -3.113   0.326  -1.065  1.00  0.00    -0.347 OA
ATOM      9  C   UNL     1      -3.353   0.357   1.327  1.00  0.00     0.196 C 
ATOM     10  C   UNL     1      -2.269   1.337   0.887  1.00  0.00     0.179 C 
BRANCH   7  11
ATOM     11  N   UNL     1      -5.226  -0.376  -0.180  1.00  0.00    -0.270 N 
ATOM     12  C   UNL     1      -7.970  -0.495  -0.527  1.00  0.00     0.130 A 
ATOM     13  N   UNL     1      -7.327   0.698  -0.494  1.00  0.00    -0.176 NA
ATOM     14  C   UNL     1      -7.238  -1.673  -0.389  1.00  0.00     0.065 A 
ATOM     15  C   UNL     1      -5.982   0.777  -0.327  1.00  0.00     0.351 A 
ATOM     16  C   UNL     1      -5.858  -1.591  -0.217  1.00  0.00     0.097 A 
ATOM     17  O   UNL     1      -5.456   1.874  -0.314  1.00  0.00    -0.246 OA
BRANCH  12  18
ATOM     18  N   UNL     1      -9.373  -0.533  -0.702  1.00  0.00    -0.383 N 
ATOM     19  H   UNL     1      -9.906   0.343  -0.801  1.00  0.00     0.158 HD
ATOM     20  H   UNL     1      -9.878  -1.430  -0.727  1.00  0.00     0.158 HD
ENDBRANCH  12  18
ENDBRANCH   7  11
BRANCH   9  21
ATOM     21  O   UNL     1      -2.919  -0.579   2.286  1.00  0.00    -0.386 OA
ATOM     22  H   UNL     1      -2.010  -0.889   2.044  1.00  0.00     0.211 HD
ENDBRANCH   9  21
BRANCH  10  23
ATOM     23  O   UNL     1      -2.822   2.638   0.836  1.00  0.00    -0.387 OA
ATOM     24  H   UNL     1      -3.188   2.827  -0.066  1.00  0.00     0.211 HD
ENDBRANCH  10  23
ENDBRANCH   5   6
ENDBRANCH   4   5
ENDBRANCH   2   4
BRANCH   2  25
ATOM     25  O   UNL     1       2.327  -1.272  -1.429  1.00  0.00    -0.302 OA
ATOM     26  H   UNL     1       1.560  -1.529  -1.998  1.00  0.00     0.223 HD
ENDBRANCH   2  25
ENDBRANCH   1   2
BRANCH   1  27
ATOM     27  P   UNL     1       3.784   0.900   0.439  1.00  0.00     0.481 P 
ATOM     28  O   UNL     1       2.812   1.907  -0.238  1.00  0.00    -0.228 OA
BRANCH  27  29
ATOM     29  O   UNL     1       4.699   1.820   1.597  1.00  0.00    -0.302 OA
ATOM     30  H   UNL     1       4.025   2.355   2.087  1.00  0.00     0.223 HD
ENDBRANCH  27  29
BRANCH  27  31
ATOM     31  O   UNL     1       4.795   0.228  -0.822  1.00  0.00    -0.285 OA
BRANCH  31  32
ATOM     32  C   UNL     1       6.137   0.351  -0.426  1.00  0.00     0.197 C 
BRANCH  32  33
ATOM     33  C   UNL     1       7.020  -0.363  -1.452  1.00  0.00     0.181 C 
BRANCH  33  34
ATOM     34  N   UNL     1       8.430  -0.202  -1.142  1.00  0.00    -0.225 N 
BRANCH  34  35
ATOM     35  O   UNL     1       9.219   0.449  -2.013  1.00  0.00    -0.286 OA
ATOM     36  H   UNL     1       9.118   1.409  -1.784  1.00  0.00     0.246 HD
ENDBRANCH  34  35
BRANCH  34  37
ATOM     37  C   UNL     1       8.966  -0.721  -0.006  1.00  0.00     0.365 C 
ATOM     38  O   UNL     1      10.155  -0.585   0.236  1.00  0.00    -0.276 OA
ENDBRANCH  34  37
ENDBRANCH  33  34
ENDBRANCH  32  33
ENDBRANCH  31  32
ENDBRANCH  27  31
ENDBRANCH   1  27
TORSDOF 17
