REMARK SMILES COc1ccc2oc(-c3cc(OC)c(OC)cc3OC)c(OC)c(=O)c2c1
REMARK SMILES IDX 3 1 4 2 5 3 6 4 7 5 8 6 21 7 24 8 25 9 26 10 27 11 2 12 1 13
REMARK SMILES IDX 22 14 23 15 9 16 10 17 18 18 11 19 17 20 14 21 19 22 20 23
REMARK SMILES IDX 12 24 13 25 15 26 16 27
REMARK H PARENT
ROOT
ATOM      1  C   UNL     1       5.202   0.383  -0.154  1.00  0.00     0.119 A 
ATOM      2  C   UNL     1       4.593   1.167  -1.142  1.00  0.00     0.050 A 
ATOM      3  C   UNL     1       3.202   1.242  -1.233  1.00  0.00     0.052 A 
ATOM      4  C   UNL     1       2.401   0.533  -0.335  1.00  0.00     0.139 A 
ATOM      5  O   UNL     1       1.082   0.610  -0.438  1.00  0.00    -0.452 OA
ATOM      6  C   UNL     1       0.223  -0.021   0.361  1.00  0.00     0.184 A 
ATOM      7  C   UNL     1       0.752  -0.848   1.395  1.00  0.00     0.210 A 
ATOM      8  C   UNL     1       2.144  -0.953   1.540  1.00  0.00     0.235 A 
ATOM      9  O   UNL     1       2.609  -1.658   2.422  1.00  0.00    -0.285 OA
ATOM     10  C   UNL     1       2.990  -0.257   0.666  1.00  0.00     0.072 A 
ATOM     11  C   UNL     1       4.393  -0.330   0.755  1.00  0.00     0.062 A 
ENDROOT
BRANCH   1  12
ATOM     12  O   UNL     1       6.559   0.340  -0.115  1.00  0.00    -0.497 OA
ATOM     13  C   UNL     1       7.313  -0.391   0.780  1.00  0.00     0.278 C 
ENDBRANCH   1  12
BRANCH   7  14
ATOM     14  O   UNL     1      -0.032  -1.561   2.231  1.00  0.00    -0.490 OA
ATOM     15  C   UNL     1      -0.413  -2.856   1.947  1.00  0.00     0.278 C 
ENDBRANCH   7  14
BRANCH   6  16
ATOM     16  C   UNL     1      -1.249   0.188   0.080  1.00  0.00     0.067 A 
ATOM     17  C   UNL     1      -2.252  -0.148   1.016  1.00  0.00     0.066 A 
ATOM     18  C   UNL     1      -1.660   0.749  -1.161  1.00  0.00     0.133 A 
ATOM     19  C   UNL     1      -3.620   0.037   0.741  1.00  0.00     0.161 A 
ATOM     20  C   UNL     1      -3.031   0.930  -1.428  1.00  0.00     0.097 A 
ATOM     21  C   UNL     1      -4.011   0.573  -0.489  1.00  0.00     0.164 A 
BRANCH  18  22
ATOM     22  O   UNL     1      -0.723   1.090  -2.088  1.00  0.00    -0.496 OA
ATOM     23  C   UNL     1      -0.949   1.639  -3.333  1.00  0.00     0.278 C 
ENDBRANCH  18  22
BRANCH  19  24
ATOM     24  O   UNL     1      -4.587  -0.294   1.640  1.00  0.00    -0.493 OA
ATOM     25  C   UNL     1      -4.380  -0.842   2.889  1.00  0.00     0.278 C 
ENDBRANCH  19  24
BRANCH  21  26
ATOM     26  O   UNL     1      -5.340   0.733  -0.734  1.00  0.00    -0.493 OA
ATOM     27  C   UNL     1      -5.892   1.230  -1.897  1.00  0.00     0.278 C 
ENDBRANCH  21  26
ENDBRANCH   6  16
TORSDOF 6
