REMARK SMILES Cc1cc(O)cc(O[C@@H]2O[C@@H](C)[C@H](O)[C@@H](O)[C@H]2O)c1
REMARK SMILES IDX 8 1 7 2 2 3 3 4 19 5 4 6 6 7 1 8 5 9 9 11 10 12 17 13 11 14
REMARK SMILES IDX 15 15 13 16 12 17 18 18 16 20 14 22
REMARK H PARENT 5 10 18 19 16 21 14 23
ROOT
ATOM      1  O   UNL     1       0.278   0.498   0.531  1.00  0.00    -0.462 OA
ENDROOT
BRANCH   1   2
ATOM      2  C   UNL     1       1.632   0.484   0.404  1.00  0.00     0.126 A 
ATOM      3  C   UNL     1       3.755  -0.454  -0.366  1.00  0.00    -0.044 A 
ATOM      4  C   UNL     1       4.437   0.623   0.217  1.00  0.00     0.049 A 
ATOM      5  C   UNL     1       2.355  -0.524  -0.273  1.00  0.00     0.050 A 
ATOM      6  C   UNL     1       3.727   1.624   0.892  1.00  0.00     0.119 A 
ATOM      7  C   UNL     1       2.336   1.547   0.983  1.00  0.00     0.092 A 
ATOM      8  C   UNL     1       4.506  -1.533  -1.091  1.00  0.00     0.044 C 
BRANCH   6   9
ATOM      9  O   UNL     1       4.371   2.667   1.456  1.00  0.00    -0.508 OA
ATOM     10  H   UNL     1       5.333   2.762   1.413  1.00  0.00     0.293 HD
ENDBRANCH   6   9
ENDBRANCH   1   2
BRANCH   1  11
ATOM     11  C   UNL     1      -0.669  -0.329  -0.053  1.00  0.00     0.339 C 
ATOM     12  O   UNL     1      -1.439   0.442  -0.961  1.00  0.00    -0.335 OA
ATOM     13  C   UNL     1      -1.446  -1.136   1.050  1.00  0.00     0.214 C 
ATOM     14  C   UNL     1      -2.634   0.961  -0.423  1.00  0.00     0.151 C 
ATOM     15  C   UNL     1      -2.998  -0.980   1.084  1.00  0.00     0.180 C 
ATOM     16  C   UNL     1      -3.571  -0.213  -0.114  1.00  0.00     0.174 C 
ATOM     17  C   UNL     1      -3.233   1.902  -1.473  1.00  0.00     0.042 C 
BRANCH  13  18
ATOM     18  O   UNL     1      -1.030  -2.478   1.098  1.00  0.00    -0.384 OA
ATOM     19  H   UNL     1      -1.274  -2.895   0.233  1.00  0.00     0.211 HD
ENDBRANCH  13  18
BRANCH  15  20
ATOM     20  O   UNL     1      -3.665  -2.198   1.302  1.00  0.00    -0.387 OA
ATOM     21  H   UNL     1      -3.606  -2.721   0.456  1.00  0.00     0.211 HD
ENDBRANCH  15  20
BRANCH  16  22
ATOM     22  O   UNL     1      -4.889   0.203   0.167  1.00  0.00    -0.388 OA
ATOM     23  H   UNL     1      -4.844   0.898   0.875  1.00  0.00     0.211 HD
ENDBRANCH  16  22
ENDBRANCH   1  11
TORSDOF 6
