REMARK SMILES COc1ccc2c(c1)cc([C@H]1CC(=O)Oc3ccc4c(c31)OC(=C(C)C)C4=O)c(=O)n2CC(C)C
REMARK SMILES IDX 3 1 4 2 5 3 6 4 7 5 8 6 9 7 10 8 29 9 30 10 31 11 2 12 1 13
REMARK SMILES IDX 32 14 33 15 34 16 35 17 11 18 12 19 21 20 13 21 20 22 16 23
REMARK SMILES IDX 14 24 15 25 22 26 19 27 17 28 23 29 18 30 27 31 24 32 28 33
REMARK SMILES IDX 25 34 26 35
REMARK H PARENT
ROOT
ATOM      1  C   UNL     1      -3.860   1.059   1.928  1.00  0.00     0.119 A 
ATOM      2  C   UNL     1      -4.052  -0.322   1.914  1.00  0.00     0.048 A 
ATOM      3  C   UNL     1      -3.212  -1.155   1.172  1.00  0.00     0.031 A 
ATOM      4  C   UNL     1      -2.143  -0.625   0.408  1.00  0.00     0.051 A 
ATOM      5  C   UNL     1      -1.956   0.780   0.427  1.00  0.00     0.002 A 
ATOM      6  C   UNL     1      -2.807   1.608   1.176  1.00  0.00     0.056 A 
ATOM      7  C   UNL     1      -0.909   1.346  -0.296  1.00  0.00     0.020 A 
ATOM      8  C   UNL     1      -0.022   0.545  -1.018  1.00  0.00     0.026 A 
ATOM      9  C   UNL     1      -0.217  -0.852  -1.012  1.00  0.00     0.254 A 
ATOM     10  O   UNL     1       0.552  -1.557  -1.648  1.00  0.00    -0.269 OA
ATOM     11  N   UNL     1      -1.282  -1.426  -0.323  1.00  0.00    -0.308 N 
ENDROOT
BRANCH   1  12
ATOM     12  O   UNL     1      -4.698   1.819   2.680  1.00  0.00    -0.497 OA
ATOM     13  C   UNL     1      -4.619   3.186   2.843  1.00  0.00     0.278 C 
ENDBRANCH   1  12
BRANCH  11  14
ATOM     14  C   UNL     1      -1.468  -2.899  -0.395  1.00  0.00     0.129 C 
BRANCH  14  15
ATOM     15  C   UNL     1      -2.672  -3.278  -1.295  1.00  0.00     0.003 C 
ATOM     16  C   UNL     1      -2.870  -4.799  -1.296  1.00  0.00     0.009 C 
ATOM     17  C   UNL     1      -2.459  -2.780  -2.733  1.00  0.00     0.009 C 
ENDBRANCH  14  15
ENDBRANCH  11  14
BRANCH   8  18
ATOM     18  C   UNL     1       1.133   1.177  -1.788  1.00  0.00     0.074 C 
ATOM     19  C   UNL     1       0.683   2.000  -3.012  1.00  0.00     0.136 C 
ATOM     20  C   UNL     1       1.985   2.034  -0.870  1.00  0.00     0.047 A 
ATOM     21  C   UNL     1       0.226   3.362  -2.601  1.00  0.00     0.312 C 
ATOM     22  C   UNL     1       2.842   1.464   0.075  1.00  0.00     0.146 A 
ATOM     23  C   UNL     1       1.893   3.458  -0.916  1.00  0.00     0.138 A 
ATOM     24  O   UNL     1      -0.814   3.835  -3.030  1.00  0.00    -0.252 OA
ATOM     25  O   UNL     1       0.999   4.069  -1.740  1.00  0.00    -0.426 OA
ATOM     26  O   UNL     1       3.031   0.144   0.295  1.00  0.00    -0.452 OA
ATOM     27  C   UNL     1       3.601   2.250   0.908  1.00  0.00     0.069 A 
ATOM     28  C   UNL     1       2.686   4.245  -0.055  1.00  0.00     0.048 A 
ATOM     29  C   UNL     1       3.925  -0.007   1.310  1.00  0.00     0.174 C 
ATOM     30  C   UNL     1       3.558   3.641   0.865  1.00  0.00     0.020 A 
ATOM     31  C   UNL     1       4.349   1.342   1.743  1.00  0.00     0.231 C 
ATOM     32  C   UNL     1       4.298  -1.222   1.784  1.00  0.00    -0.030 C 
ATOM     33  O   UNL     1       5.136   1.655   2.621  1.00  0.00    -0.285 OA
ATOM     34  C   UNL     1       5.280  -1.419   2.914  1.00  0.00     0.043 C 
ATOM     35  C   UNL     1       3.718  -2.482   1.187  1.00  0.00     0.043 C 
ENDBRANCH   8  18
TORSDOF 4
