REMARK SMILES CC(C)CC(=O)OCC1=C[C@H](O)[C@H]2C(C)(C)CCC[C@]2(C)[C@@]12CC[C@](C)(CC(=O)O)O2
REMARK SMILES IDX 8 1 7 2 5 3 6 4 4 5 2 6 1 7 3 8 9 9 10 10 22 11 11 12 20 13
REMARK SMILES IDX 23 14 31 15 13 16 19 17 24 18 25 19 14 20 18 21 17 22 21 23
REMARK SMILES IDX 26 24 15 25 16 26 12 27 27 29 28 30 29 31 30 32
REMARK H PARENT 12 28 30 33
ROOT
ATOM      1  C   UNL     1       1.870  -0.807   1.768  1.00  0.00     0.267 C 
ENDROOT
BRANCH   1   2
ATOM      2  O   UNL     1       2.857  -0.400   0.887  1.00  0.00    -0.461 OA
BRANCH   2   3
ATOM      3  C   UNL     1       3.346   0.854   0.752  1.00  0.00     0.306 C 
ATOM      4  O   UNL     1       2.913   1.771   1.434  1.00  0.00    -0.252 OA
BRANCH   3   5
ATOM      5  C   UNL     1       4.438   1.122  -0.259  1.00  0.00     0.125 C 
BRANCH   5   6
ATOM      6  C   UNL     1       5.773   0.390   0.034  1.00  0.00    -0.006 C 
ATOM      7  C   UNL     1       5.654  -1.140  -0.051  1.00  0.00     0.008 C 
ATOM      8  C   UNL     1       6.354   0.810   1.392  1.00  0.00     0.008 C 
ENDBRANCH   5   6
ENDBRANCH   3   5
ENDBRANCH   2   3
ENDBRANCH   1   2
BRANCH   1   9
ATOM      9  C   UNL     1       0.492  -0.239   1.422  1.00  0.00    -0.002 C 
ATOM     10  C   UNL     1      -0.133   0.476   2.385  1.00  0.00     0.010 C 
ATOM     11  C   UNL     1      -0.219  -0.468   0.067  1.00  0.00     0.099 C 
ATOM     12  C   UNL     1      -1.452   1.207   2.206  1.00  0.00     0.141 C 
ATOM     13  C   UNL     1      -0.985   0.902  -0.323  1.00  0.00     0.007 C 
ATOM     14  C   UNL     1       0.723  -1.042  -1.036  1.00  0.00     0.044 C 
ATOM     15  O   UNL     1      -1.181  -1.500   0.307  1.00  0.00    -0.363 OA
ATOM     16  C   UNL     1      -2.107   1.096   0.789  1.00  0.00     0.036 C 
ATOM     17  C   UNL     1      -1.683   0.827  -1.710  1.00  0.00     0.010 C 
ATOM     18  C   UNL     1      -0.171  -2.014  -1.761  1.00  0.00     0.039 C 
ATOM     19  C   UNL     1      -0.984  -2.579  -0.592  1.00  0.00     0.077 C 
ATOM     20  C   UNL     1      -3.254   2.169   0.498  1.00  0.00    -0.029 C 
ATOM     21  C   UNL     1      -2.608   2.020  -1.991  1.00  0.00     0.001 C 
ATOM     22  C   UNL     1      -3.745   2.020  -0.970  1.00  0.00     0.007 C 
ATOM     23  C   UNL     1       0.055   2.070  -0.386  1.00  0.00     0.015 C 
ATOM     24  C   UNL     1      -0.237  -3.710   0.162  1.00  0.00     0.043 C 
ATOM     25  C   UNL     1      -4.492   1.891   1.392  1.00  0.00     0.011 C 
ATOM     26  C   UNL     1      -2.841   3.639   0.768  1.00  0.00     0.011 C 
BRANCH  12  27
ATOM     27  O   UNL     1      -2.345   0.836   3.221  1.00  0.00    -0.389 OA
ATOM     28  H   UNL     1      -2.517  -0.137   3.117  1.00  0.00     0.211 HD
ENDBRANCH  12  27
BRANCH  19  29
ATOM     29  C   UNL     1      -2.383  -3.097  -1.030  1.00  0.00     0.157 C 
BRANCH  29  30
ATOM     30  C   UNL     1      -2.421  -4.234  -2.027  1.00  0.00     0.306 C 
ATOM     31  O   UNL     1      -1.401  -4.688  -2.519  1.00  0.00    -0.252 OA
BRANCH  30  32
ATOM     32  O   UNL     1      -3.611  -4.762  -2.385  1.00  0.00    -0.481 OA
ATOM     33  H   UNL     1      -4.441  -4.442  -2.007  1.00  0.00     0.296 HD
ENDBRANCH  30  32
ENDBRANCH  29  30
ENDBRANCH  19  29
ENDBRANCH   1   9
TORSDOF 9
