REMARK SMILES COCCCO[C@H]1CC[C@@]2(C)[C@@H](C1)C(=O)C=C1[C@@H]2CC[C@]2(C)[C@@H]([C@](C)(O)[C@H](O)[C@H]3O[C@@H]4[C@@H]([C@H]3C)C3(CCCC3)[C@H](C(=O)N3CC3)N[C@@H]4O)CC[C@@]12O
REMARK SMILES IDX 7 1 8 2 9 3 10 4 11 5 12 6 13 7 14 8 15 9 16 10 17 11 18 12
REMARK SMILES IDX 19 13 20 14 21 15 22 16 23 17 49 18 50 19 51 20 6 21 5 22
REMARK SMILES IDX 4 23 3 24 2 25 1 26 52 27 24 29 25 30 26 31 27 33 28 34
REMARK SMILES IDX 29 36 30 37 33 38 31 39 32 40 47 41 35 42 46 43 36 44 40 45
REMARK SMILES IDX 39 46 37 47 38 48 34 49 48 51 41 53 42 54 43 55 44 56 45 57
REMARK H PARENT 52 28 26 32 28 35 46 50 48 52
ROOT
ATOM      1  C   UNL     1       7.321  -0.868   1.595  1.00  0.00     0.119 C 
ATOM      2  C   UNL     1       6.962   0.201   0.528  1.00  0.00     0.033 C 
ATOM      3  C   UNL     1       6.342  -0.445  -0.725  1.00  0.00     0.011 C 
ATOM      4  C   UNL     1       4.975  -1.159  -0.372  1.00  0.00    -0.016 C 
ATOM      5  C   UNL     1       4.742  -2.215  -1.486  1.00  0.00     0.013 C 
ATOM      6  C   UNL     1       5.090  -1.911   1.029  1.00  0.00     0.069 C 
ATOM      7  C   UNL     1       6.555  -2.194   1.390  1.00  0.00     0.044 C 
ATOM      8  C   UNL     1       4.351  -1.252   2.187  1.00  0.00     0.159 C 
ATOM      9  O   UNL     1       4.627  -1.555   3.339  1.00  0.00    -0.295 OA
ATOM     10  C   UNL     1       3.018  -0.708   1.914  1.00  0.00     0.050 C 
ATOM     11  C   UNL     1       2.730  -0.233   0.697  1.00  0.00    -0.031 C 
ATOM     12  C   UNL     1       3.837  -0.057  -0.341  1.00  0.00     0.025 C 
ATOM     13  C   UNL     1       3.262   0.402  -1.717  1.00  0.00     0.009 C 
ATOM     14  C   UNL     1       1.983  -0.371  -2.152  1.00  0.00     0.011 C 
ATOM     15  C   UNL     1       0.962  -0.657  -0.972  1.00  0.00     0.006 C 
ATOM     16  C   UNL     1       1.011  -2.193  -0.653  1.00  0.00     0.015 C 
ATOM     17  C   UNL     1      -0.502  -0.154  -1.204  1.00  0.00     0.033 C 
ATOM     18  C   UNL     1      -1.054   0.052   0.255  1.00  0.00     0.010 C 
ATOM     19  C   UNL     1       0.147  -0.064   1.213  1.00  0.00     0.041 C 
ATOM     20  C   UNL     1       1.332   0.191   0.288  1.00  0.00     0.092 C 
ENDROOT
BRANCH   1  21
ATOM     21  O   UNL     1       8.706  -1.153   1.547  1.00  0.00    -0.378 OA
BRANCH  21  22
ATOM     22  C   UNL     1       9.398  -0.468   2.574  1.00  0.00     0.163 C 
BRANCH  22  23
ATOM     23  C   UNL     1      10.858  -0.281   2.163  1.00  0.00     0.057 C 
BRANCH  23  24
ATOM     24  C   UNL     1      10.994   0.603   0.918  1.00  0.00     0.162 C 
BRANCH  24  25
ATOM     25  O   UNL     1      10.480   1.889   1.198  1.00  0.00    -0.385 OA
ATOM     26  C   UNL     1      10.525   2.675   0.029  1.00  0.00     0.194 C 
ENDBRANCH  24  25
ENDBRANCH  23  24
ENDBRANCH  22  23
ENDBRANCH  21  22
ENDBRANCH   1  21
BRANCH  20  27
ATOM     27  O   UNL     1       1.336   1.576  -0.000  1.00  0.00    -0.385 OA
ATOM     28  H   UNL     1       1.612   2.054   0.826  1.00  0.00     0.211 HD
ENDBRANCH  20  27
BRANCH  17  29
ATOM     29  C   UNL     1      -1.450  -0.809  -2.305  1.00  0.00     0.094 C 
ATOM     30  C   UNL     1      -2.046  -2.162  -1.841  1.00  0.00     0.045 C 
BRANCH  29  31
ATOM     31  O   UNL     1      -0.676  -1.031  -3.465  1.00  0.00    -0.387 OA
ATOM     32  H   UNL     1      -0.142  -1.858  -3.355  1.00  0.00     0.211 HD
ENDBRANCH  29  31
BRANCH  29  33
ATOM     33  C   UNL     1      -2.610   0.169  -2.789  1.00  0.00     0.175 C 
BRANCH  33  34
ATOM     34  O   UNL     1      -2.011   1.311  -3.364  1.00  0.00    -0.387 OA
ATOM     35  H   UNL     1      -1.829   1.978  -2.652  1.00  0.00     0.211 HD
ENDBRANCH  33  34
BRANCH  33  36
ATOM     36  C   UNL     1      -3.706   0.617  -1.764  1.00  0.00     0.153 C 
ATOM     37  O   UNL     1      -4.303   1.865  -2.090  1.00  0.00    -0.367 OA
ATOM     38  C   UNL     1      -4.890  -0.317  -1.327  1.00  0.00     0.024 C 
ATOM     39  C   UNL     1      -5.205   1.994  -1.016  1.00  0.00     0.166 C 
ATOM     40  C   UNL     1      -6.023   0.721  -1.053  1.00  0.00     0.036 C 
ATOM     41  C   UNL     1      -6.093   3.244  -0.968  1.00  0.00     0.212 C 
ATOM     42  C   UNL     1      -7.066   0.647   0.159  1.00  0.00     0.001 C 
ATOM     43  N   UNL     1      -7.076   3.153   0.155  1.00  0.00    -0.278 NA
ATOM     44  C   UNL     1      -7.008  -0.683   0.938  1.00  0.00     0.009 C 
ATOM     45  C   UNL     1      -6.912   1.959   1.039  1.00  0.00     0.152 C 
ATOM     46  C   UNL     1      -8.527   0.547  -0.367  1.00  0.00     0.009 C 
ATOM     47  C   UNL     1      -7.851  -1.702   0.146  1.00  0.00     0.001 C 
ATOM     48  C   UNL     1      -8.619  -0.873  -0.890  1.00  0.00     0.001 C 
ATOM     49  C   UNL     1      -5.336  -1.294  -2.433  1.00  0.00     0.011 C 
ATOM     50  H   UNL     1      -7.037   4.037   0.715  1.00  0.00     0.126 HD
BRANCH  41  51
ATOM     51  O   UNL     1      -6.750   3.472  -2.190  1.00  0.00    -0.376 OA
ATOM     52  H   UNL     1      -7.505   2.837  -2.263  1.00  0.00     0.212 HD
ENDBRANCH  41  51
BRANCH  45  53
ATOM     53  C   UNL     1      -7.847   2.038   2.241  1.00  0.00     0.240 C 
ATOM     54  O   UNL     1      -8.875   2.686   2.164  1.00  0.00    -0.273 OA
ATOM     55  N   UNL     1      -7.518   1.445   3.426  1.00  0.00    -0.338 N 
ATOM     56  C   UNL     1      -6.524   0.748   3.957  1.00  0.00     0.141 C 
ATOM     57  C   UNL     1      -8.058   1.365   4.633  1.00  0.00     0.141 C 
ENDBRANCH  45  53
ENDBRANCH  33  36
ENDBRANCH  29  33
ENDBRANCH  17  29
TORSDOF 13
