REMARK SMILES c1ccc(CN2C[C@@H]3COCCN3C3(C2)CN(C2CCOCC2)C3)cc1
REMARK SMILES IDX 6 1 7 2 8 3 9 4 10 5 11 6 12 7 13 8 14 9 15 10 16 11 17 12
REMARK SMILES IDX 24 13 5 14 4 15 1 16 2 17 26 18 3 19 25 20 18 21 19 22 23 23
REMARK SMILES IDX 20 24 22 25 21 26
REMARK H PARENT
ROOT
ATOM      1  N   UNL     1       2.299   0.789   0.066  1.00  0.00    -0.295 NA
ATOM      2  C   UNL     1       1.835   2.178   0.292  1.00  0.00     0.106 C 
ATOM      3  C   UNL     1       1.330   2.811  -1.020  1.00  0.00     0.097 C 
ATOM      4  C   UNL     1       0.934   4.295  -0.809  1.00  0.00     0.180 C 
ATOM      5  O   UNL     1      -0.281   4.393  -0.094  1.00  0.00    -0.378 OA
ATOM      6  C   UNL     1      -1.372   3.796  -0.797  1.00  0.00     0.175 C 
ATOM      7  C   UNL     1      -0.973   2.853  -1.958  1.00  0.00     0.114 C 
ATOM      8  N   UNL     1       0.204   2.025  -1.603  1.00  0.00    -0.285 NA
ATOM      9  C   UNL     1       0.043   0.645  -1.049  1.00  0.00     0.060 C 
ATOM     10  C   UNL     1       1.412  -0.014  -0.822  1.00  0.00     0.110 C 
ATOM     11  C   UNL     1      -0.992  -0.179  -1.823  1.00  0.00     0.110 C 
ATOM     12  N   UNL     1      -2.022   0.150  -0.822  1.00  0.00    -0.296 NA
ATOM     13  C   UNL     1      -0.953   0.540   0.109  1.00  0.00     0.110 C 
ENDROOT
BRANCH   1  14
ATOM     14  C   UNL     1       2.610   0.130   1.351  1.00  0.00     0.120 C 
BRANCH  14  15
ATOM     15  C   UNL     1       3.299  -1.197   1.143  1.00  0.00    -0.034 A 
ATOM     16  C   UNL     1       4.566  -3.669   0.737  1.00  0.00     0.000 A 
ATOM     17  C   UNL     1       3.370  -3.607   1.457  1.00  0.00     0.000 A 
ATOM     18  C   UNL     1       5.132  -2.500   0.221  1.00  0.00     0.000 A 
ATOM     19  C   UNL     1       2.737  -2.377   1.660  1.00  0.00     0.005 A 
ATOM     20  C   UNL     1       4.503  -1.267   0.423  1.00  0.00     0.005 A 
ENDBRANCH  14  15
ENDBRANCH   1  14
BRANCH  12  21
ATOM     21  C   UNL     1      -2.964  -0.915  -0.406  1.00  0.00     0.061 C 
ATOM     22  C   UNL     1      -3.983  -0.332   0.604  1.00  0.00     0.047 C 
ATOM     23  C   UNL     1      -2.378  -2.220   0.177  1.00  0.00     0.047 C 
ATOM     24  C   UNL     1      -4.539  -1.419   1.546  1.00  0.00     0.161 C 
ATOM     25  C   UNL     1      -3.577  -3.201   0.346  1.00  0.00     0.161 C 
ATOM     26  O   UNL     1      -4.786  -2.621   0.849  1.00  0.00    -0.381 OA
ENDBRANCH  12  21
TORSDOF 3
