REMARK SMILES CCCCC/C=C\C/C=C\C/C=C\CCCCC(=O)OC[C@H](COC(=O)CC[C]CC[C]CCCCCCC)OC(=O)CCC/C=C\C/C=C\C/C=C\CCCCCCCC
REMARK SMILES IDX 22 1 21 2 20 3 18 4 19 5 17 6 16 7 15 8 14 9 13 10 12 11
REMARK SMILES IDX 11 12 10 13 9 14 8 15 7 16 6 17 5 18 4 19 3 20 2 21 1 22
REMARK SMILES IDX 23 23 24 24 25 25 26 26 27 27 28 28 29 29 30 30 31 31 32 32
REMARK SMILES IDX 33 33 34 34 35 35 36 36 37 37 38 38 39 39 40 40 41 41 42 42
REMARK SMILES IDX 43 43 44 44 45 45 46 46 47 47 48 48 49 49 50 50 51 51 52 52
REMARK SMILES IDX 53 53 54 54 55 55 56 56 57 57 58 58 59 59 60 60 61 61
REMARK H PARENT
ROOT
ATOM      1  C   UNL     1      12.858 -10.400   0.267  1.00  0.00     0.251 C 
ENDROOT
BRANCH   1   2
ATOM      2  C   UNL     1      12.760  -8.829   0.353  1.00  0.00     0.281 C 
BRANCH   2   3
ATOM      3  O   UNL     1      11.494  -8.205   0.262  1.00  0.00    -0.462 OA
BRANCH   3   4
ATOM      4  C   UNL     1      10.262  -8.683  -0.105  1.00  0.00     0.305 C 
ATOM      5  O   UNL     1      10.121  -9.862  -0.385  1.00  0.00    -0.252 OA
BRANCH   4   6
ATOM      6  C   UNL     1       9.031  -7.783  -0.283  1.00  0.00     0.123 C 
BRANCH   6   7
ATOM      7  C   UNL     1       9.151  -6.289   0.116  1.00  0.00     0.012 C 
BRANCH   7   8
ATOM      8  C   UNL     1       7.884  -5.461  -0.301  1.00  0.00     0.005 C 
BRANCH   8   9
ATOM      9  C   UNL     1       7.985  -3.993   0.173  1.00  0.00     0.027 C 
BRANCH   9  10
ATOM     10  C   UNL     1       7.068  -2.951  -0.483  1.00  0.00    -0.031 C 
ATOM     11  C   UNL     1       5.729  -2.722  -0.403  1.00  0.00    -0.027 C 
BRANCH  11  12
ATOM     12  C   UNL     1       4.647  -3.471   0.344  1.00  0.00     0.054 C 
BRANCH  12  13
ATOM     13  C   UNL     1       3.544  -3.815  -0.649  1.00  0.00    -0.027 C 
ATOM     14  C   UNL     1       2.226  -3.459  -0.636  1.00  0.00    -0.027 C 
BRANCH  14  15
ATOM     15  C   UNL     1       1.440  -2.676   0.406  1.00  0.00     0.054 C 
BRANCH  15  16
ATOM     16  C   UNL     1       0.895  -1.363  -0.145  1.00  0.00    -0.027 C 
ATOM     17  C   UNL     1      -0.381  -0.911  -0.373  1.00  0.00    -0.031 C 
BRANCH  17  18
ATOM     18  C   UNL     1      -1.789  -1.526  -0.273  1.00  0.00     0.027 C 
BRANCH  18  19
ATOM     19  C   UNL     1      -1.870  -3.017  -0.004  1.00  0.00     0.004 C 
BRANCH  19  20
ATOM     20  C   UNL     1      -3.290  -3.695  -0.127  1.00  0.00     0.000 C 
BRANCH  20  21
ATOM     21  C   UNL     1      -3.000  -5.196   0.000  1.00  0.00    -0.003 C 
ATOM     22  C   UNL     1      -3.750  -6.495   0.000  1.00  0.00     0.004 C 
ENDBRANCH  20  21
ENDBRANCH  19  20
ENDBRANCH  18  19
ENDBRANCH  17  18
ENDBRANCH  15  16
ENDBRANCH  14  15
ENDBRANCH  12  13
ENDBRANCH  11  12
ENDBRANCH   9  10
ENDBRANCH   8   9
ENDBRANCH   7   8
ENDBRANCH   6   7
ENDBRANCH   4   6
ENDBRANCH   3   4
ENDBRANCH   2   3
ENDBRANCH   1   2
BRANCH   1  23
ATOM     23  C   UNL     1      12.178 -11.085   1.501  1.00  0.00     0.281 C 
BRANCH  23  24
ATOM     24  O   UNL     1      11.265 -12.089   1.204  1.00  0.00    -0.462 OA
BRANCH  24  25
ATOM     25  C   UNL     1      11.452 -13.288   0.584  1.00  0.00     0.305 C 
ATOM     26  O   UNL     1      12.514 -13.555   0.045  1.00  0.00    -0.252 OA
BRANCH  25  27
ATOM     27  C   UNL     1      10.298 -14.279   0.568  1.00  0.00     0.123 C 
BRANCH  27  28
ATOM     28  C   UNL     1       9.054 -13.593  -0.000  1.00  0.00     0.020 C 
BRANCH  28  29
ATOM     29  C   UNL     1       7.755 -14.343   0.000  1.00  0.00    -0.017 C 
BRANCH  29  30
ATOM     30  C   UNL     1       6.456 -15.093  -0.000  1.00  0.00     0.009 C 
BRANCH  30  31
ATOM     31  C   UNL     1       5.157 -15.843  -0.000  1.00  0.00     0.009 C 
BRANCH  31  32
ATOM     32  C   UNL     1       3.858 -16.593   0.000  1.00  0.00    -0.017 C 
BRANCH  32  33
ATOM     33  C   UNL     1       2.559 -17.343  -0.000  1.00  0.00     0.008 C 
BRANCH  33  34
ATOM     34  C   UNL     1       1.027 -17.893   0.422  1.00  0.00     0.001 C 
BRANCH  34  35
ATOM     35  C   UNL     1       0.214 -19.122  -0.434  1.00  0.00     0.000 C 
BRANCH  35  36
ATOM     36  C   UNL     1      -1.339 -19.593   0.000  1.00  0.00    -0.000 C 
BRANCH  36  37
ATOM     37  C   UNL     1      -2.638 -20.343   0.000  1.00  0.00    -0.000 C 
BRANCH  37  38
ATOM     38  C   UNL     1      -3.937 -21.093   0.000  1.00  0.00    -0.003 C 
ATOM     39  C   UNL     1      -5.236 -21.843   0.000  1.00  0.00     0.004 C 
ENDBRANCH  37  38
ENDBRANCH  36  37
ENDBRANCH  35  36
ENDBRANCH  34  35
ENDBRANCH  33  34
ENDBRANCH  32  33
ENDBRANCH  31  32
ENDBRANCH  30  31
ENDBRANCH  29  30
ENDBRANCH  28  29
ENDBRANCH  27  28
ENDBRANCH  25  27
ENDBRANCH  24  25
ENDBRANCH  23  24
ENDBRANCH   1  23
BRANCH   1  40
ATOM     40  O   UNL     1      14.208 -10.803   0.113  1.00  0.00    -0.455 OA
BRANCH  40  41
ATOM     41  C   UNL     1      15.237 -10.606   1.008  1.00  0.00     0.306 C 
ATOM     42  O   UNL     1      14.985 -10.199   2.133  1.00  0.00    -0.252 OA
BRANCH  41  43
ATOM     43  C   UNL     1      16.726 -10.764   0.643  1.00  0.00     0.123 C 
BRANCH  43  44
ATOM     44  C   UNL     1      17.233 -12.180   0.263  1.00  0.00     0.016 C 
BRANCH  44  45
ATOM     45  C   UNL     1      18.804 -12.253   0.199  1.00  0.00     0.027 C 
BRANCH  45  46
ATOM     46  C   UNL     1      19.308 -13.625  -0.235  1.00  0.00    -0.031 C 
ATOM     47  C   UNL     1      20.599 -14.070  -0.282  1.00  0.00    -0.027 C 
BRANCH  47  48
ATOM     48  C   UNL     1      21.882 -13.352   0.125  1.00  0.00     0.054 C 
BRANCH  48  49
ATOM     49  C   UNL     1      22.861 -13.249  -1.038  1.00  0.00    -0.027 C 
ATOM     50  C   UNL     1      24.090 -13.830  -1.163  1.00  0.00    -0.027 C 
BRANCH  50  51
ATOM     51  C   UNL     1      24.774 -14.762  -0.171  1.00  0.00     0.054 C 
BRANCH  51  52
ATOM     52  C   UNL     1      26.023 -15.429  -0.772  1.00  0.00    -0.027 C 
ATOM     53  C   UNL     1      27.255 -14.882  -0.967  1.00  0.00    -0.031 C 
BRANCH  53  54
ATOM     54  C   UNL     1      27.628 -13.506  -0.502  1.00  0.00     0.027 C 
BRANCH  54  55
ATOM     55  C   UNL     1      29.066 -12.957  -0.869  1.00  0.00     0.004 C 
BRANCH  55  56
ATOM     56  C   UNL     1      29.250 -11.691   0.000  1.00  0.00     0.000 C 
BRANCH  56  57
ATOM     57  C   UNL     1      30.000 -10.392   0.000  1.00  0.00     0.000 C 
BRANCH  57  58
ATOM     58  C   UNL     1      30.750  -9.093   0.000  1.00  0.00    -0.000 C 
BRANCH  58  59
ATOM     59  C   UNL     1      31.500  -7.794   0.000  1.00  0.00    -0.000 C 
BRANCH  59  60
ATOM     60  C   UNL     1      32.250  -6.495   0.000  1.00  0.00    -0.003 C 
ATOM     61  C   UNL     1      33.000  -5.196   0.000  1.00  0.00     0.004 C 
ENDBRANCH  59  60
ENDBRANCH  58  59
ENDBRANCH  57  58
ENDBRANCH  56  57
ENDBRANCH  55  56
ENDBRANCH  54  55
ENDBRANCH  53  54
ENDBRANCH  51  52
ENDBRANCH  50  51
ENDBRANCH  48  49
ENDBRANCH  47  48
ENDBRANCH  45  46
ENDBRANCH  44  45
ENDBRANCH  43  44
ENDBRANCH  41  43
ENDBRANCH  40  41
ENDBRANCH   1  40
TORSDOF 48
