REMARK SMILES CC1(C)CCC[C@]2(C)[C@H]3CC[C@]4(C)O[C@@H](C5=CC(=O)O[C@@H]5O)C[C@H]4[C@]3(C)CC[C@@H]12
REMARK SMILES IDX 16 1 17 2 18 3 19 4 20 5 21 6 15 7 2 8 4 9 29 10 5 11 28 12
REMARK SMILES IDX 7 13 6 14 27 15 9 16 25 17 10 18 24 19 11 20 23 21 12 22
REMARK SMILES IDX 14 23 1 24 3 25 8 26 26 27 13 28 22 29
REMARK H PARENT 22 30
ROOT
ATOM      1  C   UNL     1       5.285  -0.573   0.071  1.00  0.00     0.033 C 
ATOM      2  C   UNL     1       6.139   0.299  -0.447  1.00  0.00     0.102 C 
ATOM      3  C   UNL     1       7.368   0.130   0.291  1.00  0.00     0.333 C 
ATOM      4  O   UNL     1       8.394   0.761   0.101  1.00  0.00    -0.247 OA
ATOM      5  O   UNL     1       7.245  -0.823   1.231  1.00  0.00    -0.429 OA
ATOM      6  C   UNL     1       5.962  -1.343   1.183  1.00  0.00     0.339 C 
ENDROOT
BRANCH   1   7
ATOM      7  C   UNL     1       3.859  -0.772  -0.374  1.00  0.00     0.152 C 
ATOM      8  C   UNL     1      -4.193  -0.987   0.827  1.00  0.00    -0.032 C 
ATOM      9  C   UNL     1      -5.074  -0.007   0.018  1.00  0.00     0.007 C 
ATOM     10  C   UNL     1      -2.633  -0.710   0.590  1.00  0.00     0.001 C 
ATOM     11  C   UNL     1      -4.624   0.249  -1.432  1.00  0.00     0.001 C 
ATOM     12  C   UNL     1      -1.723  -0.845   1.839  1.00  0.00     0.005 C 
ATOM     13  C   UNL     1      -2.240   0.516  -0.347  1.00  0.00    -0.026 C 
ATOM     14  C   UNL     1      -3.090   0.307  -1.643  1.00  0.00     0.007 C 
ATOM     15  C   UNL     1      -0.239  -0.993   1.433  1.00  0.00     0.008 C 
ATOM     16  C   UNL     1      -0.693   0.340  -0.686  1.00  0.00     0.002 C 
ATOM     17  C   UNL     1       0.281   0.187   0.566  1.00  0.00    -0.024 C 
ATOM     18  C   UNL     1      -0.103   1.324  -1.754  1.00  0.00     0.008 C 
ATOM     19  C   UNL     1       1.665  -0.216  -0.052  1.00  0.00     0.030 C 
ATOM     20  C   UNL     1       1.292   0.844  -2.255  1.00  0.00     0.036 C 
ATOM     21  C   UNL     1       2.868  -0.537   0.779  1.00  0.00     0.044 C 
ATOM     22  C   UNL     1       2.298   0.734  -1.091  1.00  0.00     0.070 C 
ATOM     23  O   UNL     1       3.500   0.082  -1.464  1.00  0.00    -0.367 OA
ATOM     24  C   UNL     1      -4.537  -2.432   0.384  1.00  0.00     0.011 C 
ATOM     25  C   UNL     1      -4.612  -0.845   2.313  1.00  0.00     0.011 C 
ATOM     26  C   UNL     1      -2.515   1.949   0.204  1.00  0.00     0.012 C 
ATOM     27  C   UNL     1       0.422   1.425   1.498  1.00  0.00     0.012 C 
ATOM     28  C   UNL     1       2.733   2.164  -0.658  1.00  0.00     0.042 C 
ENDBRANCH   1   7
BRANCH   6  29
ATOM     29  O   UNL     1       5.991  -2.720   0.910  1.00  0.00    -0.355 OA
ATOM     30  H   UNL     1       6.558  -2.850   0.105  1.00  0.00     0.215 HD
ENDBRANCH   6  29
TORSDOF 2
