REMARK SMILES CC[C@H]1[C@H]2C[C@@H]3[C@@H]4N(C)c5ccccc5[C@]45C[C@@H]([C@H]2[C@@H]5O)N3[C@@H]1O
REMARK SMILES IDX 3 1 4 2 5 3 6 4 7 5 8 6 9 7 10 8 11 9 12 10 13 11 14 12
REMARK SMILES IDX 15 13 16 14 17 15 18 16 19 17 20 18 22 19 23 20 2 21 1 22
REMARK SMILES IDX 24 23 21 25
REMARK H PARENT 24 24 21 26
ROOT
ATOM      1  C   UNL     1      -0.340   5.518  -0.096  1.00  0.00     0.036 C 
ATOM      2  C   UNL     1      -0.577   4.808  -1.422  1.00  0.00     0.005 C 
ATOM      3  C   UNL     1       1.032   4.087  -1.848  1.00  0.00     0.026 C 
ATOM      4  C   UNL     1       1.357   2.679  -0.823  1.00  0.00     0.083 C 
ATOM      5  C   UNL     1       0.760   1.363   0.179  1.00  0.00     0.112 C 
ATOM      6  N   UNL     1       1.276   0.000   0.000  1.00  0.00    -0.369 N 
ATOM      7  C   UNL     1       2.776   0.000   0.000  1.00  0.00     0.144 C 
ATOM      8  C   UNL     1       0.324  -0.856   0.629  1.00  0.00     0.041 A 
ATOM      9  C   UNL     1       0.557  -2.147   1.101  1.00  0.00     0.026 A 
ATOM     10  C   UNL     1      -0.496  -2.829   1.733  1.00  0.00     0.002 A 
ATOM     11  C   UNL     1      -1.758  -2.220   1.889  1.00  0.00     0.000 A 
ATOM     12  C   UNL     1      -1.992  -0.919   1.412  1.00  0.00     0.006 A 
ATOM     13  C   UNL     1      -0.947  -0.249   0.782  1.00  0.00    -0.014 A 
ATOM     14  C   UNL     1      -0.928   1.138   0.195  1.00  0.00     0.047 C 
ATOM     15  C   UNL     1      -1.185   1.159  -1.212  1.00  0.00     0.036 C 
ATOM     16  C   UNL     1      -0.866   2.664  -1.253  1.00  0.00     0.066 C 
ATOM     17  C   UNL     1      -1.764   3.573  -0.885  1.00  0.00     0.040 C 
ATOM     18  C   UNL     1      -1.992   2.445   0.401  1.00  0.00     0.132 C 
ATOM     19  N   UNL     1       0.298   3.104  -0.177  1.00  0.00    -0.270 NA
ATOM     20  C   UNL     1       0.490   4.445   0.611  1.00  0.00     0.189 C 
ENDROOT
BRANCH   1  21
ATOM     21  C   UNL     1      -0.029   7.079   0.000  1.00  0.00     0.004 C 
ATOM     22  C   UNL     1       1.153   8.002   0.000  1.00  0.00     0.004 C 
ENDBRANCH   1  21
BRANCH  20  23
ATOM     23  O   UNL     1       0.172   4.345   1.970  1.00  0.00    -0.378 OA
ATOM     24  H   UNL     1       0.858   3.753   2.374  1.00  0.00     0.212 HD
ENDBRANCH  20  23
BRANCH  18  25
ATOM     25  O   UNL     1      -1.906   2.996   1.681  1.00  0.00    -0.392 OA
ATOM     26  H   UNL     1      -2.605   3.699   1.727  1.00  0.00     0.211 HD
ENDBRANCH  18  25
TORSDOF 3
