REMARK SMILES C[C@@H]1CC[C@H]2[C@@H]1[C@@H]1[C@@H](CC[C@@]2(C)O[C@H]2O[C@H](C)[C@@H](O)[C@H](O)[C@@H]2O)[C@]1(C)CO[C@@H]1O[C@@H](CO)[C@@H](O)[C@@H](O)[C@@H]1O
REMARK SMILES IDX 7 1 8 2 24 3 25 4 6 6 2 7 3 8 4 9 5 10 1 11 11 12 12 13
REMARK SMILES IDX 10 14 9 15 13 17 14 18 15 19 22 20 16 21 20 22 18 23 17 24
REMARK SMILES IDX 23 25 21 27 19 29 26 31 27 32 28 33 29 34 37 35 30 36 35 37
REMARK SMILES IDX 33 38 38 39 31 41 32 42 36 44 34 46
REMARK H PARENT 23 26 21 28 19 30 38 40 32 43 36 45 34 47
REMARK Flexibility Score:   83.900
ROOT
ATOM      1  C   UNL     1       0.189  -1.559  -1.027  1.00  0.00     0.005 C 
ATOM      2  C   UNL     1       0.278  -0.030  -0.534  1.00  0.00     0.002 CG0
ATOM      3  C   UNL     1       1.462  -0.934  -0.440  1.00  0.00    -0.002 C 
ATOM      4  C   UNL     1       1.918  -1.450   0.946  1.00  0.00     0.014 C 
ATOM      5  G   UNL     1      -0.588   0.326   0.708  1.00  0.00     0.000 G0
ENDROOT
BRANCH   1   6
ATOM      6  C   UNL     1      -1.048  -1.666  -1.992  1.00  0.00     0.002 C 
ATOM      7  C   UNL     1      -0.957  -1.174  -3.455  1.00  0.00    -0.010 C 
ATOM      8  C   UNL     1      -1.130   0.331  -3.348  1.00  0.00     0.004 C 
ATOM      9  C   UNL     1      -2.149   0.522  -2.198  1.00  0.00     0.007 C 
ATOM     10  C   UNL     1      -2.294  -0.880  -1.529  1.00  0.00     0.025 C 
ATOM     11  C   UNL     1       0.241  -1.656  -4.272  1.00  0.00     0.008 C 
BRANCH  10  12
ATOM     12  C   UNL     1      -2.792  -0.953  -0.029  1.00  0.00     0.072 C 
ATOM     13  C   UNL     1      -3.340  -2.395   0.183  1.00  0.00     0.043 C 
BRANCH  12  14
ATOM     14  C   UNL     1      -1.665  -0.706   1.058  1.00  0.00     0.036 C 
BRANCH  14  15
ATOM     15  C   UNL     1      -0.588   0.326   0.708  1.00  0.00     0.007 CG0
ATOM     16  G   UNL     1       0.278  -0.030  -0.534  1.00  0.00     0.000 G0
ENDBRANCH  14  15
ENDBRANCH  12  14
BRANCH  12  17
ATOM     17  O   UNL     1      -3.849   0.013   0.052  1.00  0.00    -0.343 OA
BRANCH  17  18
ATOM     18  C   UNL     1      -4.488   0.132   1.318  1.00  0.00     0.282 C 
ATOM     19  O   UNL     1      -4.016   1.331   1.940  1.00  0.00    -0.344 OA
ATOM     20  C   UNL     1      -6.013   0.178   1.101  1.00  0.00     0.202 C 
ATOM     21  C   UNL     1      -4.883   1.910   2.923  1.00  0.00     0.150 C 
ATOM     22  C   UNL     1      -6.758   0.252   2.460  1.00  0.00     0.179 C 
ATOM     23  C   UNL     1      -5.856   0.881   3.548  1.00  0.00     0.174 C 
ATOM     24  C   UNL     1      -3.998   2.531   4.007  1.00  0.00     0.041 C 
BRANCH  20  25
ATOM     25  O   UNL     1      -6.501  -0.864   0.292  1.00  0.00    -0.385 OA
ATOM     26  H   UNL     1      -6.155  -1.716   0.658  1.00  0.00     0.211 HD
ENDBRANCH  20  25
BRANCH  22  27
ATOM     27  O   UNL     1      -7.220  -1.003   2.900  1.00  0.00    -0.387 OA
ATOM     28  H   UNL     1      -6.431  -1.600   2.996  1.00  0.00     0.211 HD
ENDBRANCH  22  27
BRANCH  23  29
ATOM     29  O   UNL     1      -6.630   1.407   4.595  1.00  0.00    -0.388 OA
ATOM     30  H   UNL     1      -7.124   2.188   4.232  1.00  0.00     0.211 HD
ENDBRANCH  23  29
ENDBRANCH  17  18
ENDBRANCH  12  17
ENDBRANCH  10  12
ENDBRANCH   1   6
BRANCH   3  31
ATOM     31  C   UNL     1       2.592  -0.764  -1.466  1.00  0.00     0.171 C 
BRANCH  31  32
ATOM     32  O   UNL     1       3.617  -0.013  -0.861  1.00  0.00    -0.349 OA
BRANCH  32  33
ATOM     33  C   UNL     1       4.782   0.033  -1.666  1.00  0.00     0.281 C 
ATOM     34  O   UNL     1       5.775  -0.866  -1.149  1.00  0.00    -0.341 OA
ATOM     35  C   UNL     1       5.282   1.486  -1.733  1.00  0.00     0.202 C 
ATOM     36  C   UNL     1       6.643  -0.349  -0.124  1.00  0.00     0.178 C 
ATOM     37  C   UNL     1       5.603   2.024  -0.318  1.00  0.00     0.179 C 
ATOM     38  C   UNL     1       6.022   0.862   0.626  1.00  0.00     0.177 C 
BRANCH  35  39
ATOM     39  O   UNL     1       4.388   2.334  -2.409  1.00  0.00    -0.385 OA
ATOM     40  H   UNL     1       3.509   2.271  -1.952  1.00  0.00     0.211 HD
ENDBRANCH  35  39
BRANCH  36  41
ATOM     41  C   UNL     1       8.057  -0.129  -0.699  1.00  0.00     0.191 C 
BRANCH  41  42
ATOM     42  O   UNL     1       8.972   0.170   0.323  1.00  0.00    -0.394 OA
ATOM     43  H   UNL     1       9.350   1.068   0.132  1.00  0.00     0.210 HD
ENDBRANCH  41  42
ENDBRANCH  36  41
BRANCH  37  44
ATOM     44  O   UNL     1       6.539   3.068  -0.396  1.00  0.00    -0.387 OA
ATOM     45  H   UNL     1       7.388   2.693  -0.742  1.00  0.00     0.211 HD
ENDBRANCH  37  44
BRANCH  38  46
ATOM     46  O   UNL     1       6.739   1.280   1.761  1.00  0.00    -0.387 OA
ATOM     47  H   UNL     1       7.514   1.815   1.462  1.00  0.00     0.211 HD
ENDBRANCH  38  46
ENDBRANCH  32  33
ENDBRANCH  31  32
ENDBRANCH   3  31
TORSDOF 13
