REMARK SMILES CC1(C)[C@@H](O)CC[C@@]2(C)[C@H]1CC(=O)[C@]1(C)[C@H]2C(=O)C=C2[C@@H]3C[C@@](C)(C(=O)O)CC[C@]3(C)CC[C@]21C
REMARK SMILES IDX 1 1 2 2 3 3 4 4 6 5 7 6 8 7 9 8 16 9 17 10 18 11 19 12 20 13
REMARK SMILES IDX 21 14 22 15 23 16 24 17 28 18 29 19 30 20 31 21 32 22 33 23
REMARK SMILES IDX 34 24 35 25 14 26 15 27 12 28 13 29 11 30 10 31 5 32 25 34
REMARK SMILES IDX 26 35 27 36
REMARK H PARENT 5 33 27 37
ROOT
ATOM      1  C   UNL     1       5.518   1.425  -1.731  1.00  0.00     0.014 C 
ATOM      2  C   UNL     1       5.133   0.297  -0.735  1.00  0.00    -0.006 C 
ATOM      3  C   UNL     1       5.963   0.559   0.550  1.00  0.00     0.014 C 
ATOM      4  C   UNL     1       5.506  -1.069  -1.416  1.00  0.00     0.120 C 
ATOM      5  C   UNL     1       5.002  -2.312  -0.649  1.00  0.00     0.033 C 
ATOM      6  C   UNL     1       3.463  -2.261  -0.477  1.00  0.00     0.010 C 
ATOM      7  C   UNL     1       2.968  -0.963   0.263  1.00  0.00    -0.018 C 
ATOM      8  C   UNL     1       3.451  -1.161   1.738  1.00  0.00     0.012 C 
ATOM      9  C   UNL     1       1.355  -0.828   0.254  1.00  0.00     0.081 C 
ATOM     10  C   UNL     1       0.746  -0.875  -1.172  1.00  0.00     0.160 C 
ATOM     11  O   UNL     1       1.401  -1.096  -2.175  1.00  0.00    -0.294 OA
ATOM     12  C   UNL     1      -0.684  -0.684  -1.370  1.00  0.00     0.047 C 
ATOM     13  C   UNL     1      -1.472  -0.116  -0.447  1.00  0.00    -0.056 C 
ATOM     14  C   UNL     1      -3.003  -0.235  -0.655  1.00  0.00     0.023 C 
ATOM     15  C   UNL     1      -3.716   1.095  -1.067  1.00  0.00     0.027 C 
ATOM     16  C   UNL     1      -5.269   0.977  -1.082  1.00  0.00     0.066 C 
ATOM     17  C   UNL     1      -5.859   2.375  -1.379  1.00  0.00     0.024 C 
ATOM     18  C   UNL     1      -5.784   0.481   0.326  1.00  0.00     0.019 C 
ATOM     19  C   UNL     1      -4.685  -0.052   1.282  1.00  0.00     0.008 C 
ATOM     20  C   UNL     1      -3.677  -0.986   0.569  1.00  0.00    -0.026 C 
ATOM     21  C   UNL     1      -4.453  -2.245   0.086  1.00  0.00     0.012 C 
ATOM     22  C   UNL     1      -2.574  -1.518   1.540  1.00  0.00     0.008 C 
ATOM     23  C   UNL     1      -1.506  -0.489   2.009  1.00  0.00     0.013 C 
ATOM     24  C   UNL     1      -0.883   0.436   0.875  1.00  0.00     0.002 C 
ATOM     25  C   UNL     1      -1.416   1.892   1.112  1.00  0.00     0.017 C 
ATOM     26  C   UNL     1       0.762   0.482   0.926  1.00  0.00     0.046 C 
ATOM     27  C   UNL     1       1.156   0.706   2.434  1.00  0.00     0.021 C 
ATOM     28  C   UNL     1       1.462   1.594   0.119  1.00  0.00     0.140 C 
ATOM     29  O   UNL     1       0.839   2.392  -0.560  1.00  0.00    -0.299 OA
ATOM     30  C   UNL     1       2.989   1.637   0.077  1.00  0.00     0.081 C 
ATOM     31  C   UNL     1       3.564   0.306  -0.494  1.00  0.00     0.011 C 
ENDROOT
BRANCH   4  32
ATOM     32  O   UNL     1       6.888  -1.166  -1.673  1.00  0.00    -0.393 OA
ATOM     33  H   UNL     1       7.346  -1.390  -0.822  1.00  0.00     0.210 HD
ENDBRANCH   4  32
BRANCH  16  34
ATOM     34  C   UNL     1      -5.761   0.048  -2.202  1.00  0.00     0.309 C 
ATOM     35  O   UNL     1      -4.978  -0.471  -2.981  1.00  0.00    -0.252 OA
BRANCH  34  36
ATOM     36  O   UNL     1      -7.082  -0.184  -2.377  1.00  0.00    -0.481 OA
ATOM     37  H   UNL     1      -7.759   0.203  -1.806  1.00  0.00     0.296 HD
ENDBRANCH  34  36
ENDBRANCH  16  34
TORSDOF 3
