REMARK SMILES CC1(C)C[C@@H]2C3=CC[C@@H]4[C@@]5(C)CC[C@H](O[C@@H]6O[C@@H](CO)[C@H](O)[C@@H](O)[C@H]6O[C@@H]6O[C@@H](CO)[C@H](O)[C@@H](O)[C@@H]6O)[C@](C)(CO)[C@@H]5CC[C@@]4(C)[C@]3(C)C[C@@H](OC(=O)c3ccccc3)[C@@]2(CO)C[C@@H]1O
REMARK SMILES IDX 16 1 17 2 18 3 21 4 23 5 25 6 15 7 14 8 2 9 4 10 64 11 5 12
REMARK SMILES IDX 63 13 6 14 60 15 7 16 47 17 50 18 8 19 45 20 49 21 9 22
REMARK SMILES IDX 44 23 10 24 43 25 12 26 42 27 13 28 38 29 1 30 3 31 48 32
REMARK SMILES IDX 46 33 11 34 39 35 65 36 61 38 62 39 51 41 52 42 53 43 54 44
REMARK SMILES IDX 55 45 59 46 56 47 58 48 57 49 40 50 41 51 26 53 27 54 28 55
REMARK SMILES IDX 36 56 29 57 34 58 32 59 37 60 30 62 31 63 35 65 33 67 19 69
REMARK SMILES IDX 20 70 24 72 22 74
REMARK H PARENT 65 37 62 40 41 52 37 61 31 64 35 66 33 68 20 71 24 73 22 75
ROOT
ATOM      1  C   UNL     1       5.262   0.413   1.895  1.00  0.00     0.282 C 
ATOM      2  O   UNL     1       4.848   1.217   3.013  1.00  0.00    -0.341 OA
ATOM      3  C   UNL     1       5.814   1.443   4.044  1.00  0.00     0.178 C 
ATOM      4  C   UNL     1       6.693   0.195   4.250  1.00  0.00     0.177 C 
ATOM      5  C   UNL     1       7.491  -0.113   2.963  1.00  0.00     0.180 C 
ATOM      6  C   UNL     1       6.793   0.459   1.703  1.00  0.00     0.209 C 
ENDROOT
BRANCH   1   7
ATOM      7  O   UNL     1       4.642   0.910   0.714  1.00  0.00    -0.346 OA
BRANCH   7   8
ATOM      8  C   UNL     1       3.241   0.632   0.678  1.00  0.00     0.130 C 
ATOM      9  C   UNL     1      -6.858  -2.247   2.653  1.00  0.00    -0.009 C 
ATOM     10  C   UNL     1      -5.544  -1.363   2.586  1.00  0.00     0.018 C 
ATOM     11  C   UNL     1      -7.392  -2.609   1.208  1.00  0.00     0.120 C 
ATOM     12  C   UNL     1      -5.106  -1.120   1.131  1.00  0.00     0.028 C 
ATOM     13  C   UNL     1      -7.434  -1.423   0.181  1.00  0.00     0.046 C 
ATOM     14  C   UNL     1      -3.758  -0.525   0.820  1.00  0.00    -0.064 C 
ATOM     15  C   UNL     1      -6.190  -0.447   0.236  1.00  0.00     0.040 C 
ATOM     16  C   UNL     1      -3.294   0.509   1.537  1.00  0.00    -0.027 C 
ATOM     17  C   UNL     1      -3.143  -1.018  -0.524  1.00  0.00    -0.002 C 
ATOM     18  C   UNL     1      -5.519  -0.110  -1.176  1.00  0.00     0.187 C 
ATOM     19  C   UNL     1      -2.031   1.234   1.223  1.00  0.00     0.032 C 
ATOM     20  C   UNL     1      -1.909  -0.049  -1.021  1.00  0.00    -0.020 C 
ATOM     21  C   UNL     1      -4.383  -1.131  -1.557  1.00  0.00     0.057 C 
ATOM     22  C   UNL     1      -1.114   0.449   0.256  1.00  0.00     0.006 C 
ATOM     23  C   UNL     1      -0.886  -0.841  -1.927  1.00  0.00     0.008 C 
ATOM     24  C   UNL     1       0.304   1.157   0.024  1.00  0.00    -0.025 C 
ATOM     25  C   UNL     1       0.498  -0.185  -2.146  1.00  0.00     0.005 C 
ATOM     26  C   UNL     1       0.965   1.403   1.411  1.00  0.00     0.010 C 
ATOM     27  C   UNL     1       1.181   0.108  -0.769  1.00  0.00     0.006 C 
ATOM     28  C   UNL     1       2.449   1.780   1.327  1.00  0.00     0.033 C 
ATOM     29  C   UNL     1       2.755   0.355  -0.798  1.00  0.00     0.020 C 
ATOM     30  C   UNL     1      -6.512  -3.573   3.377  1.00  0.00     0.014 C 
ATOM     31  C   UNL     1      -7.935  -1.532   3.498  1.00  0.00     0.014 C 
ATOM     32  C   UNL     1      -2.626  -2.480  -0.289  1.00  0.00     0.017 C 
ATOM     33  C   UNL     1      -2.460   1.151  -1.850  1.00  0.00     0.012 C 
ATOM     34  C   UNL     1       0.191   2.564  -0.657  1.00  0.00     0.012 C 
ATOM     35  C   UNL     1       3.462  -0.953  -1.258  1.00  0.00     0.017 C 
BRANCH  11  36
ATOM     36  O   UNL     1      -8.611  -3.311   1.241  1.00  0.00    -0.393 OA
ATOM     37  H   UNL     1      -9.332  -2.654   1.419  1.00  0.00     0.210 HD
ENDBRANCH  11  36
BRANCH  15  38
ATOM     38  C   UNL     1      -6.652   0.917   0.854  1.00  0.00     0.167 C 
BRANCH  38  39
ATOM     39  O   UNL     1      -7.626   1.524   0.048  1.00  0.00    -0.396 OA
ATOM     40  H   UNL     1      -7.921   2.340   0.530  1.00  0.00     0.210 HD
ENDBRANCH  38  39
ENDBRANCH  15  38
BRANCH  18  41
ATOM     41  O   UNL     1      -6.476   0.098  -2.166  1.00  0.00    -0.458 OA
BRANCH  41  42
ATOM     42  C   UNL     1      -6.675   1.317  -2.770  1.00  0.00     0.338 C 
ATOM     43  O   UNL     1      -5.868   2.223  -2.605  1.00  0.00    -0.246 OA
BRANCH  42  44
ATOM     44  C   UNL     1      -7.901   1.595  -3.559  1.00  0.00     0.060 A 
ATOM     45  C   UNL     1      -8.142   2.898  -4.046  1.00  0.00     0.015 A 
ATOM     46  C   UNL     1      -8.845   0.588  -3.817  1.00  0.00     0.015 A 
ATOM     47  C   UNL     1      -9.299   3.182  -4.773  1.00  0.00     0.001 A 
ATOM     48  C   UNL     1     -10.001   0.880  -4.551  1.00  0.00     0.001 A 
ATOM     49  C   UNL     1     -10.229   2.172  -5.028  1.00  0.00     0.000 A 
ENDBRANCH  42  44
ENDBRANCH  41  42
ENDBRANCH  18  41
BRANCH  29  50
ATOM     50  C   UNL     1       3.171   1.477  -1.799  1.00  0.00     0.165 C 
BRANCH  50  51
ATOM     51  O   UNL     1       4.567   1.609  -1.882  1.00  0.00    -0.396 OA
ATOM     52  H   UNL     1       4.826   2.411  -1.357  1.00  0.00     0.210 HD
ENDBRANCH  50  51
ENDBRANCH  29  50
ENDBRANCH   7   8
ENDBRANCH   1   7
BRANCH   6  53
ATOM     53  O   UNL     1       7.206  -0.245   0.535  1.00  0.00    -0.338 OA
BRANCH  53  54
ATOM     54  C   UNL     1       8.183   0.456  -0.238  1.00  0.00     0.282 C 
ATOM     55  O   UNL     1       7.724   0.621  -1.575  1.00  0.00    -0.341 OA
ATOM     56  C   UNL     1       9.559  -0.247  -0.225  1.00  0.00     0.202 C 
ATOM     57  C   UNL     1       7.543  -0.623  -2.244  1.00  0.00     0.178 C 
ATOM     58  C   UNL     1       9.456  -1.615  -0.928  1.00  0.00     0.179 C 
ATOM     59  C   UNL     1       8.884  -1.402  -2.338  1.00  0.00     0.177 C 
BRANCH  56  60
ATOM     60  O   UNL     1      10.078  -0.347   1.079  1.00  0.00    -0.385 OA
ATOM     61  H   UNL     1       9.767  -1.198   1.479  1.00  0.00     0.211 HD
ENDBRANCH  56  60
BRANCH  57  62
ATOM     62  C   UNL     1       6.978  -0.314  -3.641  1.00  0.00     0.191 C 
BRANCH  62  63
ATOM     63  O   UNL     1       6.674  -1.493  -4.341  1.00  0.00    -0.394 OA
ATOM     64  H   UNL     1       7.358  -1.597  -5.052  1.00  0.00     0.210 HD
ENDBRANCH  62  63
ENDBRANCH  57  62
BRANCH  58  65
ATOM     65  O   UNL     1      10.705  -2.260  -0.975  1.00  0.00    -0.387 OA
ATOM     66  H   UNL     1      11.330  -1.673  -1.477  1.00  0.00     0.211 HD
ENDBRANCH  58  65
BRANCH  59  67
ATOM     67  O   UNL     1       8.734  -2.637  -2.993  1.00  0.00    -0.387 OA
ATOM     68  H   UNL     1       8.065  -3.166  -2.484  1.00  0.00     0.211 HD
ENDBRANCH  59  67
ENDBRANCH  53  54
ENDBRANCH   6  53
BRANCH   3  69
ATOM     69  C   UNL     1       5.058   1.802   5.332  1.00  0.00     0.191 C 
BRANCH  69  70
ATOM     70  O   UNL     1       4.262   2.938   5.131  1.00  0.00    -0.394 OA
ATOM     71  H   UNL     1       4.871   3.721   5.158  1.00  0.00     0.210 HD
ENDBRANCH  69  70
ENDBRANCH   3  69
BRANCH   5  72
ATOM     72  O   UNL     1       7.722  -1.498   2.881  1.00  0.00    -0.387 OA
ATOM     73  H   UNL     1       6.856  -1.940   2.686  1.00  0.00     0.211 HD
ENDBRANCH   5  72
BRANCH   4  74
ATOM     74  O   UNL     1       7.549   0.286   5.361  1.00  0.00    -0.387 OA
ATOM     75  H   UNL     1       8.091   1.111   5.248  1.00  0.00     0.211 HD
ENDBRANCH   4  74
TORSDOF 21
