REMARK SMILES [H]/N=C(/N)NCCC[C@H](NC(=O)[C@H](C)NC(=O)C[C@H](O)[C@@H](CCCN/C(N)=N\[H])NC(=O)[C@H](C)N)[C@H](O)CC(=O)OCC1=C(C(=O)O)N2C(=O)[C@](NC=O)(NC(=O)CCC[C@H](N)C(=O)O)[C@@H]2SC1
REMARK SMILES IDX 36 1 9 2 10 3 11 4 12 5 13 7 14 8 15 9 16 10 17 11 18 13
REMARK SMILES IDX 19 14 21 15 30 16 31 17 32 18 33 20 34 21 35 22 22 25 23 26
REMARK SMILES IDX 24 27 25 28 26 29 28 30 27 31 29 33 20 36 8 38 7 39 6 40
REMARK SMILES IDX 5 41 3 42 2 43 4 44 1 46 37 49 38 51 39 52 40 53 41 54 42 55
REMARK SMILES IDX 43 56 44 57 68 58 48 59 67 60 49 61 66 62 50 63 51 64 45 65
REMARK SMILES IDX 46 66 47 67 52 69 53 70 54 71 55 73 56 74 57 75 58 77 59 78
REMARK SMILES IDX 60 79 61 80 62 81 63 84 64 85 65 86
REMARK H PARENT 10 6 15 12 30 19 35 23 35 24 25 32 27 34 27 35 20 37 5 45 4 47
REMARK H PARENT 4 48 37 50 47 68 52 72 55 76 62 82 62 83 65 87
ROOT
ATOM      1  C   UNL     1       0.059  -0.499  -1.340  1.00  0.00     0.147 C 
ENDROOT
BRANCH   1   2
ATOM      2  C   UNL     1      -0.292  -1.759  -0.480  1.00  0.00     0.111 C 
BRANCH   2   3
ATOM      3  N   UNL     1      -1.618  -1.625   0.117  1.00  0.00    -0.349 N 
ATOM      4  C   UNL     1      -1.845  -1.446   1.452  1.00  0.00     0.242 C 
ATOM      5  O   UNL     1      -0.911  -1.279   2.225  1.00  0.00    -0.273 OA
ATOM      6  H   UNL     1      -2.433  -1.683  -0.509  1.00  0.00     0.163 HD
BRANCH   4   7
ATOM      7  C   UNL     1      -3.262  -1.490   2.006  1.00  0.00     0.168 C 
ATOM      8  C   UNL     1      -3.731  -2.957   1.933  1.00  0.00     0.041 C 
BRANCH   7   9
ATOM      9  N   UNL     1      -4.155  -0.608   1.253  1.00  0.00    -0.345 N 
ATOM     10  C   UNL     1      -5.495  -0.504   1.492  1.00  0.00     0.223 C 
ATOM     11  O   UNL     1      -6.013  -1.110   2.420  1.00  0.00    -0.275 OA
ATOM     12  H   UNL     1      -3.770  -0.071   0.460  1.00  0.00     0.164 HD
BRANCH  10  13
ATOM     13  C   UNL     1      -6.355   0.310   0.549  1.00  0.00     0.133 C 
BRANCH  13  14
ATOM     14  C   UNL     1      -7.877   0.035   0.693  1.00  0.00     0.146 C 
BRANCH  14  15
ATOM     15  C   UNL     1      -8.683   0.824  -0.381  1.00  0.00     0.111 C 
BRANCH  15  16
ATOM     16  N   UNL     1      -8.667   2.248  -0.082  1.00  0.00    -0.349 N 
ATOM     17  C   UNL     1      -8.027   3.175  -0.849  1.00  0.00     0.236 C 
ATOM     18  O   UNL     1      -7.399   2.834  -1.841  1.00  0.00    -0.273 OA
ATOM     19  H   UNL     1      -9.164   2.558   0.766  1.00  0.00     0.163 HD
BRANCH  17  20
ATOM     20  C   UNL     1      -8.077   4.647  -0.487  1.00  0.00     0.138 C 
ATOM     21  C   UNL     1      -7.504   4.905   0.911  1.00  0.00     0.035 C 
BRANCH  20  22
ATOM     22  N   UNL     1      -9.447   5.156  -0.570  1.00  0.00    -0.320 NA
ATOM     23  H   UNL     1     -10.074   4.642   0.091  1.00  0.00     0.119 HD
ATOM     24  H   UNL     1      -9.807   5.020  -1.544  1.00  0.00     0.119 HD
ENDBRANCH  20  22
ENDBRANCH  17  20
ENDBRANCH  15  16
BRANCH  15  25
ATOM     25  C   UNL     1     -10.140   0.337  -0.616  1.00  0.00     0.029 C 
BRANCH  25  26
ATOM     26  C   UNL     1     -11.239   0.643   0.423  1.00  0.00     0.023 C 
BRANCH  26  27
ATOM     27  C   UNL     1     -11.003   0.073   1.824  1.00  0.00     0.116 C 
BRANCH  27  28
ATOM     28  N   UNL     1     -12.209   0.167   2.628  1.00  0.00    -0.357 N 
ATOM     29  C   UNL     1     -12.278  -0.275   3.985  1.00  0.00     0.185 C 
ATOM     30  N   UNL     1     -11.232  -0.678   4.620  1.00  0.00    -0.270 NA
ATOM     31  N   UNL     1     -13.528  -0.273   4.653  1.00  0.00    -0.370 N 
ATOM     32  H   UNL     1     -13.073   0.536   2.200  1.00  0.00     0.163 HD
ATOM     33  H   UNL     1     -10.292  -0.702   4.201  1.00  0.00     0.191 HD
ATOM     34  H   UNL     1     -14.383   0.025   4.162  1.00  0.00     0.159 HD
ATOM     35  H   UNL     1     -13.600  -0.591   5.631  1.00  0.00     0.159 HD
ENDBRANCH  27  28
ENDBRANCH  26  27
ENDBRANCH  25  26
ENDBRANCH  15  25
ENDBRANCH  14  15
BRANCH  14  36
ATOM     36  O   UNL     1      -8.117  -1.348   0.566  1.00  0.00    -0.390 OA
ATOM     37  H   UNL     1      -7.810  -1.630  -0.335  1.00  0.00     0.211 HD
ENDBRANCH  14  36
ENDBRANCH  13  14
ENDBRANCH  10  13
ENDBRANCH   7   9
ENDBRANCH   4   7
ENDBRANCH   2   3
BRANCH   2  38
ATOM     38  C   UNL     1      -0.218  -3.084  -1.276  1.00  0.00     0.029 C 
BRANCH  38  39
ATOM     39  C   UNL     1      -1.147  -3.159  -2.505  1.00  0.00     0.023 C 
BRANCH  39  40
ATOM     40  C   UNL     1      -0.969  -4.492  -3.252  1.00  0.00     0.116 C 
BRANCH  40  41
ATOM     41  N   UNL     1       0.401  -4.672  -3.699  1.00  0.00    -0.357 N 
ATOM     42  C   UNL     1       1.050  -3.862  -4.684  1.00  0.00     0.185 C 
ATOM     43  N   UNL     1       0.405  -3.006  -5.399  1.00  0.00    -0.270 NA
ATOM     44  N   UNL     1       2.442  -4.019  -4.898  1.00  0.00    -0.370 N 
ATOM     45  H   UNL     1       0.949  -5.423  -3.254  1.00  0.00     0.163 HD
ATOM     46  H   UNL     1      -0.609  -2.853  -5.321  1.00  0.00     0.191 HD
ATOM     47  H   UNL     1       2.984  -4.693  -4.339  1.00  0.00     0.159 HD
ATOM     48  H   UNL     1       2.931  -3.447  -5.603  1.00  0.00     0.159 HD
ENDBRANCH  40  41
ENDBRANCH  39  40
ENDBRANCH  38  39
ENDBRANCH   2  38
ENDBRANCH   1   2
BRANCH   1  49
ATOM     49  O   UNL     1       1.179  -0.690  -2.177  1.00  0.00    -0.390 OA
ATOM     50  H   UNL     1       1.869  -1.208  -1.693  1.00  0.00     0.211 HD
ENDBRANCH   1  49
BRANCH   1  51
ATOM     51  C   UNL     1       0.257   0.767  -0.469  1.00  0.00     0.156 C 
BRANCH  51  52
ATOM     52  C   UNL     1       1.440   0.714   0.478  1.00  0.00     0.308 C 
ATOM     53  O   UNL     1       1.640   1.657   1.229  1.00  0.00    -0.252 OA
BRANCH  52  54
ATOM     54  O   UNL     1       2.294  -0.344   0.455  1.00  0.00    -0.461 OA
BRANCH  54  55
ATOM     55  C   UNL     1       3.401  -0.550   1.253  1.00  0.00     0.267 C 
BRANCH  55  56
ATOM     56  C   UNL     1       4.634  -0.350   0.404  1.00  0.00     0.008 C 
ATOM     57  C   UNL     1       5.521  -1.301  -0.019  1.00  0.00     0.134 C 
ATOM     58  C   UNL     1       4.994   1.114   0.139  1.00  0.00     0.109 C 
ATOM     59  N   UNL     1       6.564  -0.794  -0.828  1.00  0.00    -0.284 N 
ATOM     60  S   UNL     1       5.363   1.526  -1.602  1.00  0.00    -0.127 SA
ATOM     61  C   UNL     1       7.885  -0.699  -0.734  1.00  0.00     0.278 C 
ATOM     62  C   UNL     1       6.530   0.143  -1.930  1.00  0.00     0.205 C 
ATOM     63  O   UNL     1       8.612  -1.183   0.118  1.00  0.00    -0.269 OA
ATOM     64  C   UNL     1       8.101   0.330  -1.783  1.00  0.00     0.225 C 
BRANCH  57  65
ATOM     65  C   UNL     1       5.488  -2.782   0.210  1.00  0.00     0.352 C 
ATOM     66  O   UNL     1       6.504  -3.421  -0.013  1.00  0.00    -0.245 OA
BRANCH  65  67
ATOM     67  O   UNL     1       4.375  -3.475   0.535  1.00  0.00    -0.477 OA
ATOM     68  H   UNL     1       3.480  -3.127   0.466  1.00  0.00     0.297 HD
ENDBRANCH  65  67
ENDBRANCH  57  65
BRANCH  64  69
ATOM     69  N   UNL     1       8.911  -0.072  -2.932  1.00  0.00    -0.326 N 
ATOM     70  C   UNL     1       8.806  -1.260  -3.591  1.00  0.00     0.339 C 
ATOM     71  O   UNL     1       8.004  -2.115  -3.249  1.00  0.00    -0.279 OA
ATOM     72  H   UNL     1       9.620   0.593  -3.276  1.00  0.00     0.166 HD
ENDBRANCH  64  69
BRANCH  64  73
ATOM     73  N   UNL     1       8.509   1.605  -1.208  1.00  0.00    -0.323 N 
ATOM     74  C   UNL     1       9.747   1.821  -0.685  1.00  0.00     0.222 C 
ATOM     75  O   UNL     1      10.594   0.939  -0.724  1.00  0.00    -0.275 OA
ATOM     76  H   UNL     1       7.837   2.383  -1.176  1.00  0.00     0.166 HD
BRANCH  74  77
ATOM     77  C   UNL     1      10.056   3.167  -0.063  1.00  0.00     0.100 C 
BRANCH  77  78
ATOM     78  C   UNL     1      11.483   3.315   0.488  1.00  0.00     0.012 C 
BRANCH  78  79
ATOM     79  C   UNL     1      11.766   2.397   1.694  1.00  0.00     0.031 C 
BRANCH  79  80
ATOM     80  C   UNL     1      13.199   2.591   2.232  1.00  0.00     0.162 C 
BRANCH  80  81
ATOM     81  N   UNL     1      14.170   2.326   1.166  1.00  0.00    -0.318 NA
ATOM     82  H   UNL     1      14.088   1.341   0.823  1.00  0.00     0.119 HD
ATOM     83  H   UNL     1      15.141   2.512   1.508  1.00  0.00     0.119 HD
ENDBRANCH  80  81
BRANCH  80  84
ATOM     84  C   UNL     1      13.424   1.709   3.453  1.00  0.00     0.320 C 
ATOM     85  O   UNL     1      12.712   1.867   4.432  1.00  0.00    -0.251 OA
BRANCH  84  86
ATOM     86  O   UNL     1      14.385   0.758   3.504  1.00  0.00    -0.480 OA
ATOM     87  H   UNL     1      14.990   0.561   2.778  1.00  0.00     0.296 HD
ENDBRANCH  84  86
ENDBRANCH  80  84
ENDBRANCH  79  80
ENDBRANCH  78  79
ENDBRANCH  77  78
ENDBRANCH  74  77
ENDBRANCH  64  73
ENDBRANCH  55  56
ENDBRANCH  54  55
ENDBRANCH  52  54
ENDBRANCH  51  52
ENDBRANCH   1  51
TORSDOF 36
