REMARK SMILES C=C(C=O)[C@@H]1CC[C@]2(C)CC[C@@H](O)C(=C)[C@@H]2C1
REMARK SMILES IDX 5 1 6 2 7 3 8 4 9 5 10 6 11 7 12 8 14 9 15 10 16 11 17 12
REMARK SMILES IDX 2 13 1 14 3 15 4 16 13 17
REMARK H PARENT 13 18
ROOT
ATOM      1  C   UNL     1       2.000  -0.144   0.392  1.00  0.00     0.022 C 
ATOM      2  C   UNL     1       1.609  -1.526  -0.168  1.00  0.00     0.009 C 
ATOM      3  C   UNL     1       0.333  -2.031   0.522  1.00  0.00     0.008 C 
ATOM      4  C   UNL     1      -0.872  -1.054   0.383  1.00  0.00    -0.026 C 
ATOM      5  C   UNL     1      -2.004  -1.605   1.292  1.00  0.00     0.012 C 
ATOM      6  C   UNL     1      -1.373  -0.982  -1.101  1.00  0.00     0.010 C 
ATOM      7  C   UNL     1      -2.529   0.026  -1.286  1.00  0.00     0.037 C 
ATOM      8  C   UNL     1      -2.118   1.435  -0.804  1.00  0.00     0.140 C 
ATOM      9  C   UNL     1      -1.586   1.348   0.623  1.00  0.00    -0.045 C 
ATOM     10  C   UNL     1      -2.105   2.060   1.639  1.00  0.00     0.011 C 
ATOM     11  C   UNL     1      -0.445   0.370   0.873  1.00  0.00     0.023 C 
ATOM     12  C   UNL     1       0.852   0.861   0.176  1.00  0.00     0.017 C 
ENDROOT
BRANCH   1  13
ATOM     13  C   UNL     1       3.307   0.357  -0.220  1.00  0.00    -0.012 C 
ATOM     14  C   UNL     1       4.365   0.581   0.578  1.00  0.00     0.016 C 
BRANCH  13  15
ATOM     15  C   UNL     1       3.463   0.611  -1.678  1.00  0.00     0.255 C 
ATOM     16  O   UNL     1       2.546   0.427  -2.460  1.00  0.00    -0.298 OA
ENDBRANCH  13  15
ENDBRANCH   1  13
BRANCH   8  17
ATOM     17  O   UNL     1      -3.185   2.343  -0.939  1.00  0.00    -0.389 OA
ATOM     18  H   UNL     1      -3.976   1.953  -0.482  1.00  0.00     0.211 HD
ENDBRANCH   8  17
TORSDOF 3
