REMARK SMILES CC(=O)OC/C1=C/C=C\[C@@]2(C)CC[C@]3(O2)[C@@H]1CC3(C)C
REMARK SMILES IDX 6 1 7 2 5 4 4 5 2 6 3 7 1 8 8 9 9 10 10 11 12 12 15 13 13 14
REMARK SMILES IDX 14 15 16 16 18 17 17 18 11 19 19 20 20 21
REMARK H PARENT
REMARK Flexibility Score:   32.900
ROOT
ATOM      1  C   UNL     1       1.417  -0.238  -0.027  1.00  0.00    -0.027 CG0
ATOM      2  C   UNL     1       1.623   1.119  -0.163  1.00  0.00     0.003 C 
ATOM      3  G   UNL     1       0.132  -1.022  -0.273  1.00  0.00     0.000 G0
ENDROOT
BRANCH   1   4
ATOM      4  C   UNL     1       2.601  -1.149   0.293  1.00  0.00     0.264 C 
BRANCH   4   5
ATOM      5  O   UNL     1       3.768  -0.446   0.545  1.00  0.00    -0.461 OA
BRANCH   5   6
ATOM      6  C   UNL     1       4.865  -0.419  -0.256  1.00  0.00     0.302 C 
ATOM      7  O   UNL     1       4.866  -0.972  -1.347  1.00  0.00    -0.253 OA
ATOM      8  C   UNL     1       6.071   0.338   0.195  1.00  0.00     0.139 C 
ENDBRANCH   5   6
ENDBRANCH   4   5
ENDBRANCH   1   4
BRANCH   2   9
ATOM      9  C   UNL     1       0.793   2.318  -0.547  1.00  0.00    -0.001 C 
ATOM     10  C   UNL     1      -0.525   2.632  -0.519  1.00  0.00     0.007 C 
BRANCH  10  11
ATOM     11  C   UNL     1      -1.671   1.831   0.051  1.00  0.00     0.085 C 
ATOM     12  C   UNL     1      -2.608   1.317  -1.046  1.00  0.00     0.042 C 
ATOM     13  O   UNL     1      -1.164   0.709   0.702  1.00  0.00    -0.364 OA
ATOM     14  C   UNL     1      -1.768   0.202  -1.574  1.00  0.00     0.040 C 
ATOM     15  C   UNL     1      -1.217  -0.333  -0.248  1.00  0.00     0.081 C 
ATOM     16  C   UNL     1       0.132  -1.022  -0.273  1.00  0.00     0.052 CG0
ATOM     17  C   UNL     1      -1.815  -1.600   0.416  1.00  0.00    -0.005 C 
ATOM     18  C   UNL     1      -0.382  -1.931   0.870  1.00  0.00     0.020 C 
ATOM     19  C   UNL     1      -2.434   2.701   1.058  1.00  0.00     0.047 C 
ATOM     20  C   UNL     1      -2.342  -2.652  -0.592  1.00  0.00     0.014 C 
ATOM     21  C   UNL     1      -2.841  -1.387   1.545  1.00  0.00     0.014 C 
ATOM     22  G   UNL     1       1.417  -0.238  -0.027  1.00  0.00     0.000 G0
ENDBRANCH  10  11
ENDBRANCH   2   9
TORSDOF 3
