REMARK SMILES COc1cc2cc(c1Cl)NC(=O)/C=C/C(C)=C/[C@H](C)[C@@H]1C[C@@](O)(NC(=O)O1)[C@H](OC)/C=C/C=C(/C)C2
REMARK SMILES IDX 13 1 14 2 11 3 10 4 12 5 7 7 3 8 4 9 8 10 5 11 6 12 9 13
REMARK SMILES IDX 2 14 1 15 36 16 34 17 33 18 35 19 32 20 31 21 15 23 17 24
REMARK SMILES IDX 16 25 18 26 19 27 20 28 21 29 27 30 22 31 25 32 24 33 26 34
REMARK SMILES IDX 23 36 28 38 29 40 30 41
REMARK H PARENT 10 6 24 35 23 37
REMARK Flexibility Score:   87.900
ROOT
ATOM      1  C   UNL     1       0.423  -3.556   0.493  1.00  0.00     0.072 C 
ATOM      2  C   UNL     1      -0.147  -3.540  -0.734  1.00  0.00     0.009 C 
ENDROOT
BRANCH   1   3
ATOM      3  C   UNL     1       1.840  -3.160   0.728  1.00  0.00     0.248 C 
ATOM      4  N   UNL     1       2.465  -2.376  -0.197  1.00  0.00    -0.321 N 
ATOM      5  O   UNL     1       2.296  -3.265   1.859  1.00  0.00    -0.270 OA
ATOM      6  H   UNL     1       1.956  -2.153  -1.062  1.00  0.00     0.170 HD
BRANCH   4   7
ATOM      7  C   UNL     1       3.336  -1.340   0.213  1.00  0.00     0.064 A 
ATOM      8  C   UNL     1       5.423  -0.410   1.041  1.00  0.00     0.139 A 
ATOM      9  C   UNL     1       4.845   0.885   0.993  1.00  0.00     0.052 A 
ATOM     10  C   UNL     1       4.650  -1.533   0.668  1.00  0.00     0.106 A 
ATOM     11  C   UNL     1       3.518   1.055   0.565  1.00  0.00    -0.038 A 
ATOM     12  C   UNL     1       2.794  -0.057   0.165  1.00  0.00     0.032 A 
ATOM     13  Cl  UNL     1       5.346  -3.148   0.720  1.00  0.00    -0.078 Cl
BRANCH   8  14
ATOM     14  O   UNL     1       6.709  -0.613   1.433  1.00  0.00    -0.495 OA
ATOM     15  C   UNL     1       7.620   0.374   1.749  1.00  0.00     0.278 C 
ENDBRANCH   8  14
BRANCH  11  16
ATOM     16  C   UNL     1       2.831   2.398   0.523  1.00  0.00     0.066 C 
BRANCH  16  17
ATOM     17  C   UNL     1       2.403   2.737  -0.893  1.00  0.00    -0.069 C 
ATOM     18  C   UNL     1       1.124   2.869  -1.358  1.00  0.00    -0.001 C 
ATOM     19  C   UNL     1       3.543   2.980  -1.860  1.00  0.00     0.040 C 
BRANCH  18  20
ATOM     20  C   UNL     1      -0.236   2.695  -0.743  1.00  0.00    -0.002 C 
ATOM     21  C   UNL     1      -0.620   2.100   0.409  1.00  0.00     0.009 CG0
ATOM     22  G   UNL     1      -2.085   2.116   0.855  1.00  0.00     0.000 G0
ENDBRANCH  18  20
ENDBRANCH  16  17
ENDBRANCH  11  16
ENDBRANCH   4   7
ENDBRANCH   1   3
BRANCH   2  23
ATOM     23  C   UNL     1      -1.612  -3.429  -1.012  1.00  0.00    -0.055 C 
ATOM     24  C   UNL     1      -2.472  -3.116  -0.008  1.00  0.00    -0.017 C 
ATOM     25  C   UNL     1      -2.030  -3.489  -2.463  1.00  0.00     0.044 C 
BRANCH  24  26
ATOM     26  C   UNL     1      -3.891  -2.584  -0.111  1.00  0.00     0.050 C 
ATOM     27  C   UNL     1      -4.871  -3.476  -0.885  1.00  0.00     0.016 C 
BRANCH  26  28
ATOM     28  C   UNL     1      -3.883  -1.100  -0.609  1.00  0.00     0.190 C 
ATOM     29  C   UNL     1      -2.823  -0.250   0.174  1.00  0.00     0.107 C 
ATOM     30  O   UNL     1      -5.160  -0.570  -0.460  1.00  0.00    -0.445 OA
ATOM     31  C   UNL     1      -3.081   1.258  -0.011  1.00  0.00     0.174 C 
ATOM     32  C   UNL     1      -5.446   0.615   0.145  1.00  0.00     0.409 C 
ATOM     33  N   UNL     1      -4.455   1.505   0.427  1.00  0.00    -0.290 N 
ATOM     34  O   UNL     1      -6.598   0.866   0.457  1.00  0.00    -0.224 OA
ATOM     35  H   UNL     1      -4.695   2.360   0.952  1.00  0.00     0.170 HD
BRANCH  31  36
ATOM     36  O   UNL     1      -2.940   1.611  -1.369  1.00  0.00    -0.368 OA
ATOM     37  H   UNL     1      -3.769   1.373  -1.859  1.00  0.00     0.213 HD
ENDBRANCH  31  36
BRANCH  31  38
ATOM     38  C   UNL     1      -2.085   2.116   0.855  1.00  0.00     0.193 CG0
ATOM     39  G   UNL     1      -0.620   2.100   0.409  1.00  0.00     0.000 G0
BRANCH  38  40
ATOM     40  O   UNL     1      -2.517   3.471   0.870  1.00  0.00    -0.372 OA
ATOM     41  C   UNL     1      -2.522   3.982   2.186  1.00  0.00     0.196 C 
ENDBRANCH  38  40
ENDBRANCH  31  38
ENDBRANCH  26  28
ENDBRANCH  24  26
ENDBRANCH   2  23
TORSDOF 3
