REMARK SMILES COc1ccc([C@@H]2c3[nH]c4ccccc4c3C[C@@H]3C(=O)N(CCc4ccccc4)CC(=O)N23)cc1
REMARK SMILES IDX 7 1 8 2 16 3 17 4 18 5 19 6 20 7 21 8 30 9 31 10 32 11 33 12
REMARK SMILES IDX 15 13 14 14 13 15 12 16 11 17 10 18 9 19 6 21 3 22 4 23
REMARK SMILES IDX 35 24 5 25 34 26 2 27 1 28 22 29 23 30 24 31 25 32 29 33
REMARK SMILES IDX 26 34 28 35 27 36
REMARK H PARENT 9 20
ROOT
ATOM      1  C   UNL     1       1.758  -0.086   1.204  1.00  0.00     0.163 C 
ATOM      2  C   UNL     1       2.347  -1.410   0.780  1.00  0.00     0.047 A 
ATOM      3  C   UNL     1       1.735  -2.254  -0.123  1.00  0.00    -0.014 A 
ATOM      4  C   UNL     1       0.411  -1.954  -0.742  1.00  0.00     0.073 C 
ATOM      5  C   UNL     1      -0.367  -1.069   0.256  1.00  0.00     0.180 C 
ATOM      6  C   UNL     1      -1.768  -0.805  -0.240  1.00  0.00     0.246 C 
ATOM      7  O   UNL     1      -2.476  -1.776  -0.478  1.00  0.00    -0.272 OA
ATOM      8  N   UNL     1      -2.269   0.455  -0.401  1.00  0.00    -0.331 N 
ATOM      9  C   UNL     1      -1.480   1.641  -0.135  1.00  0.00     0.219 C 
ATOM     10  C   UNL     1      -0.106   1.389   0.417  1.00  0.00     0.243 C 
ATOM     11  O   UNL     1       0.529   2.381   0.741  1.00  0.00    -0.273 OA
ATOM     12  N   UNL     1       0.422   0.130   0.582  1.00  0.00    -0.316 N 
ATOM     13  C   UNL     1       2.563  -3.348  -0.248  1.00  0.00     0.003 A 
ATOM     14  C   UNL     1       2.453  -4.513  -1.006  1.00  0.00     0.010 A 
ATOM     15  C   UNL     1       3.487  -5.462  -0.900  1.00  0.00     0.001 A 
ATOM     16  C   UNL     1       4.591  -5.228  -0.049  1.00  0.00     0.002 A 
ATOM     17  C   UNL     1       4.674  -4.042   0.704  1.00  0.00     0.026 A 
ATOM     18  C   UNL     1       3.637  -3.120   0.580  1.00  0.00     0.046 A 
ATOM     19  N   UNL     1       3.515  -1.936   1.212  1.00  0.00    -0.356 N 
ATOM     20  H   UNL     1       4.181  -1.514   1.897  1.00  0.00     0.166 HD
ENDROOT
BRANCH   1  21
ATOM     21  C   UNL     1       2.772   0.995   0.874  1.00  0.00    -0.019 A 
ATOM     22  C   UNL     1       4.626   3.046   0.309  1.00  0.00     0.118 A 
ATOM     23  C   UNL     1       4.064   2.282  -0.736  1.00  0.00     0.047 A 
ATOM     24  C   UNL     1       4.256   2.768   1.629  1.00  0.00     0.047 A 
ATOM     25  C   UNL     1       3.147   1.264  -0.453  1.00  0.00     0.010 A 
ATOM     26  C   UNL     1       3.339   1.754   1.912  1.00  0.00     0.010 A 
BRANCH  22  27
ATOM     27  O   UNL     1       5.512   4.051   0.092  1.00  0.00    -0.497 OA
ATOM     28  C   UNL     1       5.951   4.487  -1.140  1.00  0.00     0.278 C 
ENDBRANCH  22  27
ENDBRANCH   1  21
BRANCH   8  29
ATOM     29  C   UNL     1      -3.665   0.658  -0.783  1.00  0.00     0.125 C 
BRANCH  29  30
ATOM     30  C   UNL     1      -4.576   0.298   0.408  1.00  0.00     0.057 C 
BRANCH  30  31
ATOM     31  C   UNL     1      -6.039   0.560   0.150  1.00  0.00    -0.046 A 
ATOM     32  C   UNL     1      -6.496   1.858  -0.143  1.00  0.00     0.004 A 
ATOM     33  C   UNL     1      -6.970  -0.489   0.242  1.00  0.00     0.004 A 
ATOM     34  C   UNL     1      -7.859   2.096  -0.345  1.00  0.00     0.000 A 
ATOM     35  C   UNL     1      -8.332  -0.245   0.043  1.00  0.00     0.000 A 
ATOM     36  C   UNL     1      -8.776   1.047  -0.251  1.00  0.00     0.000 A 
ENDBRANCH  30  31
ENDBRANCH  29  30
ENDBRANCH   8  29
TORSDOF 5
