REMARK SMILES C=C[C@@](C)(O)CC/C=C(\C)CC/C=C(/C)COC(=O)/C(C)=C\C
REMARK SMILES IDX 11 1 9 2 8 3 10 4 7 5 6 6 3 7 4 8 2 9 1 10 5 11 12 13 13 14
REMARK SMILES IDX 14 15 15 16 16 17 17 18 18 19 19 20 20 21 22 22 21 23 23 24
REMARK H PARENT 5 12
ROOT
ATOM      1  C   UNL     1       0.167   0.252  -0.257  1.00  0.00     0.034 C 
ENDROOT
BRANCH   1   2
ATOM      2  C   UNL     1       1.343   1.183  -0.522  1.00  0.00    -0.077 C 
ATOM      3  C   UNL     1       2.193   1.455   0.503  1.00  0.00    -0.028 C 
ATOM      4  C   UNL     1       1.486   1.754  -1.921  1.00  0.00     0.039 C 
BRANCH   3   5
ATOM      5  C   UNL     1       3.457   2.283   0.447  1.00  0.00     0.030 C 
BRANCH   5   6
ATOM      6  C   UNL     1       4.675   1.458   0.921  1.00  0.00     0.043 C 
BRANCH   6   7
ATOM      7  C   UNL     1       4.978   0.152   0.125  1.00  0.00     0.080 C 
ATOM      8  C   UNL     1       5.233   0.476  -1.366  1.00  0.00     0.047 C 
BRANCH   7   9
ATOM      9  C   UNL     1       6.210  -0.501   0.737  1.00  0.00    -0.001 C 
ATOM     10  C   UNL     1       6.699  -1.671   0.309  1.00  0.00     0.007 C 
ENDBRANCH   7   9
BRANCH   7  11
ATOM     11  O   UNL     1       3.882  -0.724   0.262  1.00  0.00    -0.386 OA
ATOM     12  H   UNL     1       3.992  -1.478  -0.374  1.00  0.00     0.211 HD
ENDBRANCH   7  11
ENDBRANCH   6   7
ENDBRANCH   5   6
ENDBRANCH   3   5
ENDBRANCH   1   2
BRANCH   1  13
ATOM     13  C   UNL     1       0.243  -1.009  -1.127  1.00  0.00     0.032 C 
BRANCH  13  14
ATOM     14  C   UNL     1      -0.818  -2.099  -1.026  1.00  0.00    -0.024 C 
ATOM     15  C   UNL     1      -1.943  -2.256  -0.270  1.00  0.00    -0.040 C 
ATOM     16  C   UNL     1      -2.765  -3.510  -0.476  1.00  0.00     0.043 C 
BRANCH  15  17
ATOM     17  C   UNL     1      -2.482  -1.312   0.783  1.00  0.00     0.264 C 
BRANCH  17  18
ATOM     18  O   UNL     1      -3.742  -0.882   0.417  1.00  0.00    -0.458 OA
BRANCH  18  19
ATOM     19  C   UNL     1      -4.505  -0.049   1.173  1.00  0.00     0.333 C 
ATOM     20  O   UNL     1      -4.079   0.341   2.249  1.00  0.00    -0.247 OA
BRANCH  19  21
ATOM     21  C   UNL     1      -5.849   0.377   0.663  1.00  0.00     0.030 C 
ATOM     22  C   UNL     1      -6.706   1.224   1.296  1.00  0.00    -0.020 C 
ATOM     23  C   UNL     1      -6.312  -0.168  -0.670  1.00  0.00     0.052 C 
ATOM     24  C   UNL     1      -6.533   1.928   2.618  1.00  0.00     0.036 C 
ENDBRANCH  19  21
ENDBRANCH  18  19
ENDBRANCH  17  18
ENDBRANCH  15  17
ENDBRANCH  13  14
ENDBRANCH   1  13
TORSDOF 12
