REMARK SMILES CC(C)=CCc1c(O)cc(O)c2c1O[C@]13C(=C[C@@H]4C[C@H]1C(C)(C)O[C@@]3(CC=C(C)C)C4=O)C2=O
REMARK SMILES IDX 6 1 13 2 14 3 15 4 16 5 17 6 18 7 19 8 20 9 21 10 22 11
REMARK SMILES IDX 23 12 24 13 25 14 31 15 32 16 33 17 34 18 12 19 10 20 9 21
REMARK SMILES IDX 7 22 5 23 4 24 2 25 1 26 3 27 8 28 11 30 26 32 27 33 28 34
REMARK SMILES IDX 29 35 30 36
REMARK H PARENT 8 29 11 31
ROOT
ATOM      1  C   UNL     1       2.385   1.788  -0.356  1.00  0.00     0.041 A 
ATOM      2  C   UNL     1       1.510   1.130   0.545  1.00  0.00     0.143 A 
ATOM      3  O   UNL     1       0.659   0.179   0.049  1.00  0.00    -0.477 OA
ATOM      4  C   UNL     1      -0.275  -0.590   0.743  1.00  0.00     0.179 C 
ATOM      5  C   UNL     1      -0.277  -0.294   2.242  1.00  0.00     0.044 C 
ATOM      6  C   UNL     1      -1.178  -0.985   2.972  1.00  0.00    -0.004 C 
ATOM      7  C   UNL     1      -2.003  -1.981   2.196  1.00  0.00     0.083 C 
ATOM      8  C   UNL     1      -0.966  -2.904   1.502  1.00  0.00     0.027 C 
ATOM      9  C   UNL     1      -0.152  -2.095   0.401  1.00  0.00     0.074 C 
ATOM     10  C   UNL     1      -0.830  -2.091  -1.032  1.00  0.00     0.071 C 
ATOM     11  C   UNL     1      -1.543  -3.411  -1.396  1.00  0.00     0.042 C 
ATOM     12  C   UNL     1       0.218  -1.848  -2.135  1.00  0.00     0.042 C 
ATOM     13  O   UNL     1      -1.769  -1.023  -1.078  1.00  0.00    -0.356 OA
ATOM     14  C   UNL     1      -1.732  -0.405   0.190  1.00  0.00     0.175 C 
ATOM     15  C   UNL     1      -2.687  -1.194   1.111  1.00  0.00     0.176 C 
ATOM     16  O   UNL     1      -3.895  -1.242   0.938  1.00  0.00    -0.296 OA
ATOM     17  C   UNL     1       0.608   0.721   2.825  1.00  0.00     0.200 C 
ATOM     18  O   UNL     1       0.560   0.929   4.025  1.00  0.00    -0.289 OA
ATOM     19  C   UNL     1       1.527   1.468   1.927  1.00  0.00     0.107 A 
ATOM     20  C   UNL     1       2.412   2.492   2.379  1.00  0.00     0.134 A 
ATOM     21  C   UNL     1       3.241   3.140   1.466  1.00  0.00     0.093 A 
ATOM     22  C   UNL     1       3.237   2.804   0.115  1.00  0.00     0.126 A 
ENDROOT
BRANCH   1  23
ATOM     23  C   UNL     1       2.389   1.432  -1.829  1.00  0.00     0.070 C 
BRANCH  23  24
ATOM     24  C   UNL     1       3.053   0.130  -2.258  1.00  0.00    -0.023 C 
ATOM     25  C   UNL     1       3.762  -0.790  -1.551  1.00  0.00    -0.080 C 
ATOM     26  C   UNL     1       4.312  -1.973  -2.312  1.00  0.00     0.039 C 
ATOM     27  C   UNL     1       4.056  -0.703  -0.073  1.00  0.00     0.039 C 
ENDBRANCH  23  24
ENDBRANCH   1  23
BRANCH  22  28
ATOM     28  O   UNL     1       4.065   3.452  -0.733  1.00  0.00    -0.507 OA
ATOM     29  H   UNL     1       4.664   4.153  -0.440  1.00  0.00     0.293 HD
ENDBRANCH  22  28
BRANCH  20  30
ATOM     30  O   UNL     1       2.511   2.906   3.663  1.00  0.00    -0.507 OA
ATOM     31  H   UNL     1       2.012   2.583   4.418  1.00  0.00     0.293 HD
ENDBRANCH  20  30
BRANCH  14  32
ATOM     32  C   UNL     1      -2.107   1.094   0.112  1.00  0.00     0.075 C 
BRANCH  32  33
ATOM     33  C   UNL     1      -3.500   1.302  -0.442  1.00  0.00    -0.025 C 
ATOM     34  C   UNL     1      -4.551   1.879   0.198  1.00  0.00    -0.080 C 
ATOM     35  C   UNL     1      -4.521   2.417   1.612  1.00  0.00     0.039 C 
ATOM     36  C   UNL     1      -5.870   1.999  -0.520  1.00  0.00     0.039 C 
ENDBRANCH  32  33
ENDBRANCH  14  32
TORSDOF 6
