REMARK SMILES COc1c(O)cc(O)c2c(=O)c(CO)c(C)oc12
REMARK SMILES IDX 3 1 4 2 6 3 7 4 9 5 18 6 17 7 15 8 16 9 12 10 10 11 11 12
REMARK SMILES IDX 2 13 1 14 5 15 8 17 13 19 14 20
REMARK H PARENT 5 16 8 18 14 21
ROOT
ATOM      1  C   UNL     1      -2.062  -0.392   0.010  1.00  0.00     0.204 A 
ATOM      2  C   UNL     1      -2.977   0.673  -0.061  1.00  0.00     0.165 A 
ATOM      3  C   UNL     1      -2.515   1.970  -0.297  1.00  0.00     0.097 A 
ATOM      4  C   UNL     1      -1.148   2.227  -0.468  1.00  0.00     0.134 A 
ATOM      5  C   UNL     1      -0.218   1.160  -0.403  1.00  0.00     0.111 A 
ATOM      6  C   UNL     1      -0.690  -0.151  -0.162  1.00  0.00     0.187 A 
ATOM      7  O   UNL     1       0.160  -1.169  -0.095  1.00  0.00    -0.457 OA
ATOM      8  C   UNL     1       1.474  -1.040  -0.240  1.00  0.00     0.111 A 
ATOM      9  C   UNL     1       2.312  -2.282  -0.150  1.00  0.00     0.088 C 
ATOM     10  C   UNL     1       2.040   0.233  -0.482  1.00  0.00     0.064 A 
ATOM     11  C   UNL     1       1.173   1.341  -0.566  1.00  0.00     0.202 A 
ATOM     12  O   UNL     1       1.631   2.453  -0.776  1.00  0.00    -0.288 OA
ENDROOT
BRANCH   1  13
ATOM     13  O   UNL     1      -2.498  -1.651   0.236  1.00  0.00    -0.490 OA
ATOM     14  C   UNL     1      -2.627  -2.159   1.510  1.00  0.00     0.278 C 
ENDBRANCH   1  13
BRANCH   2  15
ATOM     15  O   UNL     1      -4.303   0.473   0.093  1.00  0.00    -0.504 OA
ATOM     16  H   UNL     1      -4.687  -0.401   0.252  1.00  0.00     0.293 HD
ENDBRANCH   2  15
BRANCH   4  17
ATOM     17  O   UNL     1      -0.735   3.493  -0.694  1.00  0.00    -0.507 OA
ATOM     18  H   UNL     1      -1.351   4.239  -0.742  1.00  0.00     0.293 HD
ENDBRANCH   4  17
BRANCH  10  19
ATOM     19  C   UNL     1       3.539   0.408  -0.652  1.00  0.00     0.199 C 
BRANCH  19  20
ATOM     20  O   UNL     1       4.214   0.041   0.519  1.00  0.00    -0.391 OA
ATOM     21  H   UNL     1       4.049   0.765   1.177  1.00  0.00     0.211 HD
ENDBRANCH  19  20
ENDBRANCH  10  19
TORSDOF 5
