REMARK SMILES CCc1cccc2c1NC(=O)[C@@]21N[C@H](CCSC)[C@H]2C(=O)N(CCc3ccccc3)C(=O)[C@H]21
REMARK SMILES IDX 3 1 4 2 5 3 6 4 7 5 8 6 9 7 10 8 11 9 12 10 13 11 14 12
REMARK SMILES IDX 19 13 20 14 21 15 22 16 31 17 32 18 33 19 2 22 1 23 15 24
REMARK SMILES IDX 16 25 17 26 18 27 23 28 24 29 25 30 26 31 30 32 27 33 29 34
REMARK SMILES IDX 28 35
REMARK H PARENT 9 20 13 21
ROOT
ATOM      1  C   UNL     1      -3.634  -2.763   0.983  1.00  0.00    -0.024 A 
ATOM      2  C   UNL     1      -3.164  -2.658   2.308  1.00  0.00     0.006 A 
ATOM      3  C   UNL     1      -2.297  -1.614   2.683  1.00  0.00     0.001 A 
ATOM      4  C   UNL     1      -1.890  -0.652   1.745  1.00  0.00     0.008 A 
ATOM      5  C   UNL     1      -2.367  -0.750   0.435  1.00  0.00     0.006 A 
ATOM      6  C   UNL     1      -3.216  -1.781   0.070  1.00  0.00     0.050 A 
ATOM      7  N   UNL     1      -3.587  -1.664  -1.277  1.00  0.00    -0.324 N 
ATOM      8  C   UNL     1      -2.982  -0.574  -1.780  1.00  0.00     0.250 C 
ATOM      9  O   UNL     1      -3.140  -0.208  -2.935  1.00  0.00    -0.272 OA
ATOM     10  C   UNL     1      -2.123   0.149  -0.767  1.00  0.00     0.138 C 
ATOM     11  N   UNL     1      -2.620   1.512  -0.568  1.00  0.00    -0.295 NA
ATOM     12  C   UNL     1      -1.467   2.303  -0.145  1.00  0.00     0.069 C 
ATOM     13  C   UNL     1      -0.290   1.744  -0.961  1.00  0.00     0.111 C 
ATOM     14  C   UNL     1       0.994   1.623  -0.187  1.00  0.00     0.234 C 
ATOM     15  O   UNL     1       1.651   2.573   0.211  1.00  0.00    -0.274 OA
ATOM     16  N   UNL     1       1.349   0.339   0.024  1.00  0.00    -0.282 N 
ATOM     17  C   UNL     1       0.422  -0.477  -0.521  1.00  0.00     0.235 C 
ATOM     18  O   UNL     1       0.487  -1.696  -0.478  1.00  0.00    -0.274 OA
ATOM     19  C   UNL     1      -0.657   0.282  -1.239  1.00  0.00     0.127 C 
ATOM     20  H   UNL     1      -4.230  -2.276  -1.798  1.00  0.00     0.170 HD
ATOM     21  H   UNL     1      -3.414   1.569   0.114  1.00  0.00     0.124 HD
ENDROOT
BRANCH   1  22
ATOM     22  C   UNL     1      -4.563  -3.887   0.587  1.00  0.00     0.034 C 
ATOM     23  C   UNL     1      -3.898  -4.863  -0.385  1.00  0.00     0.009 C 
ENDBRANCH   1  22
BRANCH  12  24
ATOM     24  C   UNL     1      -1.758   3.793  -0.404  1.00  0.00     0.030 C 
BRANCH  24  25
ATOM     25  C   UNL     1      -0.593   4.728  -0.075  1.00  0.00     0.071 C 
BRANCH  25  26
ATOM     26  S   UNL     1      -1.057   6.472  -0.372  1.00  0.00    -0.165 SA
ATOM     27  C   UNL     1      -0.906   6.417  -2.191  1.00  0.00     0.085 C 
ENDBRANCH  25  26
ENDBRANCH  24  25
ENDBRANCH  12  24
BRANCH  16  28
ATOM     28  C   UNL     1       2.559  -0.094   0.715  1.00  0.00     0.133 C 
BRANCH  28  29
ATOM     29  C   UNL     1       3.506  -0.796  -0.274  1.00  0.00     0.057 C 
BRANCH  29  30
ATOM     30  C   UNL     1       4.817  -1.206   0.352  1.00  0.00    -0.046 A 
ATOM     31  C   UNL     1       5.193  -2.562   0.383  1.00  0.00     0.004 A 
ATOM     32  C   UNL     1       5.695  -0.242   0.880  1.00  0.00     0.004 A 
ATOM     33  C   UNL     1       6.421  -2.942   0.934  1.00  0.00     0.000 A 
ATOM     34  C   UNL     1       6.922  -0.627   1.430  1.00  0.00     0.000 A 
ATOM     35  C   UNL     1       7.284  -1.976   1.456  1.00  0.00     0.000 A 
ENDBRANCH  29  30
ENDBRANCH  28  29
ENDBRANCH  16  28
TORSDOF 7
