REMARK SMILES CCCCC/C=C\C/C=C\C/C=C\C/C=C\CCCCCC(=O)O[C@@H](CO)COC(=O)CCCCCCC/C=C\CCCCCCCC
REMARK SMILES IDX 25 1 24 2 22 3 23 4 21 5 20 6 19 7 18 8 17 9 16 10 15 11
REMARK SMILES IDX 14 12 13 13 12 14 11 15 10 16 9 17 8 18 7 19 6 20 5 21 4 22
REMARK SMILES IDX 3 23 2 24 1 25 26 26 27 27 28 29 29 30 30 31 31 32 32 33
REMARK SMILES IDX 33 34 34 35 35 36 36 37 37 38 38 39 39 40 40 41 41 42 42 43
REMARK SMILES IDX 43 44 44 45 45 46 46 47 47 48 48 49
REMARK H PARENT 27 28
ROOT
ATOM      1  C   UNL     1       0.938  -1.632  -0.827  1.00  0.00     0.239 C 
ENDROOT
BRANCH   1   2
ATOM      2  O   UNL     1      -0.380  -1.911  -1.172  1.00  0.00    -0.456 OA
BRANCH   2   3
ATOM      3  C   UNL     1      -1.444  -1.443  -0.461  1.00  0.00     0.306 C 
ATOM      4  O   UNL     1      -1.272  -0.660   0.467  1.00  0.00    -0.252 OA
BRANCH   3   5
ATOM      5  C   UNL     1      -2.837  -1.941  -0.762  1.00  0.00     0.123 C 
BRANCH   5   6
ATOM      6  C   UNL     1      -3.798  -1.692   0.420  1.00  0.00     0.012 C 
BRANCH   6   7
ATOM      7  C   UNL     1      -3.392  -2.553   1.640  1.00  0.00     0.001 C 
BRANCH   7   8
ATOM      8  C   UNL     1      -4.046  -2.162   2.975  1.00  0.00     0.004 C 
BRANCH   8   9
ATOM      9  C   UNL     1      -5.563  -2.340   3.070  1.00  0.00     0.027 C 
BRANCH   9  10
ATOM     10  C   UNL     1      -6.311  -1.323   2.242  1.00  0.00    -0.031 C 
ATOM     11  C   UNL     1      -7.241  -1.582   1.304  1.00  0.00    -0.027 C 
BRANCH  11  12
ATOM     12  C   UNL     1      -7.719  -2.942   0.869  1.00  0.00     0.054 C 
BRANCH  12  13
ATOM     13  C   UNL     1      -9.185  -3.251   1.112  1.00  0.00    -0.027 C 
ATOM     14  C   UNL     1     -10.138  -2.583   1.807  1.00  0.00    -0.027 C 
BRANCH  14  15
ATOM     15  C   UNL     1     -10.021  -1.323   2.623  1.00  0.00     0.054 C 
BRANCH  15  16
ATOM     16  C   UNL     1     -10.720  -0.086   2.087  1.00  0.00    -0.027 C 
ATOM     17  C   UNL     1     -11.354   0.154   0.915  1.00  0.00    -0.027 C 
BRANCH  17  18
ATOM     18  C   UNL     1     -11.577  -0.752  -0.272  1.00  0.00     0.054 C 
BRANCH  18  19
ATOM     19  C   UNL     1     -13.061  -0.895  -0.494  1.00  0.00    -0.027 C 
ATOM     20  C   UNL     1     -13.751  -0.520  -1.591  1.00  0.00    -0.031 C 
BRANCH  20  21
ATOM     21  C   UNL     1     -13.186   0.112  -2.845  1.00  0.00     0.027 C 
BRANCH  21  22
ATOM     22  C   UNL     1     -13.801   1.499  -3.093  1.00  0.00     0.004 C 
BRANCH  22  23
ATOM     23  C   UNL     1     -13.503   2.530  -1.987  1.00  0.00     0.000 C 
BRANCH  23  24
ATOM     24  C   UNL     1     -12.008   2.864  -1.857  1.00  0.00    -0.003 C 
ATOM     25  C   UNL     1     -11.774   3.916  -0.776  1.00  0.00     0.004 C 
ENDBRANCH  23  24
ENDBRANCH  22  23
ENDBRANCH  21  22
ENDBRANCH  20  21
ENDBRANCH  18  19
ENDBRANCH  17  18
ENDBRANCH  15  16
ENDBRANCH  14  15
ENDBRANCH  12  13
ENDBRANCH  11  12
ENDBRANCH   9  10
ENDBRANCH   8   9
ENDBRANCH   7   8
ENDBRANCH   6   7
ENDBRANCH   5   6
ENDBRANCH   3   5
ENDBRANCH   2   3
ENDBRANCH   1   2
BRANCH   1  26
ATOM     26  C   UNL     1       1.661  -2.932  -0.447  1.00  0.00     0.205 C 
BRANCH  26  27
ATOM     27  O   UNL     1       0.990  -3.577   0.603  1.00  0.00    -0.392 OA
ATOM     28  H   UNL     1       1.136  -3.028   1.417  1.00  0.00     0.210 HD
ENDBRANCH  26  27
ENDBRANCH   1  26
BRANCH   1  29
ATOM     29  C   UNL     1       1.645  -0.894  -1.979  1.00  0.00     0.280 C 
BRANCH  29  30
ATOM     30  O   UNL     1       2.802  -0.271  -1.525  1.00  0.00    -0.462 OA
BRANCH  30  31
ATOM     31  C   UNL     1       2.762   0.797  -0.680  1.00  0.00     0.305 C 
ATOM     32  O   UNL     1       1.684   1.317  -0.404  1.00  0.00    -0.252 OA
BRANCH  31  33
ATOM     33  C   UNL     1       4.032   1.354  -0.079  1.00  0.00     0.123 C 
BRANCH  33  34
ATOM     34  C   UNL     1       3.708   2.498   0.905  1.00  0.00     0.012 C 
BRANCH  34  35
ATOM     35  C   UNL     1       4.867   3.123   1.700  1.00  0.00     0.001 C 
BRANCH  35  36
ATOM     36  C   UNL     1       5.809   4.064   0.928  1.00  0.00     0.000 C 
BRANCH  36  37
ATOM     37  C   UNL     1       6.895   3.364   0.107  1.00  0.00     0.000 C 
BRANCH  37  38
ATOM     38  C   UNL     1       7.839   4.407  -0.517  1.00  0.00     0.004 C 
BRANCH  38  39
ATOM     39  C   UNL     1       8.992   3.749  -1.278  1.00  0.00     0.027 C 
BRANCH  39  40
ATOM     40  C   UNL     1       9.878   2.979  -0.325  1.00  0.00    -0.031 C 
ATOM     41  C   UNL     1      10.122   1.654  -0.342  1.00  0.00    -0.031 C 
BRANCH  41  42
ATOM     42  C   UNL     1       9.525   0.644  -1.295  1.00  0.00     0.027 C 
BRANCH  42  43
ATOM     43  C   UNL     1      10.505   0.086  -2.346  1.00  0.00     0.004 C 
BRANCH  43  44
ATOM     44  C   UNL     1      11.621  -0.860  -1.859  1.00  0.00     0.000 C 
BRANCH  44  45
ATOM     45  C   UNL     1      12.787  -0.191  -1.115  1.00  0.00     0.000 C 
BRANCH  45  46
ATOM     46  C   UNL     1      13.862  -1.226  -0.768  1.00  0.00    -0.000 C 
BRANCH  46  47
ATOM     47  C   UNL     1      15.016  -0.583   0.016  1.00  0.00    -0.000 C 
BRANCH  47  48
ATOM     48  C   UNL     1      16.129  -1.581   0.374  1.00  0.00    -0.003 C 
ATOM     49  C   UNL     1      15.664  -2.695   1.313  1.00  0.00     0.004 C 
ENDBRANCH  47  48
ENDBRANCH  46  47
ENDBRANCH  45  46
ENDBRANCH  44  45
ENDBRANCH  43  44
ENDBRANCH  42  43
ENDBRANCH  41  42
ENDBRANCH  39  40
ENDBRANCH  38  39
ENDBRANCH  37  38
ENDBRANCH  36  37
ENDBRANCH  35  36
ENDBRANCH  34  35
ENDBRANCH  33  34
ENDBRANCH  31  33
ENDBRANCH  30  31
ENDBRANCH  29  30
ENDBRANCH   1  29
TORSDOF 38
