REMARK SMILES CC=CC#CC#CC=CC(=O)N(C)CC(C)C
REMARK SMILES IDX 10 1 11 2 9 3 7 4 8 5 6 6 5 7 4 8 2 9 3 10 1 11 12 12 13 13
REMARK SMILES IDX 14 14 15 15 16 16 17 17
REMARK H PARENT
ROOT
ATOM      1  C   UNL     1      -2.074   0.952   0.139  1.00  0.00     0.246 C 
ATOM      2  O   UNL     1      -2.994   1.709   0.411  1.00  0.00    -0.270 OA
ENDROOT
BRANCH   1   3
ATOM      3  C   UNL     1      -0.803   1.425   0.742  1.00  0.00     0.080 C 
ATOM      4  C   UNL     1       1.752   0.820   0.855  1.00  0.00    -0.061 C 
ATOM      5  C   UNL     1       0.507   1.435   1.015  1.00  0.00     0.067 C 
BRANCH   4   6
ATOM      6  C   UNL     1       2.945   0.722   0.915  1.00  0.00    -0.010 C 
ATOM      7  C   UNL     1       4.319   0.562   0.971  1.00  0.00    -0.010 C 
BRANCH   7   8
ATOM      8  C   UNL     1       5.500   0.429   1.020  1.00  0.00    -0.061 C 
ATOM      9  C   UNL     1       8.042  -0.004   1.069  1.00  0.00    -0.021 C 
ATOM     10  C   UNL     1       6.739  -0.194   1.129  1.00  0.00     0.057 C 
ATOM     11  C   UNL     1       8.801  -1.278   1.366  1.00  0.00     0.036 C 
ENDBRANCH   7   8
ENDBRANCH   4   6
ENDBRANCH   1   3
BRANCH   1  12
ATOM     12  N   UNL     1      -2.357  -0.112  -0.668  1.00  0.00    -0.342 N 
ATOM     13  C   UNL     1      -1.411  -1.158  -0.936  1.00  0.00     0.147 C 
BRANCH  12  14
ATOM     14  C   UNL     1      -3.604  -0.077  -1.444  1.00  0.00     0.122 C 
BRANCH  14  15
ATOM     15  C   UNL     1      -4.860  -0.634  -0.793  1.00  0.00     0.002 C 
ATOM     16  C   UNL     1      -5.313   0.147   0.421  1.00  0.00     0.009 C 
ATOM     17  C   UNL     1      -6.009  -0.596  -1.820  1.00  0.00     0.009 C 
ENDBRANCH  14  15
ENDBRANCH  12  14
ENDBRANCH   1  12
TORSDOF 6
