REMARK SMILES Cc1ccc(N=Nc2cc(C)c(S(=O)(=O)O)cc2N)cc1S(=O)(=O)O
REMARK SMILES IDX 6 1 7 2 5 3 2 4 3 5 21 6 4 7 20 8 1 9 22 10 23 11 24 12
REMARK SMILES IDX 25 13 8 15 9 16 18 17 10 18 17 19 12 20 11 21 19 22 13 25
REMARK SMILES IDX 14 26 15 27 16 28
REMARK H PARENT 25 14 19 23 19 24 16 29
ROOT
ATOM      1  N   UNL     1      -0.524  -0.052   0.017  1.00  0.00    -0.150 NA
ATOM      2  N   UNL     1       0.365   0.666  -0.481  1.00  0.00    -0.148 NA
ENDROOT
BRANCH   1   3
ATOM      3  C   UNL     1      -1.898   0.160  -0.275  1.00  0.00     0.087 A 
ATOM      4  C   UNL     1      -4.638   0.526  -0.831  1.00  0.00    -0.030 A 
ATOM      5  C   UNL     1      -3.679   1.400  -1.367  1.00  0.00     0.007 A 
ATOM      6  C   UNL     1      -4.216  -0.541  -0.007  1.00  0.00     0.099 A 
ATOM      7  C   UNL     1      -2.322   1.220  -1.094  1.00  0.00     0.030 A 
ATOM      8  C   UNL     1      -2.850  -0.713   0.264  1.00  0.00     0.053 A 
ATOM      9  C   UNL     1      -6.093   0.743  -1.146  1.00  0.00     0.046 C 
BRANCH   6  10
ATOM     10  S   UNL     1      -5.400  -1.696   0.708  1.00  0.00     0.294 S 
ATOM     11  O   UNL     1      -4.740  -2.756   1.603  1.00  0.00    -0.194 OA
ATOM     12  O   UNL     1      -6.034  -2.582  -0.375  1.00  0.00    -0.194 OA
BRANCH  10  13
ATOM     13  O   UNL     1      -6.724  -1.086   1.615  1.00  0.00    -0.282 OA
ATOM     14  H   UNL     1      -6.312  -0.672   2.414  1.00  0.00     0.234 HD
ENDBRANCH  10  13
ENDBRANCH   6  10
ENDBRANCH   1   3
BRANCH   2  15
ATOM     15  C   UNL     1       1.746   0.472  -0.206  1.00  0.00     0.109 A 
ATOM     16  C   UNL     1       2.181  -0.516   0.696  1.00  0.00     0.037 A 
ATOM     17  C   UNL     1       2.697   1.284  -0.852  1.00  0.00     0.061 A 
ATOM     18  C   UNL     1       3.549  -0.703   0.958  1.00  0.00    -0.028 A 
ATOM     19  C   UNL     1       4.061   1.097  -0.593  1.00  0.00     0.051 A 
ATOM     20  C   UNL     1       4.497   0.114   0.304  1.00  0.00     0.099 A 
ATOM     21  C   UNL     1       3.975  -1.772   1.927  1.00  0.00     0.046 C 
BRANCH  17  22
ATOM     22  N   UNL     1       2.294   2.291  -1.770  1.00  0.00    -0.397 N 
ATOM     23  H   UNL     1       2.995   2.881  -2.242  1.00  0.00     0.156 HD
ATOM     24  H   UNL     1       1.300   2.455  -1.986  1.00  0.00     0.156 HD
ENDBRANCH  17  22
BRANCH  20  25
ATOM     25  S   UNL     1       6.269  -0.077   0.586  1.00  0.00     0.294 S 
ATOM     26  O   UNL     1       6.659   0.110   2.061  1.00  0.00    -0.194 OA
ATOM     27  O   UNL     1       7.064   1.070  -0.057  1.00  0.00    -0.194 OA
BRANCH  25  28
ATOM     28  O   UNL     1       7.072  -1.501   0.055  1.00  0.00    -0.282 OA
ATOM     29  H   UNL     1       6.956  -2.154   0.790  1.00  0.00     0.234 HD
ENDBRANCH  25  28
ENDBRANCH  20  25
ENDBRANCH   2  15
TORSDOF 7
