REMARK SMILES C=C[C@]1(C)C=C2[C@@H](O)[C@H](O)[C@H]3C(C)(C)C(=O)C=C[C@]3(C)[C@@]2(O)CC1
REMARK SMILES IDX 3 1 4 2 5 3 6 4 7 5 9 6 11 7 12 8 13 9 14 10 15 11 16 12
REMARK SMILES IDX 17 13 18 14 19 15 20 16 21 17 23 18 24 19 2 20 1 21 8 22
REMARK SMILES IDX 22 24 10 26
REMARK H PARENT 8 23 22 25 10 27
ROOT
ATOM      1  C   UNL     1       3.440  -0.145   0.361  1.00  0.00     0.004 C 
ATOM      2  C   UNL     1       4.782   0.104   1.082  1.00  0.00     0.020 C 
ATOM      3  C   UNL     1       2.308  -0.141   1.375  1.00  0.00    -0.011 C 
ATOM      4  C   UNL     1       1.006  -0.023   0.997  1.00  0.00    -0.010 C 
ATOM      5  C   UNL     1      -0.048  -0.151   2.080  1.00  0.00     0.172 C 
ATOM      6  C   UNL     1      -1.521   0.013   1.647  1.00  0.00     0.152 C 
ATOM      7  C   UNL     1      -1.800  -0.391   0.163  1.00  0.00     0.047 C 
ATOM      8  C   UNL     1      -3.353  -0.395  -0.228  1.00  0.00     0.034 C 
ATOM      9  C   UNL     1      -4.017  -1.704   0.288  1.00  0.00     0.020 C 
ATOM     10  C   UNL     1      -4.179   0.784   0.361  1.00  0.00     0.020 C 
ATOM     11  C   UNL     1      -3.516  -0.404  -1.744  1.00  0.00     0.161 C 
ATOM     12  O   UNL     1      -4.627  -0.552  -2.233  1.00  0.00    -0.294 OA
ATOM     13  C   UNL     1      -2.380  -0.229  -2.665  1.00  0.00     0.044 C 
ATOM     14  C   UNL     1      -1.169   0.145  -2.244  1.00  0.00    -0.013 C 
ATOM     15  C   UNL     1      -0.860   0.471  -0.789  1.00  0.00     0.025 C 
ATOM     16  C   UNL     1      -1.111   2.004  -0.670  1.00  0.00     0.020 C 
ATOM     17  C   UNL     1       0.671   0.102  -0.495  1.00  0.00     0.097 C 
ATOM     18  C   UNL     1       1.682   1.163  -1.077  1.00  0.00     0.042 C 
ATOM     19  C   UNL     1       3.176   0.974  -0.684  1.00  0.00     0.018 C 
ENDROOT
BRANCH   1  20
ATOM     20  C   UNL     1       3.516  -1.518  -0.300  1.00  0.00    -0.024 C 
ATOM     21  C   UNL     1       4.404  -1.823  -1.257  1.00  0.00     0.005 C 
ENDBRANCH   1  20
BRANCH   5  22
ATOM     22  O   UNL     1       0.222   0.681   3.180  1.00  0.00    -0.386 OA
ATOM     23  H   UNL     1       0.261   1.612   2.839  1.00  0.00     0.211 HD
ENDBRANCH   5  22
BRANCH  17  24
ATOM     24  O   UNL     1       0.914  -1.173  -1.049  1.00  0.00    -0.384 OA
ATOM     25  H   UNL     1       1.205  -1.072  -1.992  1.00  0.00     0.211 HD
ENDBRANCH  17  24
BRANCH   6  26
ATOM     26  O   UNL     1      -2.340  -0.653   2.572  1.00  0.00    -0.390 OA
ATOM     27  H   UNL     1      -2.107  -1.618   2.536  1.00  0.00     0.211 HD
ENDBRANCH   6  26
TORSDOF 4
