REMARK SMILES CC[C]CCC=CCC=CCC=CCC=CCCCC(=O)O[C](CO)COC(=O)[C]CCCCC=CCC=CCC=CCC=CCCCCC
REMARK SMILES IDX 27 1 28 2 29 3 30 4 31 5 32 6 33 7 34 8 35 9 36 10 37 11
REMARK SMILES IDX 38 12 39 13 40 14 41 15 42 16 43 17 44 18 45 19 46 20 47 21
REMARK SMILES IDX 48 22 49 23 50 24 26 25 23 26 24 27 25 28 22 30 20 31 21 32
REMARK SMILES IDX 19 33 18 34 17 35 16 36 15 37 14 38 13 39 12 40 11 41 10 42
REMARK SMILES IDX 9 43 8 44 7 45 6 46 5 47 4 48 3 49 2 50 1 51
REMARK H PARENT 25 29
ROOT
ATOM      1  O   UNL     1      18.302 -11.911  -0.000  1.00  0.00    -0.461 OA
ENDROOT
BRANCH   1   2
ATOM      2  C   UNL     1      18.186 -10.500   0.000  1.00  0.00     0.314 C 
ATOM      3  O   UNL     1      19.209  -9.833   0.000  1.00  0.00    -0.252 OA
BRANCH   2   4
ATOM      4  C   UNL     1      16.887  -9.750   0.000  1.00  0.00     0.102 C 
BRANCH   4   5
ATOM      5  C   UNL     1      15.588  -9.000   0.000  1.00  0.00     0.021 C 
BRANCH   5   6
ATOM      6  C   UNL     1      14.018  -9.273   0.002  1.00  0.00     0.002 C 
BRANCH   6   7
ATOM      7  C   UNL     1      13.121  -7.908   0.009  1.00  0.00     0.004 C 
BRANCH   7   8
ATOM      8  C   UNL     1      11.539  -8.110   0.005  1.00  0.00     0.027 C 
BRANCH   8   9
ATOM      9  C   UNL     1      10.382  -7.007   0.011  1.00  0.00    -0.031 C 
ATOM     10  C   UNL     1      10.349  -5.625   0.025  1.00  0.00    -0.027 C 
BRANCH  10  11
ATOM     11  C   UNL     1       8.990  -4.772   0.028  1.00  0.00     0.054 C 
BRANCH  11  12
ATOM     12  C   UNL     1       8.052  -3.475   0.039  1.00  0.00    -0.027 C 
ATOM     13  C   UNL     1       6.655  -3.399   0.028  1.00  0.00    -0.027 C 
BRANCH  13  14
ATOM     14  C   UNL     1       5.851  -2.025   0.042  1.00  0.00     0.054 C 
BRANCH  14  15
ATOM     15  C   UNL     1       4.265  -2.002   0.027  1.00  0.00    -0.027 C 
ATOM     16  C   UNL     1       3.477  -0.840   0.038  1.00  0.00    -0.027 C 
BRANCH  16  17
ATOM     17  C   UNL     1       1.890  -0.799   0.022  1.00  0.00     0.054 C 
BRANCH  17  18
ATOM     18  C   UNL     1       1.126   0.596   0.038  1.00  0.00    -0.027 C 
ATOM     19  C   UNL     1      -0.269   0.747   0.026  1.00  0.00    -0.031 C 
BRANCH  19  20
ATOM     20  C   UNL     1      -1.079   2.118   0.040  1.00  0.00     0.027 C 
BRANCH  20  21
ATOM     21  C   UNL     1      -2.689   2.023   0.021  1.00  0.00     0.004 C 
BRANCH  21  22
ATOM     22  C   UNL     1      -3.629   3.357   0.028  1.00  0.00     0.000 C 
BRANCH  22  23
ATOM     23  C   UNL     1      -5.196   3.000   0.000  1.00  0.00    -0.003 C 
ATOM     24  C   UNL     1      -6.495   3.750   0.000  1.00  0.00     0.004 C 
ENDBRANCH  22  23
ENDBRANCH  21  22
ENDBRANCH  20  21
ENDBRANCH  19  20
ENDBRANCH  17  18
ENDBRANCH  16  17
ENDBRANCH  14  15
ENDBRANCH  13  14
ENDBRANCH  11  12
ENDBRANCH  10  11
ENDBRANCH   8   9
ENDBRANCH   7   8
ENDBRANCH   6   7
ENDBRANCH   5   6
ENDBRANCH   4   5
ENDBRANCH   2   4
ENDBRANCH   1   2
BRANCH   1  25
ATOM     25  C   UNL     1      19.486 -12.750   0.000  1.00  0.00     0.288 C 
BRANCH  25  26
ATOM     26  C   UNL     1      20.785 -13.500   0.000  1.00  0.00     0.214 C 
BRANCH  26  27
ATOM     27  C   UNL     1      22.084 -14.250   0.000  1.00  0.00     0.213 C 
BRANCH  27  28
ATOM     28  O   UNL     1      22.751 -14.100  -1.226  1.00  0.00    -0.392 OA
ATOM     29  H   UNL     1      23.547 -14.692  -1.180  1.00  0.00     0.210 HD
ENDBRANCH  27  28
ENDBRANCH  26  27
BRANCH  26  30
ATOM     30  O   UNL     1      21.472 -12.160   0.005  1.00  0.00    -0.448 OA
BRANCH  30  31
ATOM     31  C   UNL     1      22.699 -11.421   0.053  1.00  0.00     0.306 C 
ATOM     32  O   UNL     1      23.768 -12.003   0.137  1.00  0.00    -0.252 OA
BRANCH  31  33
ATOM     33  C   UNL     1      22.748  -9.825   0.009  1.00  0.00     0.123 C 
BRANCH  33  34
ATOM     34  C   UNL     1      24.170  -9.026   0.075  1.00  0.00     0.016 C 
BRANCH  34  35
ATOM     35  C   UNL     1      24.107  -7.405   0.023  1.00  0.00     0.027 C 
BRANCH  35  36
ATOM     36  C   UNL     1      25.413  -6.470   0.081  1.00  0.00    -0.031 C 
ATOM     37  C   UNL     1      25.309  -5.071   0.016  1.00  0.00    -0.027 C 
BRANCH  37  38
ATOM     38  C   UNL     1      26.354  -3.831   0.058  1.00  0.00     0.054 C 
BRANCH  38  39
ATOM     39  C   UNL     1      27.332  -2.557   0.096  1.00  0.00    -0.027 C 
ATOM     40  C   UNL     1      28.708  -2.555   0.209  1.00  0.00    -0.027 C 
BRANCH  40  41
ATOM     41  C   UNL     1      29.848  -1.421   0.281  1.00  0.00     0.054 C 
BRANCH  41  42
ATOM     42  C   UNL     1      30.238   0.139   0.291  1.00  0.00    -0.027 C 
ATOM     43  C   UNL     1      29.488   1.276   0.188  1.00  0.00    -0.027 C 
BRANCH  43  44
ATOM     44  C   UNL     1      29.874   2.836   0.201  1.00  0.00     0.054 C 
BRANCH  44  45
ATOM     45  C   UNL     1      30.992   3.988   0.332  1.00  0.00    -0.027 C 
ATOM     46  C   UNL     1      32.355   4.007   0.529  1.00  0.00    -0.031 C 
BRANCH  46  47
ATOM     47  C   UNL     1      33.348   5.271   0.677  1.00  0.00     0.027 C 
BRANCH  47  48
ATOM     48  C   UNL     1      32.906   6.812   0.604  1.00  0.00     0.012 C 
BRANCH  48  49
ATOM     49  C   UNL     1      33.921   8.039   1.005  1.00  0.00    -0.017 C 
BRANCH  49  50
ATOM     50  C   UNL     1      35.035   8.584   0.000  1.00  0.00     0.005 C 
ATOM     51  C   UNL     1      35.785   9.883   0.000  1.00  0.00     0.004 C 
ENDBRANCH  49  50
ENDBRANCH  48  49
ENDBRANCH  47  48
ENDBRANCH  46  47
ENDBRANCH  44  45
ENDBRANCH  43  44
ENDBRANCH  41  42
ENDBRANCH  40  41
ENDBRANCH  38  39
ENDBRANCH  37  38
ENDBRANCH  35  36
ENDBRANCH  34  35
ENDBRANCH  33  34
ENDBRANCH  31  33
ENDBRANCH  30  31
ENDBRANCH  26  30
ENDBRANCH  25  26
ENDBRANCH   1  25
TORSDOF 37
