REMARK SMILES C[C@H]1CC[C@@]2(OC1)O[C@H]1C[C@H]3[C@@H]4CC=C5C[C@@H](O[C@@H]6O[C@H](CO)[C@@H](O)[C@H](O[C@@H]7O[C@@H](C)[C@H](O)[C@@H](O)[C@H]7O)[C@H]6O[C@H]6C[C@H](C)[C@@H](O)[C@@H](O)[C@H]6O)CC[C@]5(C)[C@H]4CC[C@]3(C)[C@H]1[C@@H]2C
REMARK SMILES IDX 19 1 20 2 21 3 24 4 26 5 38 6 18 7 17 8 2 9 3 10 7 11 4 12
REMARK SMILES IDX 6 13 5 14 8 15 60 16 9 17 59 18 10 19 57 20 11 21 56 22
REMARK SMILES IDX 12 23 55 24 13 25 54 26 14 27 52 28 15 29 51 30 16 31 50 32
REMARK SMILES IDX 1 33 61 34 58 35 53 36 39 37 40 38 41 39 48 40 42 41 46 42
REMARK SMILES IDX 44 43 43 44 49 45 47 47 45 49 22 51 23 52 27 54 28 55 29 56
REMARK SMILES IDX 36 57 30 58 34 59 32 60 31 61 37 62 35 64 33 66 25 68
REMARK H PARENT 49 46 47 48 45 50 23 53 37 63 35 65 33 67 25 69
ROOT
ATOM      1  C   UNL     1      -2.945  -1.090   1.574  1.00  0.00     0.282 C 
ATOM      2  O   UNL     1      -2.521  -2.439   1.682  1.00  0.00    -0.341 OA
ATOM      3  C   UNL     1      -3.570  -3.259   2.175  1.00  0.00     0.178 C 
ATOM      4  C   UNL     1      -4.740  -3.303   1.159  1.00  0.00     0.177 C 
ATOM      5  C   UNL     1      -5.271  -1.869   0.912  1.00  0.00     0.187 C 
ATOM      6  C   UNL     1      -4.075  -0.967   0.516  1.00  0.00     0.206 C 
ENDROOT
BRANCH   1   7
ATOM      7  O   UNL     1      -1.824  -0.310   1.156  1.00  0.00    -0.346 OA
BRANCH   7   8
ATOM      8  C   UNL     1      -1.316   0.521   2.192  1.00  0.00     0.125 C 
ATOM      9  C   UNL     1      11.989   1.861  -1.836  1.00  0.00     0.012 C 
ATOM     10  C   UNL     1      11.350   0.509  -2.245  1.00  0.00     0.011 C 
ATOM     11  C   UNL     1      10.948   2.761  -1.124  1.00  0.00     0.167 C 
ATOM     12  C   UNL     1       9.864   0.720  -2.513  1.00  0.00     0.066 C 
ATOM     13  O   UNL     1      10.059   1.981  -0.349  1.00  0.00    -0.349 OA
ATOM     14  C   UNL     1       9.164   1.236  -1.199  1.00  0.00     0.171 C 
ATOM     15  O   UNL     1       8.072   2.063  -1.565  1.00  0.00    -0.346 OA
ATOM     16  C   UNL     1       8.518   0.072  -0.389  1.00  0.00     0.052 C 
ATOM     17  C   UNL     1       7.289   2.135  -0.399  1.00  0.00     0.126 C 
ATOM     18  C   UNL     1       7.340   0.766   0.300  1.00  0.00     0.033 C 
ATOM     19  C   UNL     1       5.811   2.449  -0.672  1.00  0.00     0.037 C 
ATOM     20  C   UNL     1       5.879   0.210   0.170  1.00  0.00    -0.024 C 
ATOM     21  C   UNL     1       5.114   1.536   0.332  1.00  0.00     0.002 C 
ATOM     22  C   UNL     1       5.415  -0.736   1.306  1.00  0.00     0.008 C 
ATOM     23  C   UNL     1       3.583   1.387   0.236  1.00  0.00     0.000 C 
ATOM     24  C   UNL     1       3.880  -0.976   1.233  1.00  0.00     0.005 C 
ATOM     25  C   UNL     1       2.930   2.761   0.460  1.00  0.00     0.031 C 
ATOM     26  C   UNL     1       3.071   0.365   1.298  1.00  0.00     0.003 C 
ATOM     27  C   UNL     1       1.484   2.703   0.846  1.00  0.00    -0.027 C 
ATOM     28  C   UNL     1       1.494   0.193   1.174  1.00  0.00    -0.008 C 
ATOM     29  C   UNL     1       0.820   1.575   1.179  1.00  0.00    -0.065 C 
ATOM     30  C   UNL     1       0.942  -0.716   2.343  1.00  0.00     0.014 C 
ATOM     31  C   UNL     1      -0.614   1.769   1.629  1.00  0.00     0.063 C 
ATOM     32  C   UNL     1      -0.307  -0.196   3.098  1.00  0.00     0.033 C 
ATOM     33  C   UNL     1      13.233   1.615  -0.980  1.00  0.00     0.010 C 
ATOM     34  C   UNL     1       9.414  -0.694   0.592  1.00  0.00     0.014 C 
ATOM     35  C   UNL     1       5.639  -0.484  -1.219  1.00  0.00     0.012 C 
ATOM     36  C   UNL     1       1.096  -0.466  -0.182  1.00  0.00     0.016 C 
ENDBRANCH   7   8
ENDBRANCH   1   7
BRANCH   6  37
ATOM     37  O   UNL     1      -4.518   0.387   0.450  1.00  0.00    -0.364 OA
BRANCH  37  38
ATOM     38  C   UNL     1      -4.519   0.943  -0.864  1.00  0.00     0.150 C 
ATOM     39  C   UNL     1      -5.970   1.314  -1.295  1.00  0.00     0.041 C 
ATOM     40  C   UNL     1      -3.538   2.166  -0.908  1.00  0.00     0.174 C 
ATOM     41  C   UNL     1      -6.282   2.786  -1.014  1.00  0.00     0.020 C 
ATOM     42  C   UNL     1      -3.925   3.059  -2.100  1.00  0.00     0.174 C 
ATOM     43  C   UNL     1      -5.350   3.682  -1.897  1.00  0.00     0.148 C 
ATOM     44  C   UNL     1      -7.756   3.124  -1.254  1.00  0.00     0.010 C 
BRANCH  40  45
ATOM     45  O   UNL     1      -3.614   2.948   0.261  1.00  0.00    -0.388 OA
ATOM     46  H   UNL     1      -3.388   2.377   1.037  1.00  0.00     0.211 HD
ENDBRANCH  40  45
BRANCH  42  47
ATOM     47  O   UNL     1      -2.963   4.040  -2.399  1.00  0.00    -0.388 OA
ATOM     48  H   UNL     1      -2.748   4.522  -1.557  1.00  0.00     0.211 HD
ENDBRANCH  42  47
BRANCH  43  49
ATOM     49  O   UNL     1      -5.301   4.986  -1.371  1.00  0.00    -0.390 OA
ATOM     50  H   UNL     1      -4.911   4.936  -0.461  1.00  0.00     0.211 HD
ENDBRANCH  43  49
ENDBRANCH  37  38
ENDBRANCH   6  37
BRANCH   3  51
ATOM     51  C   UNL     1      -3.009  -4.661   2.455  1.00  0.00     0.191 C 
BRANCH  51  52
ATOM     52  O   UNL     1      -2.485  -5.239   1.288  1.00  0.00    -0.394 OA
ATOM     53  H   UNL     1      -3.208  -5.792   0.890  1.00  0.00     0.210 HD
ENDBRANCH  51  52
ENDBRANCH   3  51
BRANCH   5  54
ATOM     54  O   UNL     1      -6.231  -1.838  -0.139  1.00  0.00    -0.341 OA
BRANCH  54  55
ATOM     55  C   UNL     1      -7.530  -2.274   0.252  1.00  0.00     0.282 C 
ATOM     56  O   UNL     1      -7.771  -3.557  -0.295  1.00  0.00    -0.344 OA
ATOM     57  C   UNL     1      -8.584  -1.247  -0.264  1.00  0.00     0.202 C 
ATOM     58  C   UNL     1      -9.031  -4.117   0.105  1.00  0.00     0.150 C 
ATOM     59  C   UNL     1      -9.993  -1.881  -0.404  1.00  0.00     0.179 C 
ATOM     60  C   UNL     1     -10.109  -3.074   0.553  1.00  0.00     0.174 C 
ATOM     61  C   UNL     1      -8.830  -5.193   1.171  1.00  0.00     0.041 C 
BRANCH  57  62
ATOM     62  O   UNL     1      -8.592  -0.123   0.584  1.00  0.00    -0.385 OA
ATOM     63  H   UNL     1      -8.893  -0.420   1.482  1.00  0.00     0.211 HD
ENDBRANCH  57  62
BRANCH  59  64
ATOM     64  O   UNL     1     -11.019  -0.929  -0.253  1.00  0.00    -0.387 OA
ATOM     65  H   UNL     1     -11.134  -0.757   0.718  1.00  0.00     0.211 HD
ENDBRANCH  59  64
BRANCH  60  66
ATOM     66  O   UNL     1     -11.396  -3.641   0.545  1.00  0.00    -0.388 OA
ATOM     67  H   UNL     1     -11.624  -3.866  -0.394  1.00  0.00     0.211 HD
ENDBRANCH  60  66
ENDBRANCH  54  55
ENDBRANCH   5  54
BRANCH   4  68
ATOM     68  O   UNL     1      -5.758  -4.158   1.613  1.00  0.00    -0.387 OA
ATOM     69  H   UNL     1      -6.058  -3.823   2.498  1.00  0.00     0.211 HD
ENDBRANCH   4  68
TORSDOF 15
