REMARK SMILES COc1c(O)cc2cc1Oc1ccc(cc1)CC[C@@H](O)/C=C\C=C/2
REMARK SMILES IDX 3 1 4 2 6 3 7 4 9 5 8 6 2 7 1 8 5 9 10 11 11 12 12 13 16 14
REMARK SMILES IDX 13 15 15 16 14 17 17 18 18 19 24 21 23 22 22 23 21 24 19 25
REMARK SMILES IDX 20 27
REMARK H PARENT 5 10 20 28
REMARK Flexibility Score:   35.900
ROOT
ATOM      1  C   UNL     1       3.494  -0.051  -0.201  1.00  0.00     0.203 A 
ATOM      2  C   UNL     1       3.805  -1.403   0.007  1.00  0.00     0.162 A 
ATOM      3  C   UNL     1       2.794  -2.357   0.113  1.00  0.00     0.058 A 
ATOM      4  C   UNL     1       1.425  -2.025   0.023  1.00  0.00    -0.018 A 
ATOM      5  C   UNL     1       2.137   0.327  -0.334  1.00  0.00     0.173 A 
ATOM      6  C   UNL     1       1.115  -0.684  -0.219  1.00  0.00     0.059 A 
ENDROOT
BRANCH   1   7
ATOM      7  O   UNL     1       4.535   0.829  -0.250  1.00  0.00    -0.490 OA
ATOM      8  C   UNL     1       4.487   2.207  -0.295  1.00  0.00     0.278 C 
ENDBRANCH   1   7
BRANCH   2   9
ATOM      9  O   UNL     1       5.087  -1.815   0.130  1.00  0.00    -0.504 OA
ATOM     10  H   UNL     1       5.844  -1.214   0.075  1.00  0.00     0.293 HD
ENDBRANCH   2   9
BRANCH   5  11
ATOM     11  O   UNL     1       1.829   1.646  -0.552  1.00  0.00    -0.453 OA
BRANCH  11  12
ATOM     12  C   UNL     1       0.548   2.032  -0.615  1.00  0.00     0.127 A 
ATOM     13  C   UNL     1      -0.185   1.768  -1.772  1.00  0.00     0.047 A 
ATOM     14  C   UNL     1      -0.072   2.513   0.541  1.00  0.00     0.047 A 
ATOM     15  C   UNL     1      -1.565   1.838  -1.729  1.00  0.00     0.007 A 
ATOM     16  C   UNL     1      -1.460   2.587   0.591  1.00  0.00     0.007 A 
ATOM     17  C   UNL     1      -2.204   2.169  -0.521  1.00  0.00    -0.048 A 
BRANCH  17  18
ATOM     18  C   UNL     1      -3.648   1.825  -0.376  1.00  0.00     0.038 C 
BRANCH  18  19
ATOM     19  C   UNL     1      -3.778   0.566   0.544  1.00  0.00     0.041 CG0
ATOM     20  G   UNL     1      -2.596  -0.481   0.417  1.00  0.00     0.000 G0
ENDBRANCH  18  19
ENDBRANCH  17  18
ENDBRANCH  11  12
ENDBRANCH   5  11
BRANCH   4  21
ATOM     21  C   UNL     1       0.461  -3.183   0.206  1.00  0.00     0.008 C 
ATOM     22  C   UNL     1      -0.856  -3.490   0.471  1.00  0.00     0.000 C 
BRANCH  22  23
ATOM     23  C   UNL     1      -2.263  -3.000   0.770  1.00  0.00    -0.002 C 
ATOM     24  C   UNL     1      -2.998  -1.864   0.792  1.00  0.00     0.004 C 
BRANCH  24  25
ATOM     25  C   UNL     1      -2.596  -0.481   0.417  1.00  0.00     0.137 CG0
ATOM     26  G   UNL     1      -3.778   0.566   0.544  1.00  0.00     0.000 G0
BRANCH  25  27
ATOM     27  O   UNL     1      -1.518  -0.093   1.228  1.00  0.00    -0.389 OA
ATOM     28  H   UNL     1      -1.816  -0.122   2.175  1.00  0.00     0.211 HD
ENDBRANCH  25  27
ENDBRANCH  24  25
ENDBRANCH  22  23
ENDBRANCH   4  21
TORSDOF 3
