REMARK SMILES C[C@](Cl)(/C=C/[C@H](Cl)[C@](C)(Cl)/C=C/Br)CBr
REMARK SMILES IDX 4 1 5 2 2 3 1 4 3 5 14 6 15 7 6 8 7 9 8 10 9 11 10 12 11 13
REMARK SMILES IDX 12 14 13 15
REMARK H PARENT
ROOT
ATOM      1  C   UNL     1       1.127  -0.425  -0.286  1.00  0.00    -0.006 C 
ATOM      2  C   UNL     1      -0.026   0.183  -0.614  1.00  0.00    -0.008 C 
ENDROOT
BRANCH   1   3
ATOM      3  C   UNL     1       2.272   0.318   0.376  1.00  0.00     0.069 C 
ATOM      4  C   UNL     1       3.398  -0.666   0.731  1.00  0.00     0.034 C 
ATOM      5  Cl  UNL     1       1.692   1.050   1.905  1.00  0.00    -0.114 Cl
BRANCH   3   6
ATOM      6  C   UNL     1       2.807   1.442  -0.540  1.00  0.00     0.107 C 
ATOM      7  Br  UNL     1       3.446   0.789  -2.260  1.00  0.00    -0.091 Br
ENDBRANCH   3   6
ENDBRANCH   1   3
BRANCH   2   8
ATOM      8  C   UNL     1      -1.161  -0.559  -1.277  1.00  0.00     0.128 C 
ATOM      9  Cl  UNL     1      -1.532   0.282  -2.812  1.00  0.00    -0.116 Cl
BRANCH   8  10
ATOM     10  C   UNL     1      -2.435  -0.717  -0.385  1.00  0.00     0.080 C 
ATOM     11  C   UNL     1      -2.115  -1.541   0.877  1.00  0.00     0.035 C 
ATOM     12  Cl  UNL     1      -3.641  -1.661  -1.323  1.00  0.00    -0.113 Cl
BRANCH  10  13
ATOM     13  C   UNL     1      -3.087   0.606   0.002  1.00  0.00     0.005 C 
ATOM     14  C   UNL     1      -2.542   1.500   0.838  1.00  0.00     0.049 C 
ATOM     15  Br  UNL     1      -3.470   3.115   1.266  1.00  0.00    -0.060 Br
ENDBRANCH  10  13
ENDBRANCH   8  10
ENDBRANCH   2   8
TORSDOF 5
