REMARK SMILES C=C[C@H]1[C@H](O[C@@H]2O[C@H](COC(C)=O)[C@@H](OC(C)=O)[C@H](OC(C)=O)[C@H]2OC(C)=O)OC=C2C(=O)N3Cc4cc5ccccc5nc4[C@H]3C[C@H]21
REMARK SMILES IDX 6 1 7 2 8 3 14 4 19 5 24 6 5 7 4 8 3 9 48 10 29 11 47 12
REMARK SMILES IDX 31 13 30 14 46 15 32 16 45 17 34 18 33 19 44 20 36 21 35 22
REMARK SMILES IDX 43 23 37 24 42 25 38 26 41 27 39 28 40 29 2 30 1 31 25 32
REMARK SMILES IDX 26 33 28 34 27 35 9 36 10 37 11 38 13 39 12 40 20 41 21 42
REMARK SMILES IDX 23 43 22 44 15 45 16 46 18 47 17 48
REMARK H PARENT
ROOT
ATOM      1  C   UNL     1      -2.094   0.768   0.249  1.00  0.00     0.300 C 
ATOM      2  O   UNL     1      -2.264   0.459  -1.127  1.00  0.00    -0.338 OA
ATOM      3  C   UNL     1      -3.305  -0.492  -1.319  1.00  0.00     0.204 C 
ATOM      4  C   UNL     1      -4.662   0.077  -0.813  1.00  0.00     0.253 C 
ATOM      5  C   UNL     1      -4.513   0.456   0.667  1.00  0.00     0.266 C 
ATOM      6  C   UNL     1      -3.358   1.458   0.785  1.00  0.00     0.277 C 
ENDROOT
BRANCH   1   7
ATOM      7  O   UNL     1      -0.998   1.659   0.382  1.00  0.00    -0.309 OA
BRANCH   7   8
ATOM      8  C   UNL     1       0.156   1.061   0.962  1.00  0.00     0.316 C 
ATOM      9  C   UNL     1       1.281   0.876  -0.112  1.00  0.00     0.088 C 
ATOM     10  C   UNL     1       2.695   1.165   0.503  1.00  0.00     0.043 C 
ATOM     11  O   UNL     1       0.583   1.833   2.034  1.00  0.00    -0.471 OA
ATOM     12  C   UNL     1       3.898   0.499  -0.226  1.00  0.00     0.041 C 
ATOM     13  C   UNL     1       2.747   0.989   2.018  1.00  0.00     0.056 C 
ATOM     14  C   UNL     1       1.686   1.422   2.717  1.00  0.00     0.200 C 
ATOM     15  C   UNL     1       5.163   0.844   0.550  1.00  0.00     0.136 C 
ATOM     16  C   UNL     1       3.969   0.423   2.652  1.00  0.00     0.254 C 
ATOM     17  C   UNL     1       6.420   0.265   0.031  1.00  0.00     0.069 A 
ATOM     18  N   UNL     1       5.078   0.269   1.881  1.00  0.00    -0.326 N 
ATOM     19  O   UNL     1       3.950   0.029   3.810  1.00  0.00    -0.269 OA
ATOM     20  N   UNL     1       6.957   0.451  -1.200  1.00  0.00    -0.250 NA
ATOM     21  C   UNL     1       7.046  -0.493   0.993  1.00  0.00    -0.004 A 
ATOM     22  C   UNL     1       6.244  -0.515   2.247  1.00  0.00     0.158 C 
ATOM     23  C   UNL     1       8.143  -0.143  -1.518  1.00  0.00     0.071 A 
ATOM     24  C   UNL     1       8.261  -1.119   0.721  1.00  0.00     0.018 A 
ATOM     25  C   UNL     1       8.695   0.037  -2.791  1.00  0.00     0.029 A 
ATOM     26  C   UNL     1       8.824  -0.947  -0.558  1.00  0.00     0.001 A 
ATOM     27  C   UNL     1       9.909  -0.573  -3.119  1.00  0.00     0.002 A 
ATOM     28  C   UNL     1      10.040  -1.553  -0.903  1.00  0.00     0.010 A 
ATOM     29  C   UNL     1      10.578  -1.365  -2.180  1.00  0.00     0.001 A 
BRANCH   9  30
ATOM     30  C   UNL     1       1.217  -0.436  -0.900  1.00  0.00    -0.024 C 
ATOM     31  C   UNL     1       0.406  -1.483  -0.686  1.00  0.00     0.004 C 
ENDBRANCH   9  30
ENDBRANCH   7   8
ENDBRANCH   1   7
BRANCH   6  32
ATOM     32  O   UNL     1      -3.175   1.829   2.108  1.00  0.00    -0.453 OA
BRANCH  32  33
ATOM     33  C   UNL     1      -3.264   3.106   2.574  1.00  0.00     0.303 C 
ATOM     34  O   UNL     1      -3.558   4.033   1.831  1.00  0.00    -0.253 OA
ATOM     35  C   UNL     1      -2.998   3.391   4.014  1.00  0.00     0.139 C 
ENDBRANCH  32  33
ENDBRANCH   6  32
BRANCH   3  36
ATOM     36  C   UNL     1      -3.358  -0.829  -2.816  1.00  0.00     0.269 C 
BRANCH  36  37
ATOM     37  O   UNL     1      -4.280  -1.828  -3.056  1.00  0.00    -0.463 OA
BRANCH  37  38
ATOM     38  C   UNL     1      -4.559  -2.325  -4.287  1.00  0.00     0.302 C 
ATOM     39  O   UNL     1      -4.004  -1.884  -5.284  1.00  0.00    -0.253 OA
ATOM     40  C   UNL     1      -5.563  -3.423  -4.427  1.00  0.00     0.139 C 
ENDBRANCH  37  38
ENDBRANCH  36  37
ENDBRANCH   3  36
BRANCH   5  41
ATOM     41  O   UNL     1      -5.686   1.011   1.154  1.00  0.00    -0.454 OA
BRANCH  41  42
ATOM     42  C   UNL     1      -6.403   0.506   2.198  1.00  0.00     0.303 C 
ATOM     43  O   UNL     1      -6.056  -0.518   2.769  1.00  0.00    -0.253 OA
ATOM     44  C   UNL     1      -7.632   1.211   2.667  1.00  0.00     0.139 C 
ENDBRANCH  41  42
ENDBRANCH   5  41
BRANCH   4  45
ATOM     45  O   UNL     1      -5.672  -0.866  -0.943  1.00  0.00    -0.455 OA
BRANCH  45  46
ATOM     46  C   UNL     1      -6.819  -0.692  -1.655  1.00  0.00     0.303 C 
ATOM     47  O   UNL     1      -7.058   0.362  -2.228  1.00  0.00    -0.253 OA
ATOM     48  C   UNL     1      -7.809  -1.807  -1.740  1.00  0.00     0.139 C 
ENDBRANCH  45  46
ENDBRANCH   4  45
TORSDOF 12
