REMARK SMILES C[C]CCCCCCCCC[C]CCC(=O)OC[C@H](COCCCCCCCCCC[C]CC[C]CCCC)OC(=O)CCCCCCC/C=C\CCCCCC
REMARK SMILES IDX 20 1 19 2 40 3 41 4 42 5 43 6 44 7 45 8 46 9 47 10 48 11
REMARK SMILES IDX 49 12 50 13 51 14 52 15 53 16 54 17 55 18 56 19 57 20 18 21
REMARK SMILES IDX 17 22 15 23 16 24 14 25 13 26 12 27 11 28 10 29 9 30 8 31
REMARK SMILES IDX 7 32 6 33 5 34 4 35 3 36 2 37 1 38 21 39 22 40 23 41 24 42
REMARK SMILES IDX 25 43 26 44 27 45 28 46 29 47 30 48 31 49 32 50 33 51 34 52
REMARK SMILES IDX 35 53 36 54 37 55 38 56 39 57
REMARK H PARENT
ROOT
ATOM      1  C   UNL     1       9.428 -12.498   0.830  1.00  0.00     0.209 C 
ENDROOT
BRANCH   1   2
ATOM      2  C   UNL     1       8.071 -12.820   0.167  1.00  0.00     0.239 C 
BRANCH   2   3
ATOM      3  O   UNL     1       7.046 -11.831   0.545  1.00  0.00    -0.456 OA
BRANCH   3   4
ATOM      4  C   UNL     1       6.991 -10.436   0.184  1.00  0.00     0.306 C 
ATOM      5  O   UNL     1       7.861 -10.024  -0.569  1.00  0.00    -0.252 OA
BRANCH   4   6
ATOM      6  C   UNL     1       5.871  -9.321   0.638  1.00  0.00     0.123 C 
BRANCH   6   7
ATOM      7  C   UNL     1       6.000  -7.794   0.000  1.00  0.00     0.012 C 
BRANCH   7   8
ATOM      8  C   UNL     1       5.250  -6.495   0.000  1.00  0.00     0.001 C 
BRANCH   8   9
ATOM      9  C   UNL     1       4.500  -5.196   0.000  1.00  0.00     0.000 C 
BRANCH   9  10
ATOM     10  C   UNL     1       4.444  -3.691   0.332  1.00  0.00     0.000 C 
BRANCH  10  11
ATOM     11  C   UNL     1       2.921  -3.199   0.183  1.00  0.00     0.004 C 
BRANCH  11  12
ATOM     12  C   UNL     1       2.768  -1.697   0.438  1.00  0.00     0.027 C 
BRANCH  12  13
ATOM     13  C   UNL     1       1.458  -0.871   0.394  1.00  0.00    -0.031 C 
ATOM     14  C   UNL     1       0.077  -0.867   0.276  1.00  0.00    -0.031 C 
BRANCH  14  15
ATOM     15  C   UNL     1      -1.233  -1.681   0.119  1.00  0.00     0.027 C 
BRANCH  15  16
ATOM     16  C   UNL     1      -1.387  -3.205   0.081  1.00  0.00     0.004 C 
BRANCH  16  17
ATOM     17  C   UNL     1      -2.931  -3.654   0.016  1.00  0.00     0.000 C 
BRANCH  17  18
ATOM     18  C   UNL     1      -3.000  -5.196   0.000  1.00  0.00    -0.000 C 
BRANCH  18  19
ATOM     19  C   UNL     1      -3.750  -6.495   0.000  1.00  0.00    -0.003 C 
ATOM     20  C   UNL     1      -4.500  -7.794   0.000  1.00  0.00     0.004 C 
ENDBRANCH  18  19
ENDBRANCH  17  18
ENDBRANCH  16  17
ENDBRANCH  15  16
ENDBRANCH  14  15
ENDBRANCH  12  13
ENDBRANCH  11  12
ENDBRANCH  10  11
ENDBRANCH   9  10
ENDBRANCH   8   9
ENDBRANCH   7   8
ENDBRANCH   6   7
ENDBRANCH   4   6
ENDBRANCH   3   4
ENDBRANCH   2   3
BRANCH   2  21
ATOM     21  C   UNL     1       7.778 -14.437   0.423  1.00  0.00     0.280 C 
BRANCH  21  22
ATOM     22  O   UNL     1       8.831 -15.406   0.093  1.00  0.00    -0.462 OA
BRANCH  22  23
ATOM     23  C   UNL     1       8.788 -16.838   0.153  1.00  0.00     0.305 C 
ATOM     24  O   UNL     1       7.705 -17.357   0.376  1.00  0.00    -0.252 OA
BRANCH  23  25
ATOM     25  C   UNL     1      10.050 -17.862  -0.047  1.00  0.00     0.123 C 
BRANCH  25  26
ATOM     26  C   UNL     1       9.750 -19.486   0.000  1.00  0.00     0.020 C 
BRANCH  26  27
ATOM     27  C   UNL     1      10.500 -20.785   0.000  1.00  0.00    -0.017 C 
BRANCH  27  28
ATOM     28  C   UNL     1      11.250 -22.084   0.000  1.00  0.00     0.008 C 
BRANCH  28  29
ATOM     29  C   UNL     1      11.821 -23.602  -0.441  1.00  0.00     0.001 C 
BRANCH  29  30
ATOM     30  C   UNL     1      12.972 -24.459   0.477  1.00  0.00     0.000 C 
BRANCH  30  31
ATOM     31  C   UNL     1      13.500 -25.981   0.000  1.00  0.00     0.000 C 
BRANCH  31  32
ATOM     32  C   UNL     1      14.250 -27.280   0.000  1.00  0.00     0.000 C 
BRANCH  32  33
ATOM     33  C   UNL     1      15.000 -28.579   0.000  1.00  0.00     0.000 C 
BRANCH  33  34
ATOM     34  C   UNL     1      15.315 -30.229   0.025  1.00  0.00     0.000 C 
BRANCH  34  35
ATOM     35  C   UNL     1      16.905 -30.831  -0.029  1.00  0.00     0.001 C 
BRANCH  35  36
ATOM     36  C   UNL     1      17.250 -32.476   0.000  1.00  0.00     0.008 C 
BRANCH  36  37
ATOM     37  C   UNL     1      18.000 -33.775   0.000  1.00  0.00    -0.021 C 
ATOM     38  C   UNL     1      18.750 -35.074   0.000  1.00  0.00     0.012 C 
ENDBRANCH  36  37
ENDBRANCH  35  36
ENDBRANCH  34  35
ENDBRANCH  33  34
ENDBRANCH  32  33
ENDBRANCH  31  32
ENDBRANCH  30  31
ENDBRANCH  29  30
ENDBRANCH  28  29
ENDBRANCH  27  28
ENDBRANCH  26  27
ENDBRANCH  25  26
ENDBRANCH  23  25
ENDBRANCH  22  23
ENDBRANCH  21  22
ENDBRANCH   2  21
ENDBRANCH   1   2
BRANCH   1  39
ATOM     39  O   UNL     1      10.370 -13.321   0.186  1.00  0.00    -0.377 OA
BRANCH  39  40
ATOM     40  C   UNL     1      11.579 -13.546   0.881  1.00  0.00     0.160 C 
BRANCH  40  41
ATOM     41  C   UNL     1      12.696 -12.990   0.000  1.00  0.00     0.028 C 
BRANCH  41  42
ATOM     42  C   UNL     1      13.995 -13.740   0.000  1.00  0.00     0.002 C 
BRANCH  42  43
ATOM     43  C   UNL     1      15.294 -14.490   0.000  1.00  0.00     0.000 C 
BRANCH  43  44
ATOM     44  C   UNL     1      16.593 -15.240   0.000  1.00  0.00     0.000 C 
BRANCH  44  45
ATOM     45  C   UNL     1      17.892 -15.990   0.000  1.00  0.00     0.000 C 
BRANCH  45  46
ATOM     46  C   UNL     1      19.191 -16.740   0.000  1.00  0.00     0.000 C 
BRANCH  46  47
ATOM     47  C   UNL     1      20.791 -17.142  -0.320  1.00  0.00     0.000 C 
BRANCH  47  48
ATOM     48  C   UNL     1      21.490 -18.565   0.298  1.00  0.00     0.001 C 
BRANCH  48  49
ATOM     49  C   UNL     1      23.088 -18.990   0.000  1.00  0.00     0.008 C 
BRANCH  49  50
ATOM     50  C   UNL     1      24.387 -19.740   0.000  1.00  0.00    -0.017 C 
BRANCH  50  51
ATOM     51  C   UNL     1      25.686 -20.490   0.000  1.00  0.00     0.009 C 
BRANCH  51  52
ATOM     52  C   UNL     1      26.986 -21.240   0.000  1.00  0.00     0.009 C 
BRANCH  52  53
ATOM     53  C   UNL     1      28.285 -21.990   0.000  1.00  0.00    -0.017 C 
BRANCH  53  54
ATOM     54  C   UNL     1      29.584 -22.740   0.000  1.00  0.00     0.008 C 
BRANCH  54  55
ATOM     55  C   UNL     1      31.306 -22.760  -0.012  1.00  0.00     0.000 C 
BRANCH  55  56
ATOM     56  C   UNL     1      32.182 -24.240   0.000  1.00  0.00    -0.003 C 
ATOM     57  C   UNL     1      33.481 -24.990   0.000  1.00  0.00     0.004 C 
ENDBRANCH  55  56
ENDBRANCH  54  55
ENDBRANCH  53  54
ENDBRANCH  52  53
ENDBRANCH  51  52
ENDBRANCH  50  51
ENDBRANCH  49  50
ENDBRANCH  48  49
ENDBRANCH  47  48
ENDBRANCH  46  47
ENDBRANCH  45  46
ENDBRANCH  44  45
ENDBRANCH  43  44
ENDBRANCH  42  43
ENDBRANCH  41  42
ENDBRANCH  40  41
ENDBRANCH  39  40
ENDBRANCH   1  39
TORSDOF 50
