REMARK SMILES C[C@H]1CC[C@@]2(OC1)O[C@H]1C[C@H]3[C@@H]4CC[C@@H]5[C@@H](O)[C@H](O)[C@@H](O)[C@@H](O[C@@H]6OC[C@H](O)[C@H](O)[C@H]6O)[C@]5(C)[C@H]4CC[C@]3(C)[C@H]1[C@@H]2C
REMARK SMILES IDX 23 1 22 2 2 3 3 4 7 5 4 6 6 7 5 8 8 9 41 10 9 11 40 12 10 13
REMARK SMILES IDX 38 14 11 15 37 16 12 17 36 18 13 19 35 20 14 21 33 22 15 23
REMARK SMILES IDX 16 24 20 25 18 26 1 27 42 28 39 29 34 30 17 31 21 33 19 35
REMARK SMILES IDX 24 37 25 38 31 39 26 40 29 41 27 42 32 43 30 45 28 47
REMARK H PARENT 17 32 21 34 19 36 32 44 30 46 28 48
ROOT
ATOM      1  O   UNL     1      -4.694   0.584   0.225  1.00  0.00    -0.343 OA
ENDROOT
BRANCH   1   2
ATOM      2  C   UNL     1      -3.341   0.933  -0.074  1.00  0.00     0.159 C 
ATOM      3  C   UNL     1       8.548  -0.799   0.400  1.00  0.00     0.012 C 
ATOM      4  C   UNL     1       7.614  -1.293   1.531  1.00  0.00     0.011 C 
ATOM      5  C   UNL     1       7.784   0.117  -0.594  1.00  0.00     0.167 C 
ATOM      6  C   UNL     1       6.458  -0.317   1.691  1.00  0.00     0.066 C 
ATOM      7  O   UNL     1       6.466  -0.338  -0.833  1.00  0.00    -0.349 OA
ATOM      8  C   UNL     1       5.646  -0.328   0.353  1.00  0.00     0.171 C 
ATOM      9  O   UNL     1       4.860  -1.514   0.313  1.00  0.00    -0.346 OA
ATOM     10  C   UNL     1       4.628   0.839   0.350  1.00  0.00     0.052 C 
ATOM     11  C   UNL     1       3.838  -1.215  -0.615  1.00  0.00     0.126 C 
ATOM     12  C   UNL     1       3.439   0.245  -0.381  1.00  0.00     0.033 C 
ATOM     13  C   UNL     1       2.549  -2.054  -0.439  1.00  0.00     0.037 C 
ATOM     14  C   UNL     1       2.063   0.149   0.341  1.00  0.00    -0.024 C 
ATOM     15  C   UNL     1       1.454  -0.984  -0.506  1.00  0.00     0.001 C 
ATOM     16  C   UNL     1       1.195   1.413   0.194  1.00  0.00     0.008 C 
ATOM     17  C   UNL     1       0.005  -1.338  -0.101  1.00  0.00    -0.004 C 
ATOM     18  C   UNL     1      -0.261   1.133   0.626  1.00  0.00     0.005 C 
ATOM     19  C   UNL     1      -0.550  -2.443  -1.027  1.00  0.00     0.004 C 
ATOM     20  C   UNL     1      -0.875  -0.034  -0.204  1.00  0.00     0.001 C 
ATOM     21  C   UNL     1      -2.031  -2.732  -0.743  1.00  0.00     0.007 C 
ATOM     22  C   UNL     1      -2.406  -0.329   0.114  1.00  0.00     0.005 C 
ATOM     23  C   UNL     1      -2.907  -1.457  -0.866  1.00  0.00     0.029 C 
ATOM     24  C   UNL     1      -2.978  -0.955  -2.353  1.00  0.00     0.149 C 
ATOM     25  C   UNL     1      -3.310   1.445  -1.533  1.00  0.00     0.175 C 
ATOM     26  C   UNL     1      -3.814   0.339  -2.496  1.00  0.00     0.174 C 
ATOM     27  C   UNL     1       9.748  -0.023   0.962  1.00  0.00     0.010 C 
ATOM     28  C   UNL     1       5.116   2.163  -0.250  1.00  0.00     0.014 C 
ATOM     29  C   UNL     1       2.192  -0.218   1.867  1.00  0.00     0.012 C 
ATOM     30  C   UNL     1      -2.560  -0.792   1.595  1.00  0.00     0.015 C 
BRANCH  24  31
ATOM     31  O   UNL     1      -3.490  -1.958  -3.194  1.00  0.00    -0.390 OA
ATOM     32  H   UNL     1      -4.415  -2.157  -2.894  1.00  0.00     0.211 HD
ENDBRANCH  24  31
BRANCH  25  33
ATOM     33  O   UNL     1      -4.065   2.626  -1.660  1.00  0.00    -0.388 OA
ATOM     34  H   UNL     1      -5.023   2.381  -1.706  1.00  0.00     0.211 HD
ENDBRANCH  25  33
BRANCH  26  35
ATOM     35  O   UNL     1      -3.803   0.791  -3.828  1.00  0.00    -0.388 OA
ATOM     36  H   UNL     1      -2.868   1.044  -4.051  1.00  0.00     0.211 HD
ENDBRANCH  26  35
ENDBRANCH   1   2
BRANCH   1  37
ATOM     37  C   UNL     1      -5.245   1.175   1.397  1.00  0.00     0.281 C 
ATOM     38  O   UNL     1      -5.605   0.147   2.325  1.00  0.00    -0.347 OA
ATOM     39  C   UNL     1      -6.443   2.085   1.032  1.00  0.00     0.202 C 
ATOM     40  C   UNL     1      -6.900  -0.438   2.148  1.00  0.00     0.198 C 
ATOM     41  C   UNL     1      -7.644   1.268   0.466  1.00  0.00     0.179 C 
ATOM     42  C   UNL     1      -7.521  -0.247   0.754  1.00  0.00     0.171 C 
BRANCH  39  43
ATOM     43  O   UNL     1      -6.839   2.825   2.166  1.00  0.00    -0.385 OA
ATOM     44  H   UNL     1      -7.131   2.196   2.873  1.00  0.00     0.211 HD
ENDBRANCH  39  43
BRANCH  41  45
ATOM     45  O   UNL     1      -7.869   1.509  -0.899  1.00  0.00    -0.387 OA
ATOM     46  H   UNL     1      -7.028   1.303  -1.383  1.00  0.00     0.211 HD
ENDBRANCH  41  45
BRANCH  42  47
ATOM     47  O   UNL     1      -6.709  -0.899  -0.190  1.00  0.00    -0.388 OA
ATOM     48  H   UNL     1      -7.277  -1.102  -0.979  1.00  0.00     0.211 HD
ENDBRANCH  42  47
ENDBRANCH   1  37
TORSDOF 8
