REMARK SMILES CSC[C@@H]1O[C@H](n2cnc3c(=O)[nH]cnc32)[C@@H](O)[C@@H]1O
REMARK SMILES IDX 4 1 5 2 6 3 17 4 19 5 3 6 2 7 1 8 20 9 7 11 8 12 16 13 9 14
REMARK SMILES IDX 10 15 15 16 11 17 14 18 13 19 12 20 18 22
REMARK H PARENT 20 10 13 21 18 23
ROOT
ATOM      1  C   UNL     1       1.800   0.056   0.393  1.00  0.00     0.162 C 
ATOM      2  O   UNL     1       0.553  -0.352   0.953  1.00  0.00    -0.348 OA
ATOM      3  C   UNL     1      -0.242   0.815   1.101  1.00  0.00     0.253 C 
ATOM      4  C   UNL     1       0.321   1.847   0.129  1.00  0.00     0.195 C 
ATOM      5  C   UNL     1       1.784   1.596   0.364  1.00  0.00     0.177 C 
ENDROOT
BRANCH   1   6
ATOM      6  C   UNL     1       1.957  -0.643  -0.976  1.00  0.00     0.104 C 
BRANCH   6   7
ATOM      7  S   UNL     1       3.565  -0.321  -1.802  1.00  0.00    -0.163 SA
ATOM      8  C   UNL     1       4.621  -1.190  -0.595  1.00  0.00     0.085 C 
ENDBRANCH   6   7
ENDBRANCH   1   6
BRANCH   5   9
ATOM      9  O   UNL     1       2.659   2.204  -0.553  1.00  0.00    -0.387 OA
ATOM     10  H   UNL     1       2.217   2.219  -1.442  1.00  0.00     0.211 HD
ENDBRANCH   5   9
BRANCH   3  11
ATOM     11  N   UNL     1      -1.663   0.561   0.836  1.00  0.00    -0.285 N 
ATOM     12  C   UNL     1      -2.676   1.452   0.995  1.00  0.00     0.204 A 
ATOM     13  C   UNL     1      -2.270  -0.556   0.404  1.00  0.00     0.169 A 
ATOM     14  N   UNL     1      -3.890   0.929   0.678  1.00  0.00    -0.229 NA
ATOM     15  C   UNL     1      -3.602  -0.332   0.309  1.00  0.00     0.173 A 
ATOM     16  N   UNL     1      -1.707  -1.746   0.085  1.00  0.00    -0.218 NA
ATOM     17  C   UNL     1      -4.448  -1.340  -0.126  1.00  0.00     0.278 A 
ATOM     18  C   UNL     1      -2.527  -2.752  -0.349  1.00  0.00     0.202 A 
ATOM     19  N   UNL     1      -3.882  -2.554  -0.453  1.00  0.00    -0.311 N 
ATOM     20  O   UNL     1      -5.650  -1.161  -0.218  1.00  0.00    -0.267 OA
ATOM     21  H   UNL     1      -4.489  -3.337  -0.787  1.00  0.00     0.171 HD
ENDBRANCH   3  11
BRANCH   4  22
ATOM     22  O   UNL     1      -0.082   3.170   0.380  1.00  0.00    -0.386 OA
ATOM     23  H   UNL     1       0.112   3.372   1.333  1.00  0.00     0.211 HD
ENDBRANCH   4  22
TORSDOF 5
