REMARK SMILES COc1ccc(C[C@H]2/C(O)=N\[C@@H](C)C(=O)N(C)[C@H]3Cc4ccc(cc4)Oc4cc(ccc4O[C@@H]4O[C@H](CO)[C@@H](O)[C@H](O)[C@H]4O)C[C@@H](/C(O)=N\[C@H](C)/C(O)=N\[C@@H](C)C(=O)N2C)N(C)C3=O)cc1
REMARK SMILES IDX 18 1 16 2 17 3 14 4 15 5 12 6 13 7 11 8 9 9 8 10 7 11 6 12
REMARK SMILES IDX 3 13 4 14 66 15 5 16 65 17 2 18 1 19 59 20 60 21 57 22 58 23
REMARK SMILES IDX 10 25 19 27 20 28 21 29 25 30 22 31 24 32 23 33 26 34 27 35
REMARK SMILES IDX 28 36 32 37 29 38 31 39 30 40 33 41 34 42 35 43 43 44 36 45
REMARK SMILES IDX 41 46 39 47 44 48 37 50 38 51 42 53 40 55 45 57 63 59 64 60
REMARK SMILES IDX 61 61 62 62 46 63 47 65 49 66 48 67 50 69 51 70 52 71 54 72
REMARK SMILES IDX 53 73 55 75 56 76
REMARK H PARENT 10 26 44 49 38 52 42 54 40 56 48 68 53 74
REMARK Flexibility Score:  279.800
ROOT
ATOM      1  C   UNL     1       1.079  -2.286   0.131  1.00  0.00     0.178 C 
ENDROOT
BRANCH   1   2
ATOM      2  N   UNL     1       2.520  -2.057   0.239  1.00  0.00    -0.332 N 
ATOM      3  C   UNL     1       3.385  -2.951  -0.537  1.00  0.00     0.147 C 
BRANCH   2   4
ATOM      4  C   UNL     1       3.006  -1.054   1.045  1.00  0.00     0.247 C 
ATOM      5  O   UNL     1       2.215  -0.294   1.589  1.00  0.00    -0.272 OA
BRANCH   4   6
ATOM      6  C   UNL     1       4.488  -0.815   1.292  1.00  0.00     0.195 C 
ATOM      7  C   UNL     1       5.089  -1.882   2.215  1.00  0.00     0.044 C 
BRANCH   6   8
ATOM      8  N   UNL     1       4.656   0.496   1.906  1.00  0.00    -0.241 NA
ATOM      9  C   UNL     1       5.039   1.610   1.355  1.00  0.00     0.205 C 
BRANCH   9  10
ATOM     10  C   UNL     1       5.421   1.738  -0.134  1.00  0.00     0.175 C 
BRANCH  10  11
ATOM     11  C   UNL     1       6.895   2.174  -0.282  1.00  0.00     0.070 C 
BRANCH  11  12
ATOM     12  C   UNL     1       7.805   1.079   0.230  1.00  0.00    -0.045 A 
ATOM     13  C   UNL     1       9.426  -1.030   1.167  1.00  0.00     0.118 A 
ATOM     14  C   UNL     1       9.063   0.022   2.020  1.00  0.00     0.046 A 
ATOM     15  C   UNL     1       8.968  -1.020  -0.165  1.00  0.00     0.046 A 
ATOM     16  C   UNL     1       8.260   1.071   1.557  1.00  0.00     0.007 A 
ATOM     17  C   UNL     1       8.162   0.023  -0.624  1.00  0.00     0.007 A 
BRANCH  13  18
ATOM     18  O   UNL     1      10.207  -2.026   1.662  1.00  0.00    -0.497 OA
ATOM     19  C   UNL     1      10.657  -3.120   0.952  1.00  0.00     0.278 C 
ENDBRANCH  13  18
ENDBRANCH  11  12
ENDBRANCH  10  11
BRANCH  10  20
ATOM     20  N   UNL     1       4.484   2.580  -0.928  1.00  0.00    -0.332 N 
ATOM     21  C   UNL     1       4.517   4.027  -0.724  1.00  0.00     0.147 C 
BRANCH  20  22
ATOM     22  C   UNL     1       3.659   1.950  -1.863  1.00  0.00     0.247 CG1
ATOM     23  O   UNL     1       3.671   0.726  -1.930  1.00  0.00    -0.272 OA
ATOM     24  G   UNL     1       2.764   2.580  -2.948  1.00  0.00     0.000 G1
ENDBRANCH  20  22
ENDBRANCH  10  20
ENDBRANCH   9  10
BRANCH   9  25
ATOM     25  O   UNL     1       5.135   2.680   2.171  1.00  0.00    -0.495 OA
ATOM     26  H   UNL     1       5.506   3.528   1.898  1.00  0.00     0.295 HD
ENDBRANCH   9  25
ENDBRANCH   6   8
ENDBRANCH   4   6
ENDBRANCH   2   4
ENDBRANCH   1   2
BRANCH   1  27
ATOM     27  C   UNL     1       0.610  -2.886   1.520  1.00  0.00     0.070 C 
BRANCH  27  28
ATOM     28  C   UNL     1      -0.808  -3.360   1.496  1.00  0.00    -0.045 A 
ATOM     29  C   UNL     1      -1.713  -2.836   2.433  1.00  0.00     0.007 A 
ATOM     30  C   UNL     1      -1.260  -4.188   0.453  1.00  0.00     0.007 A 
ATOM     31  C   UNL     1      -3.070  -2.902   2.160  1.00  0.00     0.047 A 
ATOM     32  C   UNL     1      -2.619  -4.269   0.195  1.00  0.00     0.047 A 
ATOM     33  C   UNL     1      -3.495  -3.515   0.987  1.00  0.00     0.127 A 
BRANCH  33  34
ATOM     34  O   UNL     1      -4.674  -3.126   0.484  1.00  0.00    -0.453 OA
BRANCH  34  35
ATOM     35  C   UNL     1      -4.664  -2.055  -0.388  1.00  0.00     0.169 A 
ATOM     36  C   UNL     1      -3.473  -1.607  -1.050  1.00  0.00     0.055 A 
ATOM     37  C   UNL     1      -5.840  -1.335  -0.582  1.00  0.00     0.165 A 
ATOM     38  C   UNL     1      -3.465  -0.504  -1.896  1.00  0.00    -0.041 A 
ATOM     39  C   UNL     1      -5.861  -0.271  -1.506  1.00  0.00     0.051 A 
ATOM     40  C   UNL     1      -4.686   0.128  -2.172  1.00  0.00     0.008 A 
BRANCH  37  41
ATOM     41  O   UNL     1      -6.896  -1.686   0.200  1.00  0.00    -0.458 OA
BRANCH  41  42
ATOM     42  C   UNL     1      -8.229  -1.348   0.120  1.00  0.00     0.339 C 
ATOM     43  O   UNL     1      -8.392   0.062  -0.054  1.00  0.00    -0.332 OA
ATOM     44  C   UNL     1      -8.938  -1.864   1.434  1.00  0.00     0.214 C 
ATOM     45  C   UNL     1      -9.767   0.376   0.030  1.00  0.00     0.179 C 
ATOM     46  C   UNL     1      -9.389  -0.678   2.333  1.00  0.00     0.180 C 
ATOM     47  C   UNL     1     -10.189   0.393   1.524  1.00  0.00     0.177 C 
BRANCH  44  48
ATOM     48  O   UNL     1     -10.006  -2.729   1.153  1.00  0.00    -0.384 OA
ATOM     49  H   UNL     1     -10.579  -2.323   0.460  1.00  0.00     0.211 HD
ENDBRANCH  44  48
BRANCH  45  50
ATOM     50  C   UNL     1     -10.072   1.687  -0.700  1.00  0.00     0.191 C 
BRANCH  50  51
ATOM     51  O   UNL     1     -11.449   1.956  -0.688  1.00  0.00    -0.394 OA
ATOM     52  H   UNL     1     -11.877   1.270  -1.266  1.00  0.00     0.210 HD
ENDBRANCH  50  51
ENDBRANCH  45  50
BRANCH  46  53
ATOM     53  O   UNL     1      -8.254  -0.093   2.935  1.00  0.00    -0.387 OA
ATOM     54  H   UNL     1      -7.737   0.407   2.255  1.00  0.00     0.211 HD
ENDBRANCH  46  53
BRANCH  47  55
ATOM     55  O   UNL     1     -11.582   0.236   1.650  1.00  0.00    -0.387 OA
ATOM     56  H   UNL     1     -11.826  -0.653   1.288  1.00  0.00     0.211 HD
ENDBRANCH  47  55
ENDBRANCH  41  42
ENDBRANCH  37  41
BRANCH  38  57
ATOM     57  C   UNL     1      -2.147  -0.009  -2.505  1.00  0.00     0.070 CG0
ATOM     58  G   UNL     1      -1.105   0.680  -1.530  1.00  0.00     0.000 G0
ENDBRANCH  38  57
ENDBRANCH  34  35
ENDBRANCH  33  34
ENDBRANCH  27  28
ENDBRANCH   1  27
BRANCH   1  59
ATOM     59  C   UNL     1       0.432  -1.139  -0.743  1.00  0.00     0.246 C 
ATOM     60  O   UNL     1       0.925  -1.079  -1.868  1.00  0.00    -0.272 OA
BRANCH  59  61
ATOM     61  N   UNL     1      -0.586  -0.223  -0.459  1.00  0.00    -0.332 N 
ATOM     62  C   UNL     1      -1.212  -0.155   0.841  1.00  0.00     0.147 C 
BRANCH  61  63
ATOM     63  C   UNL     1      -1.105   0.680  -1.530  1.00  0.00     0.175 CG0
ATOM     64  G   UNL     1      -2.147  -0.009  -2.505  1.00  0.00     0.000 G0
BRANCH  63  65
ATOM     65  C   UNL     1      -1.556   2.088  -1.045  1.00  0.00     0.205 C 
ATOM     66  N   UNL     1      -0.748   3.058  -0.791  1.00  0.00    -0.241 NA
BRANCH  65  67
ATOM     67  O   UNL     1      -2.856   2.374  -0.827  1.00  0.00    -0.495 OA
ATOM     68  H   UNL     1      -3.549   1.727  -0.744  1.00  0.00     0.295 HD
ENDBRANCH  65  67
BRANCH  66  69
ATOM     69  C   UNL     1       0.697   3.085  -0.780  1.00  0.00     0.191 C 
ATOM     70  C   UNL     1       1.095   3.529   0.625  1.00  0.00     0.044 C 
BRANCH  69  71
ATOM     71  C   UNL     1       1.212   4.106  -1.782  1.00  0.00     0.206 C 
ATOM     72  N   UNL     1       2.107   3.842  -2.675  1.00  0.00    -0.241 NA
BRANCH  71  73
ATOM     73  O   UNL     1       0.721   5.367  -1.759  1.00  0.00    -0.495 OA
ATOM     74  H   UNL     1       0.007   5.643  -1.168  1.00  0.00     0.295 HD
ENDBRANCH  71  73
BRANCH  72  75
ATOM     75  C   UNL     1       2.764   2.580  -2.948  1.00  0.00     0.195 CG1
ATOM     76  C   UNL     1       3.574   2.710  -4.237  1.00  0.00     0.044 C 
ATOM     77  G   UNL     1       3.659   1.950  -1.863  1.00  0.00     0.000 G1
ENDBRANCH  72  75
ENDBRANCH  69  71
ENDBRANCH  66  69
ENDBRANCH  63  65
ENDBRANCH  61  63
ENDBRANCH  59  61
ENDBRANCH   1  59
TORSDOF 13
