REMARK SMILES CC(C)C[C@H]1C[C@@H]2Cc3c(CO)cc(O)c(c31)OCc1cc([C@]34c5c6cccc5CC[C@H]3C3(CCCCC3)OC[C@H]4CC6)cc3cn(cc13)-c1nc(NCOCCCCO)cc3c1CO[C@@H](CCC[C@H](CCc1ccc(O)c(Cc4cccc(O)c4)c1)C#C3)C[C@@H]2O
REMARK SMILES IDX 50 1 51 2 52 3 61 4 62 5 63 6 89 7 47 8 20 9 21 10 49 11
REMARK SMILES IDX 22 12 48 13 45 14 44 15 46 16 19 17 18 18 16 19 5 20 6 21
REMARK SMILES IDX 17 22 7 23 9 24 8 25 14 26 10 27 13 28 4 30 2 31 1 32 3 33
REMARK SMILES IDX 15 34 11 36 12 37 23 39 24 40 41 41 32 42 29 43 25 44 42 45
REMARK SMILES IDX 40 46 33 47 31 48 28 49 30 50 26 51 43 52 39 53 34 54 38 55
REMARK SMILES IDX 27 56 35 57 37 58 36 59 64 60 65 61 66 62 67 63 68 64 90 66
REMARK SMILES IDX 91 67 92 69 53 71 54 73 55 74 56 75 57 76 58 77 59 78 60 79
REMARK SMILES IDX 88 81 70 82 69 83 71 85 72 86 73 87 74 88 87 89 75 90 78 91
REMARK SMILES IDX 76 92 79 93 80 94 81 95 86 96 82 97 84 98 83 99 85 100
REMARK SMILES IDX 77 102
REMARK H PARENT 15 35 12 38 92 70 53 72 60 80 85 101 77 103
REMARK Flexibility Score:  260.800
ROOT
ATOM      1  C   UNL     1       0.662   2.573  -0.650  1.00  0.00     0.145 A 
ATOM      2  N   UNL     1       1.028   3.756  -0.092  1.00  0.00    -0.213 NA
ATOM      3  C   UNL     1       2.325   4.122   0.042  1.00  0.00     0.131 A 
ATOM      4  C   UNL     1       3.334   3.278  -0.355  1.00  0.00     0.064 A 
ATOM      5  C   UNL     1       2.989   2.084  -0.920  1.00  0.00     0.037 A 
ATOM      6  C   UNL     1       1.661   1.689  -1.109  1.00  0.00     0.037 A 
ATOM      7  C   UNL     1       4.059   1.250  -1.156  1.00  0.00    -0.066 C 
ENDROOT
BRANCH   1   8
ATOM      8  N   UNL     1      -0.703   2.159  -0.567  1.00  0.00    -0.307 N 
ATOM      9  C   UNL     1      -3.531   0.003  -1.036  1.00  0.00    -0.001 A 
ATOM     10  C   UNL     1      -4.552  -0.151  -0.126  1.00  0.00     0.012 A 
ATOM     11  C   UNL     1      -2.551   0.958  -0.741  1.00  0.00     0.006 A 
ATOM     12  C   UNL     1      -4.603   0.584   1.066  1.00  0.00    -0.036 A 
ATOM     13  C   UNL     1      -1.414   1.347  -1.394  1.00  0.00     0.102 A 
ATOM     14  C   UNL     1      -2.563   1.634   0.443  1.00  0.00     0.001 A 
ATOM     15  C   UNL     1      -3.542   1.466   1.373  1.00  0.00     0.015 A 
ATOM     16  C   UNL     1      -1.438   2.384   0.537  1.00  0.00     0.101 A 
BRANCH   9  17
ATOM     17  C   UNL     1      -3.468  -0.963  -2.164  1.00  0.00     0.266 C 
BRANCH  17  18
ATOM     18  O   UNL     1      -4.128  -2.163  -1.838  1.00  0.00    -0.485 OA
BRANCH  18  19
ATOM     19  C   UNL     1      -3.833  -3.282  -2.528  1.00  0.00     0.165 A 
ATOM     20  C   UNL     1      -1.794  -3.591  -1.119  1.00  0.00     0.024 C 
ATOM     21  C   UNL     1      -0.385  -3.248  -1.491  1.00  0.00     0.015 C 
ATOM     22  C   UNL     1      -2.599  -3.886  -2.342  1.00  0.00     0.005 A 
ATOM     23  C   UNL     1       0.045  -3.761  -2.892  1.00  0.00     0.023 CG0
ATOM     24  C   UNL     1      -2.108  -4.816  -3.267  1.00  0.00    -0.035 A 
ATOM     25  C   UNL     1      -0.627  -5.102  -3.221  1.00  0.00     0.042 C 
ATOM     26  C   UNL     1      -4.715  -3.817  -3.459  1.00  0.00     0.158 A 
ATOM     27  C   UNL     1      -2.962  -5.311  -4.255  1.00  0.00    -0.015 A 
ATOM     28  C   UNL     1      -4.290  -4.859  -4.296  1.00  0.00     0.056 A 
ATOM     29  G   UNL     1       1.555  -3.925  -2.983  1.00  0.00     0.000 G0
BRANCH  20  30
ATOM     30  C   UNL     1      -1.675  -4.809  -0.151  1.00  0.00     0.011 C 
BRANCH  30  31
ATOM     31  C   UNL     1      -2.874  -5.643   0.247  1.00  0.00    -0.017 C 
ATOM     32  C   UNL     1      -3.401  -6.511  -0.896  1.00  0.00     0.007 C 
ATOM     33  C   UNL     1      -3.970  -4.804   0.870  1.00  0.00     0.007 C 
ENDBRANCH  30  31
ENDBRANCH  20  30
BRANCH  26  34
ATOM     34  O   UNL     1      -5.965  -3.334  -3.551  1.00  0.00    -0.504 OA
ATOM     35  H   UNL     1      -6.603  -3.741  -4.152  1.00  0.00     0.293 HD
ENDBRANCH  26  34
BRANCH  27  36
ATOM     36  C   UNL     1      -2.475  -6.321  -5.247  1.00  0.00     0.192 C 
BRANCH  36  37
ATOM     37  O   UNL     1      -2.122  -7.532  -4.622  1.00  0.00    -0.392 OA
ATOM     38  H   UNL     1      -1.337  -7.378  -4.037  1.00  0.00     0.211 HD
ENDBRANCH  36  37
ENDBRANCH  27  36
ENDBRANCH  18  19
ENDBRANCH  17  18
ENDBRANCH   9  17
BRANCH  12  39
ATOM     39  C   UNL     1      -5.813   0.364   1.949  1.00  0.00     0.031 C 
ATOM     40  C   UNL     1      -7.007   0.376   1.014  1.00  0.00    -0.030 A 
ATOM     41  C   UNL     1      -5.636  -0.990   2.743  1.00  0.00     0.031 C 
ATOM     42  C   UNL     1      -5.967   1.556   2.912  1.00  0.00     0.037 C 
ATOM     43  C   UNL     1      -7.371   1.602   0.430  1.00  0.00    -0.044 A 
ATOM     44  C   UNL     1      -7.690  -0.807   0.648  1.00  0.00    -0.044 A 
ATOM     45  C   UNL     1      -6.821  -1.971   2.614  1.00  0.00     0.012 C 
ATOM     46  C   UNL     1      -5.571  -0.678   4.248  1.00  0.00     0.165 C 
ATOM     47  C   UNL     1      -6.968   1.240   4.050  1.00  0.00     0.072 C 
ATOM     48  C   UNL     1      -6.151   2.929   2.235  1.00  0.00     0.012 C 
ATOM     49  C   UNL     1      -8.382   1.640  -0.516  1.00  0.00     0.004 A 
ATOM     50  C   UNL     1      -6.669   2.878   0.794  1.00  0.00     0.036 C 
ATOM     51  C   UNL     1      -8.707  -0.742  -0.301  1.00  0.00     0.004 A 
ATOM     52  C   UNL     1      -7.299  -2.142   1.204  1.00  0.00     0.036 C 
ATOM     53  O   UNL     1      -6.806  -0.077   4.587  1.00  0.00    -0.374 OA
ATOM     54  C   UNL     1      -8.440   1.366   3.543  1.00  0.00     0.036 C 
ATOM     55  C   UNL     1      -6.642   2.149   5.259  1.00  0.00     0.036 C 
ATOM     56  C   UNL     1      -9.046   0.477  -0.879  1.00  0.00     0.001 A 
ATOM     57  C   UNL     1      -9.345   1.752   4.701  1.00  0.00     0.003 C 
ATOM     58  C   UNL     1      -7.523   3.353   5.508  1.00  0.00     0.003 C 
ATOM     59  C   UNL     1      -8.977   3.199   5.058  1.00  0.00     0.000 C 
ENDBRANCH  12  39
ENDBRANCH   1   8
BRANCH   6  60
ATOM     60  C   UNL     1       1.324   0.368  -1.748  1.00  0.00     0.201 C 
BRANCH  60  61
ATOM     61  O   UNL     1       2.352  -0.587  -1.631  1.00  0.00    -0.373 OA
BRANCH  61  62
ATOM     62  C   UNL     1       2.296  -1.501  -2.702  1.00  0.00     0.121 C 
BRANCH  62  63
ATOM     63  C   UNL     1       3.527  -1.305  -3.603  1.00  0.00     0.032 C 
BRANCH  63  64
ATOM     64  C   UNL     1       4.793  -2.045  -3.122  1.00  0.00     0.004 CG1
ATOM     65  G   UNL     1       5.254  -1.789  -1.684  1.00  0.00     0.000 G1
ENDBRANCH  63  64
ENDBRANCH  62  63
BRANCH  62  66
ATOM     66  C   UNL     1       2.275  -2.902  -2.117  1.00  0.00     0.064 C 
BRANCH  66  67
ATOM     67  C   UNL     1       1.555  -3.925  -2.983  1.00  0.00     0.120 CG0
ATOM     68  G   UNL     1       0.045  -3.761  -2.892  1.00  0.00     0.000 G0
BRANCH  67  69
ATOM     69  O   UNL     1       1.981  -3.901  -4.325  1.00  0.00    -0.393 OA
ATOM     70  H   UNL     1       1.614  -3.071  -4.740  1.00  0.00     0.210 HD
ENDBRANCH  67  69
ENDBRANCH  66  67
ENDBRANCH  62  66
ENDBRANCH  61  62
ENDBRANCH  60  61
ENDBRANCH   6  60
BRANCH   3  71
ATOM     71  N   UNL     1       2.648   5.448   0.343  1.00  0.00    -0.347 N 
ATOM     72  H   UNL     1       3.358   5.671   1.058  1.00  0.00     0.164 HD
BRANCH  71  73
ATOM     73  C   UNL     1       2.436   6.349  -0.770  1.00  0.00     0.278 C 
BRANCH  73  74
ATOM     74  O   UNL     1       2.962   5.735  -1.936  1.00  0.00    -0.361 OA
BRANCH  74  75
ATOM     75  C   UNL     1       2.399   6.219  -3.130  1.00  0.00     0.162 C 
BRANCH  75  76
ATOM     76  C   UNL     1       2.901   7.609  -3.469  1.00  0.00     0.031 C 
BRANCH  76  77
ATOM     77  C   UNL     1       2.539   7.926  -4.919  1.00  0.00     0.030 C 
BRANCH  77  78
ATOM     78  C   UNL     1       3.042   9.308  -5.300  1.00  0.00     0.156 C 
BRANCH  78  79
ATOM     79  O   UNL     1       2.479  10.293  -4.475  1.00  0.00    -0.396 OA
ATOM     80  H   UNL     1       1.496  10.253  -4.607  1.00  0.00     0.210 HD
ENDBRANCH  78  79
ENDBRANCH  77  78
ENDBRANCH  76  77
ENDBRANCH  75  76
ENDBRANCH  74  75
ENDBRANCH  73  74
ENDBRANCH  71  73
ENDBRANCH   3  71
BRANCH   7  81
ATOM     81  C   UNL     1       4.966   0.546  -1.355  1.00  0.00    -0.094 C 
ATOM     82  C   UNL     1       5.940  -0.449  -1.581  1.00  0.00     0.065 C 
BRANCH  82  83
ATOM     83  C   UNL     1       5.254  -1.789  -1.684  1.00  0.00     0.017 CG1
ATOM     84  G   UNL     1       4.793  -2.045  -3.122  1.00  0.00     0.000 G1
ENDBRANCH  82  83
BRANCH  82  85
ATOM     85  C   UNL     1       6.676  -0.355  -0.246  1.00  0.00     0.021 C 
BRANCH  85  86
ATOM     86  C   UNL     1       7.425   0.997  -0.079  1.00  0.00     0.037 C 
BRANCH  86  87
ATOM     87  C   UNL     1       8.032   0.926   1.270  1.00  0.00    -0.047 A 
ATOM     88  C   UNL     1       7.557   1.690   2.340  1.00  0.00     0.007 A 
ATOM     89  C   UNL     1       9.000  -0.041   1.473  1.00  0.00     0.011 A 
ATOM     90  C   UNL     1       8.017   1.426   3.633  1.00  0.00     0.047 A 
ATOM     91  C   UNL     1       9.449  -0.332   2.745  1.00  0.00    -0.001 A 
ATOM     92  C   UNL     1       8.943   0.392   3.850  1.00  0.00     0.119 A 
BRANCH  91  93
ATOM     93  C   UNL     1      10.416  -1.470   2.867  1.00  0.00     0.075 C 
BRANCH  93  94
ATOM     94  C   UNL     1      11.714  -1.145   3.529  1.00  0.00    -0.040 A 
ATOM     95  C   UNL     1      12.631  -2.189   3.682  1.00  0.00     0.004 A 
ATOM     96  C   UNL     1      12.020   0.129   4.046  1.00  0.00     0.050 A 
ATOM     97  C   UNL     1      13.801  -1.982   4.402  1.00  0.00     0.004 A 
ATOM     98  C   UNL     1      13.175   0.322   4.792  1.00  0.00     0.115 A 
ATOM     99  C   UNL     1      14.061  -0.741   4.978  1.00  0.00     0.046 A 
BRANCH  98 100
ATOM    100  O   UNL     1      13.414   1.524   5.348  1.00  0.00    -0.508 OA
ATOM    101  H   UNL     1      14.192   1.672   5.903  1.00  0.00     0.293 HD
ENDBRANCH  98 100
ENDBRANCH  93  94
ENDBRANCH  91  93
BRANCH  92 102
ATOM    102  O   UNL     1       9.353   0.091   5.102  1.00  0.00    -0.508 OA
ATOM    103  H   UNL     1       9.071   0.591   5.880  1.00  0.00     0.293 HD
ENDBRANCH  92 102
ENDBRANCH  86  87
ENDBRANCH  85  86
ENDBRANCH  82  85
ENDBRANCH   7  81
TORSDOF 22
