REMARK SMILES CC(=O)O[C@@H]1[C@@H]2[C@@H](OC(=O)c3ccccc3)[C@@]3(OC2(C)C)[C@](C)([C@@H]1OC(=O)c1ccccc1)[C@@H](OC(C)=O)[C@H](OC(C)=O)C[C@@]3(C)O
REMARK SMILES IDX 39 1 44 2 45 3 46 4 17 5 18 6 19 7 20 8 21 9 6 10 5 11 24 12
REMARK SMILES IDX 22 13 23 14 34 15 7 16 40 17 41 18 43 19 42 20 35 21 36 22
REMARK SMILES IDX 38 23 37 24 47 25 25 27 26 28 27 29 28 30 29 31 33 32 30 33
REMARK SMILES IDX 32 34 31 35 8 36 9 37 10 38 11 39 12 40 16 41 13 42 15 43
REMARK SMILES IDX 14 44 4 45 2 46 3 47 1 48
REMARK H PARENT 47 26
ROOT
ATOM      1  C   UNL     1      -0.189   2.971  -0.363  1.00  0.00     0.221 C 
ATOM      2  C   UNL     1       1.286   2.838  -0.732  1.00  0.00     0.087 C 
ATOM      3  C   UNL     1       1.970   1.628  -0.034  1.00  0.00     0.099 C 
ATOM      4  C   UNL     1       3.434   1.622  -0.561  1.00  0.00     0.045 C 
ATOM      5  C   UNL     1       1.185   0.283  -0.365  1.00  0.00     0.147 C 
ATOM      6  O   UNL     1       1.359  -0.034  -1.763  1.00  0.00    -0.361 OA
ATOM      7  C   UNL     1       1.644  -1.431  -1.869  1.00  0.00     0.074 C 
ATOM      8  C   UNL     1       3.155  -1.604  -2.174  1.00  0.00     0.042 C 
ATOM      9  C   UNL     1       0.929  -2.097  -3.077  1.00  0.00     0.042 C 
ATOM     10  C   UNL     1       1.214  -2.043  -0.506  1.00  0.00     0.110 C 
ATOM     11  C   UNL     1      -0.342  -2.170  -0.331  1.00  0.00     0.228 C 
ATOM     12  C   UNL     1      -1.098  -0.848  -0.672  1.00  0.00     0.231 C 
ATOM     13  C   UNL     1      -0.400   0.427  -0.081  1.00  0.00     0.084 C 
ATOM     14  C   UNL     1      -0.786   0.552   1.442  1.00  0.00     0.023 C 
ATOM     15  C   UNL     1      -0.932   1.706  -0.827  1.00  0.00     0.230 C 
ATOM     16  C   UNL     1       1.685  -0.963   0.442  1.00  0.00     0.222 C 
ENDROOT
BRANCH   1  17
ATOM     17  O   UNL     1      -0.721   4.090  -0.988  1.00  0.00    -0.458 OA
BRANCH  17  18
ATOM     18  C   UNL     1      -1.270   5.155  -0.336  1.00  0.00     0.303 C 
ATOM     19  O   UNL     1      -1.300   5.204   0.887  1.00  0.00    -0.253 OA
ATOM     20  C   UNL     1      -1.846   6.286  -1.121  1.00  0.00     0.139 C 
ENDBRANCH  17  18
ENDBRANCH   1  17
BRANCH  15  21
ATOM     21  O   UNL     1      -2.294   1.888  -0.625  1.00  0.00    -0.458 OA
BRANCH  21  22
ATOM     22  C   UNL     1      -3.222   2.023  -1.614  1.00  0.00     0.303 C 
ATOM     23  O   UNL     1      -2.901   1.994  -2.792  1.00  0.00    -0.253 OA
ATOM     24  C   UNL     1      -4.657   2.231  -1.258  1.00  0.00     0.139 C 
ENDBRANCH  21  22
ENDBRANCH  15  21
BRANCH   3  25
ATOM     25  O   UNL     1       1.985   1.821   1.361  1.00  0.00    -0.387 OA
ATOM     26  H   UNL     1       2.469   2.667   1.555  1.00  0.00     0.211 HD
ENDBRANCH   3  25
BRANCH  12  27
ATOM     27  O   UNL     1      -2.413  -0.968  -0.250  1.00  0.00    -0.454 OA
BRANCH  27  28
ATOM     28  C   UNL     1      -3.514  -1.116  -1.030  1.00  0.00     0.338 C 
ATOM     29  O   UNL     1      -3.415  -1.169  -2.248  1.00  0.00    -0.246 OA
BRANCH  28  30
ATOM     30  C   UNL     1      -4.841  -1.242  -0.380  1.00  0.00     0.060 A 
ATOM     31  C   UNL     1      -4.948  -1.183   1.022  1.00  0.00     0.015 A 
ATOM     32  C   UNL     1      -6.009  -1.423  -1.145  1.00  0.00     0.015 A 
ATOM     33  C   UNL     1      -6.194  -1.303   1.643  1.00  0.00     0.001 A 
ATOM     34  C   UNL     1      -7.253  -1.542  -0.518  1.00  0.00     0.001 A 
ATOM     35  C   UNL     1      -7.346  -1.482   0.874  1.00  0.00     0.000 A 
ENDBRANCH  28  30
ENDBRANCH  27  28
ENDBRANCH  12  27
BRANCH  16  36
ATOM     36  O   UNL     1       3.058  -1.020   0.659  1.00  0.00    -0.455 OA
BRANCH  36  37
ATOM     37  C   UNL     1       3.644  -1.087   1.899  1.00  0.00     0.338 C 
ATOM     38  O   UNL     1       2.950  -1.155   2.905  1.00  0.00    -0.246 OA
BRANCH  37  39
ATOM     39  C   UNL     1       5.120  -1.033   2.059  1.00  0.00     0.060 A 
ATOM     40  C   UNL     1       5.979  -0.990   0.947  1.00  0.00     0.015 A 
ATOM     41  C   UNL     1       5.683  -1.010   3.352  1.00  0.00     0.015 A 
ATOM     42  C   UNL     1       7.365  -0.922   1.125  1.00  0.00     0.001 A 
ATOM     43  C   UNL     1       7.067  -0.941   3.524  1.00  0.00     0.001 A 
ATOM     44  C   UNL     1       7.908  -0.896   2.411  1.00  0.00     0.000 A 
ENDBRANCH  37  39
ENDBRANCH  36  37
ENDBRANCH  16  36
BRANCH  11  45
ATOM     45  O   UNL     1      -0.609  -2.537   0.981  1.00  0.00    -0.458 OA
BRANCH  45  46
ATOM     46  C   UNL     1      -1.239  -3.666   1.397  1.00  0.00     0.303 C 
ATOM     47  O   UNL     1      -1.661  -4.489   0.598  1.00  0.00    -0.253 OA
ATOM     48  C   UNL     1      -1.416  -3.899   2.862  1.00  0.00     0.139 C 
ENDBRANCH  45  46
ENDBRANCH  11  45
TORSDOF 13
