REMARK SMILES COc1ccc([C@@H]2c3[nH]c4ccccc4c3C[C@H]3C(=O)N(CCCO)CC(=O)N23)cc1OC
REMARK SMILES IDX 22 1 21 2 7 3 8 4 29 5 16 6 9 7 27 8 18 9 17 10 15 11 10 12
REMARK SMILES IDX 26 13 28 14 19 15 14 16 11 17 20 18 13 19 12 20 6 22 3 23
REMARK SMILES IDX 4 24 31 25 5 26 30 27 2 28 1 29 32 30 33 31 23 32 24 33
REMARK SMILES IDX 25 34
REMARK H PARENT 9 21 25 35
ROOT
ATOM      1  C   UNL     1       4.537  -1.828  -1.057  1.00  0.00     0.122 C 
ENDROOT
BRANCH   1   2
ATOM      2  N   UNL     1       3.168  -1.357  -1.238  1.00  0.00    -0.331 N 
ATOM      3  C   UNL     1      -0.340   0.042   0.568  1.00  0.00     0.164 C 
ATOM      4  C   UNL     1      -0.491   1.520   0.522  1.00  0.00     0.047 A 
ATOM      5  N   UNL     1       0.652  -0.470  -0.392  1.00  0.00    -0.316 N 
ATOM      6  C   UNL     1       0.161   2.343  -0.357  1.00  0.00    -0.014 A 
ATOM      7  N   UNL     1      -1.285   2.240   1.351  1.00  0.00    -0.356 N 
ATOM      8  C   UNL     1       0.989  -1.808  -0.364  1.00  0.00     0.243 C 
ATOM      9  C   UNL     1       1.378   0.356  -1.391  1.00  0.00     0.180 C 
ATOM     10  C   UNL     1       1.123   1.897  -1.390  1.00  0.00     0.073 C 
ATOM     11  C   UNL     1      -0.248   3.625  -0.061  1.00  0.00     0.003 A 
ATOM     12  C   UNL     1      -1.125   3.525   0.989  1.00  0.00     0.046 A 
ATOM     13  C   UNL     1       2.055  -2.298  -1.318  1.00  0.00     0.219 C 
ATOM     14  O   UNL     1       0.502  -2.574   0.457  1.00  0.00    -0.273 OA
ATOM     15  C   UNL     1       2.860  -0.021  -1.303  1.00  0.00     0.246 C 
ATOM     16  C   UNL     1       0.091   4.856  -0.621  1.00  0.00     0.010 A 
ATOM     17  C   UNL     1      -1.723   4.648   1.556  1.00  0.00     0.026 A 
ATOM     18  O   UNL     1       3.737   0.828  -1.235  1.00  0.00    -0.272 OA
ATOM     19  C   UNL     1      -0.498   6.009  -0.070  1.00  0.00     0.001 A 
ATOM     20  C   UNL     1      -1.400   5.905   1.014  1.00  0.00     0.002 A 
ATOM     21  H   UNL     1      -1.889   1.872   2.120  1.00  0.00     0.166 HD
BRANCH   3  22
ATOM     22  C   UNL     1      -1.698  -0.583   0.309  1.00  0.00    -0.016 A 
ATOM     23  C   UNL     1      -4.229  -1.731  -0.181  1.00  0.00     0.160 A 
ATOM     24  C   UNL     1      -3.517  -1.094  -1.217  1.00  0.00     0.051 A 
ATOM     25  C   UNL     1      -3.674  -1.783   1.109  1.00  0.00     0.161 A 
ATOM     26  C   UNL     1      -2.271  -0.519  -0.970  1.00  0.00     0.010 A 
ATOM     27  C   UNL     1      -2.402  -1.217   1.345  1.00  0.00     0.056 A 
BRANCH  23  28
ATOM     28  O   UNL     1      -5.448  -2.299  -0.383  1.00  0.00    -0.493 OA
ATOM     29  C   UNL     1      -6.115  -2.374  -1.588  1.00  0.00     0.278 C 
ENDBRANCH  23  28
BRANCH  25  30
ATOM     30  O   UNL     1      -4.397  -2.377   2.095  1.00  0.00    -0.493 OA
ATOM     31  C   UNL     1      -4.054  -2.428   3.430  1.00  0.00     0.278 C 
ENDBRANCH  25  30
ENDBRANCH   3  22
ENDBRANCH   1   2
BRANCH   1  32
ATOM     32  C   UNL     1       5.065  -1.470   0.341  1.00  0.00     0.050 C 
BRANCH  32  33
ATOM     33  C   UNL     1       6.508  -1.949   0.524  1.00  0.00     0.158 C 
BRANCH  33  34
ATOM     34  O   UNL     1       6.949  -1.678   1.827  1.00  0.00    -0.396 OA
ATOM     35  H   UNL     1       7.141  -0.705   1.866  1.00  0.00     0.210 HD
ENDBRANCH  33  34
ENDBRANCH  32  33
ENDBRANCH   1  32
TORSDOF 7
