REMARK SMILES C=C1C2=C(C(=O)N1OC)[C@H](O)[C@@](C)(O)[C@H](CCCCC)O2
REMARK SMILES IDX 16 1 15 2 1 3 2 4 3 5 7 6 4 7 21 8 5 9 10 10 6 11 12 12
REMARK SMILES IDX 13 13 8 14 9 15 11 16 14 18 17 20 18 21 19 22 20 23
REMARK H PARENT 11 17 14 19
ROOT
ATOM      1  C   UNL     1      -1.859   0.718  -1.034  1.00  0.00     0.048 C 
ENDROOT
BRANCH   1   2
ATOM      2  C   UNL     1      -0.585  -0.153  -0.934  1.00  0.00     0.208 C 
ATOM      3  C   UNL     1       2.113   1.307   2.358  1.00  0.00     0.044 C 
ATOM      4  C   UNL     1       2.438   0.674   1.228  1.00  0.00     0.108 C 
ATOM      5  C   UNL     1       1.524   0.158   0.207  1.00  0.00     0.157 C 
ATOM      6  N   UNL     1       3.752   0.390   0.784  1.00  0.00    -0.182 N 
ATOM      7  C   UNL     1       2.241  -0.415  -0.757  1.00  0.00     0.095 C 
ATOM      8  O   UNL     1       0.173   0.272   0.161  1.00  0.00    -0.484 OA
ATOM      9  C   UNL     1       3.659  -0.244  -0.404  1.00  0.00     0.284 C 
ATOM     10  C   UNL     1       1.559  -1.007  -1.963  1.00  0.00     0.189 C 
ATOM     11  O   UNL     1       4.619  -0.599  -1.069  1.00  0.00    -0.266 OA
ATOM     12  C   UNL     1       0.267  -0.180  -2.271  1.00  0.00     0.129 C 
ATOM     13  C   UNL     1       0.622   1.251  -2.756  1.00  0.00     0.049 C 
BRANCH   6  14
ATOM     14  O   UNL     1       4.896   0.761   1.393  1.00  0.00    -0.269 OA
ATOM     15  C   UNL     1       5.282  -0.302   2.228  1.00  0.00     0.232 C 
ENDBRANCH   6  14
BRANCH  10  16
ATOM     16  O   UNL     1       2.422  -1.146  -3.065  1.00  0.00    -0.385 OA
ATOM     17  H   UNL     1       2.894  -0.283  -3.196  1.00  0.00     0.211 HD
ENDBRANCH  10  16
BRANCH  12  18
ATOM     18  O   UNL     1      -0.492  -0.826  -3.266  1.00  0.00    -0.383 OA
ATOM     19  H   UNL     1       0.066  -0.890  -4.085  1.00  0.00     0.211 HD
ENDBRANCH  12  18
ENDBRANCH   1   2
BRANCH   1  20
ATOM     20  C   UNL     1      -2.708   0.738   0.251  1.00  0.00     0.004 C 
BRANCH  20  21
ATOM     21  C   UNL     1      -3.373  -0.611   0.572  1.00  0.00    -0.000 C 
BRANCH  21  22
ATOM     22  C   UNL     1      -4.178  -0.584   1.883  1.00  0.00    -0.003 C 
ATOM     23  C   UNL     1      -5.343   0.408   1.873  1.00  0.00     0.004 C 
ENDBRANCH  21  22
ENDBRANCH  20  21
ENDBRANCH   1  20
TORSDOF 7
