REMARK SMILES C=C(C)[C@@H](CC[C@](C)(O)[C@H]1CC[C@]2(C)[C@@H]1[C@H](O)C[C@@H]1[C@@]3(C)CC[C@@H](O)C(C)(C)[C@@H]3CC[C@]12C)OO
REMARK SMILES IDX 5 1 4 2 2 3 1 4 3 5 34 6 35 7 6 9 7 10 8 11 9 12 10 14 11 15
REMARK SMILES IDX 15 16 12 17 13 18 16 19 32 20 18 21 31 22 19 23 30 24 20 25
REMARK SMILES IDX 29 26 22 27 26 28 23 29 24 30 14 31 33 32 21 33 27 34 28 35
REMARK SMILES IDX 17 36 25 38
REMARK H PARENT 35 8 9 13 17 37 25 39
ROOT
ATOM      1  C   UNL     1       6.090   0.537  -1.420  1.00  0.00     0.043 C 
ENDROOT
BRANCH   1   2
ATOM      2  C   UNL     1       7.396  -0.126  -0.948  1.00  0.00     0.182 C 
BRANCH   2   3
ATOM      3  C   UNL     1       7.648   0.070   0.539  1.00  0.00    -0.049 C 
ATOM      4  C   UNL     1       7.726  -0.994   1.356  1.00  0.00     0.010 C 
ATOM      5  C   UNL     1       7.819   1.462   1.096  1.00  0.00     0.042 C 
ENDBRANCH   2   3
BRANCH   2   6
ATOM      6  O   UNL     1       8.469   0.443  -1.672  1.00  0.00    -0.232 OA
BRANCH   6   7
ATOM      7  O   UNL     1       9.241  -0.548  -2.079  1.00  0.00    -0.251 OA
ATOM      8  H   UNL     1       9.052  -0.632  -3.050  1.00  0.00     0.255 HD
ENDBRANCH   6   7
ENDBRANCH   2   6
ENDBRANCH   1   2
BRANCH   1   9
ATOM      9  C   UNL     1       4.842  -0.064  -0.732  1.00  0.00     0.038 C 
BRANCH   9  10
ATOM     10  C   UNL     1       3.462   0.546  -1.169  1.00  0.00     0.065 C 
ATOM     11  C   UNL     1       3.334   0.346  -2.711  1.00  0.00     0.042 C 
BRANCH  10  12
ATOM     12  O   UNL     1       3.410   1.909  -0.816  1.00  0.00    -0.390 OA
ATOM     13  H   UNL     1       3.960   2.424  -1.461  1.00  0.00     0.211 HD
ENDBRANCH  10  12
BRANCH  10  14
ATOM     14  C   UNL     1       2.285  -0.198  -0.422  1.00  0.00     0.027 C 
ATOM     15  C   UNL     1       2.559  -0.511   1.084  1.00  0.00     0.007 C 
ATOM     16  C   UNL     1       0.824   0.373  -0.350  1.00  0.00     0.030 C 
ATOM     17  C   UNL     1       1.191  -0.524   1.805  1.00  0.00     0.008 C 
ATOM     18  C   UNL     1       0.133  -0.587   0.688  1.00  0.00    -0.021 C 
ATOM     19  C   UNL     1      -0.040   0.540  -1.628  1.00  0.00     0.118 C 
ATOM     20  C   UNL     1      -1.358  -0.060   1.066  1.00  0.00    -0.023 C 
ATOM     21  C   UNL     1      -1.486   0.967  -1.295  1.00  0.00     0.036 C 
ATOM     22  C   UNL     1      -2.094  -1.037   2.038  1.00  0.00     0.008 C 
ATOM     23  C   UNL     1      -2.194   0.022  -0.288  1.00  0.00     0.004 C 
ATOM     24  C   UNL     1      -3.602  -0.748   2.208  1.00  0.00     0.005 C 
ATOM     25  C   UNL     1      -3.775   0.254  -0.168  1.00  0.00    -0.026 C 
ATOM     26  C   UNL     1      -4.317  -0.858   0.830  1.00  0.00     0.003 C 
ATOM     27  C   UNL     1      -4.439   0.000  -1.568  1.00  0.00     0.010 C 
ATOM     28  C   UNL     1      -5.894  -1.047   0.895  1.00  0.00    -0.006 C 
ATOM     29  C   UNL     1      -5.982  -0.092  -1.512  1.00  0.00     0.033 C 
ATOM     30  C   UNL     1      -6.455  -1.210  -0.565  1.00  0.00     0.120 C 
ATOM     31  C   UNL     1       0.096  -2.095   0.204  1.00  0.00     0.012 C 
ATOM     32  C   UNL     1      -1.264   1.317   1.810  1.00  0.00     0.012 C 
ATOM     33  C   UNL     1      -4.123   1.727   0.230  1.00  0.00     0.012 C 
ATOM     34  C   UNL     1      -6.253  -2.341   1.681  1.00  0.00     0.014 C 
ATOM     35  C   UNL     1      -6.630   0.101   1.635  1.00  0.00     0.014 C 
BRANCH  19  36
ATOM     36  O   UNL     1       0.482   1.514  -2.493  1.00  0.00    -0.393 OA
ATOM     37  H   UNL     1       0.602   2.355  -1.978  1.00  0.00     0.210 HD
ENDBRANCH  19  36
BRANCH  30  38
ATOM     38  O   UNL     1      -6.169  -2.475  -1.126  1.00  0.00    -0.393 OA
ATOM     39  H   UNL     1      -5.192  -2.614  -1.167  1.00  0.00     0.210 HD
ENDBRANCH  30  38
ENDBRANCH  10  14
ENDBRANCH   9  10
ENDBRANCH   1   9
TORSDOF 10
