REMARK SMILES Cc1oc2cc(OCc3ccc(Br)cc3)ccc2c(=O)c1-c1ccc2c(c1)OCCO2
REMARK SMILES IDX 7 1 6 2 2 3 21 4 3 5 19 6 4 7 20 8 18 9 5 10 17 11 16 12
REMARK SMILES IDX 1 13 22 14 23 15 27 16 24 17 26 18 25 19 28 20 31 21 29 22
REMARK SMILES IDX 30 23 8 24 9 25 10 26 15 27 11 28 14 29 12 30 13 31
REMARK H PARENT
ROOT
ATOM      1  O   UNL     1       4.162  -0.965   0.661  1.00  0.00    -0.489 OA
ENDROOT
BRANCH   1   2
ATOM      2  C   UNL     1       2.820  -0.946   0.451  1.00  0.00     0.123 A 
ATOM      3  C   UNL     1      -1.183   1.341  -0.795  1.00  0.00     0.113 A 
ATOM      4  C   UNL     1      -1.988   0.201  -0.566  1.00  0.00     0.068 A 
ATOM      5  O   UNL     1       0.129   1.282  -0.580  1.00  0.00    -0.460 OA
ATOM      6  C   UNL     1      -1.367  -0.980  -0.118  1.00  0.00     0.200 A 
ATOM      7  C   UNL     1       0.750   0.184  -0.164  1.00  0.00     0.141 A 
ATOM      8  O   UNL     1      -2.035  -1.984   0.080  1.00  0.00    -0.288 OA
ATOM      9  C   UNL     1       0.024  -0.999   0.077  1.00  0.00     0.066 A 
ATOM     10  C   UNL     1       2.135   0.212   0.029  1.00  0.00     0.094 A 
ATOM     11  C   UNL     1       0.709  -2.154   0.498  1.00  0.00     0.020 A 
ATOM     12  C   UNL     1       2.095  -2.123   0.675  1.00  0.00     0.047 A 
ATOM     13  C   UNL     1      -1.741   2.654  -1.268  1.00  0.00     0.088 C 
BRANCH   4  14
ATOM     14  C   UNL     1      -3.445   0.225  -0.807  1.00  0.00    -0.007 A 
ATOM     15  C   UNL     1      -3.936   0.068  -2.114  1.00  0.00     0.013 A 
ATOM     16  C   UNL     1      -4.340   0.419   0.257  1.00  0.00     0.059 A 
ATOM     17  C   UNL     1      -5.312   0.091  -2.361  1.00  0.00     0.051 A 
ATOM     18  C   UNL     1      -5.716   0.465   0.006  1.00  0.00     0.161 A 
ATOM     19  C   UNL     1      -6.202   0.283  -1.302  1.00  0.00     0.161 A 
ATOM     20  O   UNL     1      -6.607   0.690   1.006  1.00  0.00    -0.486 OA
ATOM     21  O   UNL     1      -7.545   0.301  -1.510  1.00  0.00    -0.486 OA
ATOM     22  C   UNL     1      -7.912   1.062   0.715  1.00  0.00     0.271 C 
ATOM     23  C   UNL     1      -8.428   0.200  -0.444  1.00  0.00     0.271 C 
ENDBRANCH   4  14
ENDBRANCH   1   2
BRANCH   1  24
ATOM     24  C   UNL     1       4.974   0.149   0.747  1.00  0.00     0.265 C 
BRANCH  24  25
ATOM     25  C   UNL     1       6.386  -0.280   1.026  1.00  0.00    -0.011 A 
ATOM     26  C   UNL     1       6.988   0.016   2.260  1.00  0.00     0.008 A 
ATOM     27  C   UNL     1       7.120  -0.980   0.053  1.00  0.00     0.008 A 
ATOM     28  C   UNL     1       8.300  -0.389   2.520  1.00  0.00     0.016 A 
ATOM     29  C   UNL     1       8.437  -1.373   0.312  1.00  0.00     0.016 A 
ATOM     30  C   UNL     1       9.027  -1.081   1.547  1.00  0.00     0.017 A 
ATOM     31  Br  UNL     1      10.822  -1.625   1.904  1.00  0.00    -0.051 Br
ENDBRANCH  24  25
ENDBRANCH   1  24
TORSDOF 4
