REMARK SMILES CC(C)CC[C@H]1C[C@H]2CC[C@H]([C@@H]3C[C@H]([C@@H](C)c4ccc(C=O)cc4)N4C[C@]34O)N[C@@H]2C1
REMARK SMILES IDX 6 1 7 2 8 3 9 4 10 5 11 6 29 7 30 8 31 9 5 11 4 12 2 13 1 14
REMARK SMILES IDX 3 15 12 16 13 17 27 18 14 19 26 20 25 21 28 22 15 24 16 25
REMARK SMILES IDX 17 26 18 27 24 28 19 29 23 30 20 31 21 32 22 33
REMARK H PARENT 29 10 28 23
ROOT
ATOM      1  C   UNL     1       1.276   0.000   0.000  1.00  0.00    -0.009 C 
ATOM      2  C   UNL     1       0.379   0.775   1.046  1.00  0.00     0.009 C 
ATOM      3  C   UNL     1      -0.988   0.147   1.041  1.00  0.00     0.006 C 
ATOM      4  C   UNL     1      -2.117   0.975   1.685  1.00  0.00     0.007 C 
ATOM      5  C   UNL     1      -3.411   0.161   1.591  1.00  0.00     0.020 C 
ATOM      6  C   UNL     1      -3.757  -0.397   0.153  1.00  0.00     0.061 C 
ATOM      7  N   UNL     1      -2.485  -0.871  -0.552  1.00  0.00    -0.311 NA
ATOM      8  C   UNL     1      -1.296   0.041  -0.415  1.00  0.00     0.057 C 
ATOM      9  C   UNL     1       0.119  -0.340  -1.056  1.00  0.00     0.022 C 
ATOM     10  H   UNL     1      -2.688  -1.002  -1.570  1.00  0.00     0.123 HD
ENDROOT
BRANCH   1  11
ATOM     11  C   UNL     1       2.391   1.004   0.000  1.00  0.00     0.004 C 
BRANCH  11  12
ATOM     12  C   UNL     1       3.505   2.007   0.000  1.00  0.00     0.003 C 
BRANCH  12  13
ATOM     13  C   UNL     1       4.620   3.011   0.000  1.00  0.00    -0.017 C 
ATOM     14  C   UNL     1       5.624   1.896   0.000  1.00  0.00     0.007 C 
ATOM     15  C   UNL     1       3.616   4.126   0.000  1.00  0.00     0.007 C 
ENDBRANCH  12  13
ENDBRANCH  11  12
ENDBRANCH   1  11
BRANCH   6  16
ATOM     16  C   UNL     1      -4.793  -1.609   0.403  1.00  0.00     0.056 C 
ATOM     17  C   UNL     1      -4.938  -2.661  -0.625  1.00  0.00     0.029 C 
ATOM     18  C   UNL     1      -6.309  -1.595   0.911  1.00  0.00     0.136 C 
ATOM     19  C   UNL     1      -5.738  -3.736   0.318  1.00  0.00     0.067 C 
ATOM     20  C   UNL     1      -7.487  -1.848   0.051  1.00  0.00     0.140 C 
ATOM     21  N   UNL     1      -6.924  -3.002   0.810  1.00  0.00    -0.267 NA
BRANCH  18  22
ATOM     22  O   UNL     1      -6.564  -1.041   2.170  1.00  0.00    -0.374 OA
ATOM     23  H   UNL     1      -6.775  -0.088   1.995  1.00  0.00     0.213 HD
ENDBRANCH  18  22
BRANCH  19  24
ATOM     24  C   UNL     1      -5.416  -5.347   0.000  1.00  0.00     0.033 C 
ATOM     25  C   UNL     1      -3.974  -4.934   0.000  1.00  0.00     0.014 C 
BRANCH  24  26
ATOM     26  C   UNL     1      -5.856  -6.451   0.952  1.00  0.00    -0.044 A 
ATOM     27  C   UNL     1      -6.511  -7.570   0.406  1.00  0.00     0.005 A 
ATOM     28  C   UNL     1      -5.609  -6.421   2.337  1.00  0.00     0.005 A 
ATOM     29  C   UNL     1      -6.899  -8.638   1.215  1.00  0.00     0.012 A 
ATOM     30  C   UNL     1      -5.998  -7.494   3.148  1.00  0.00     0.012 A 
ATOM     31  C   UNL     1      -6.643  -8.613   2.591  1.00  0.00     0.014 A 
BRANCH  31  32
ATOM     32  C   UNL     1      -7.047  -9.765   3.424  1.00  0.00     0.260 C 
ATOM     33  O   UNL     1      -6.830  -9.782   4.625  1.00  0.00    -0.298 OA
ENDBRANCH  31  32
ENDBRANCH  24  26
ENDBRANCH  19  24
ENDBRANCH   6  16
TORSDOF 8
