REMARK SMILES C=C(C)[C@]12C[C@@H](C)[C@@]34O[C@](c5ccccc5)(O[C@@H]1[C@@H]3[C@H](O)[C@](O)(COC(=O)c1ccccc1)[C@@H](O)[C@@]1(O)[C@H]4C[C@H](C)[C@@H]1O)O2
REMARK SMILES IDX 22 1 20 2 19 3 4 4 5 5 18 6 44 7 6 8 17 9 10 10 8 11 9 12
REMARK SMILES IDX 7 13 2 15 1 16 3 17 11 18 12 19 16 20 13 21 15 22 14 23
REMARK SMILES IDX 21 24 23 26 24 28 25 29 26 30 27 31 28 32 29 33 33 34 30 35
REMARK SMILES IDX 32 36 31 37 34 38 35 39 36 41 38 42 42 43 39 44 40 45 41 46
REMARK SMILES IDX 37 48 43 50
REMARK H PARENT 21 25 23 27 35 40 37 49 43 51
REMARK Flexibility Score:   88.900
ROOT
ATOM      1  C   UNL     1       2.301  -0.936  -0.320  1.00  0.00     0.153 C 
ENDROOT
BRANCH   1   2
ATOM      2  C   UNL     1       1.162   0.166  -0.457  1.00  0.00     0.161 C 
BRANCH   2   3
ATOM      3  C   UNL     1      -0.028  -0.005   0.540  1.00  0.00     0.087 C 
ATOM      4  C   UNL     1      -1.964   1.247   1.739  1.00  0.00     0.122 C 
ATOM      5  C   UNL     1      -1.952  -0.097   2.512  1.00  0.00     0.049 C 
ATOM      6  C   UNL     1      -0.704   1.360   0.831  1.00  0.00     0.170 C 
ATOM      7  O   UNL     1      -3.038   1.207   0.836  1.00  0.00    -0.310 OA
ATOM      8  C   UNL     1      -1.999  -1.306   1.527  1.00  0.00     0.022 C 
ATOM      9  O   UNL     1      -1.217   1.808  -0.379  1.00  0.00    -0.316 OA
ATOM     10  C   UNL     1      -2.410   1.071  -0.423  1.00  0.00     0.313 C 
ATOM     11  C   UNL     1      -1.217  -0.975   0.178  1.00  0.00     0.091 CG0
ATOM     12  O   UNL     1      -2.129  -0.311  -0.720  1.00  0.00    -0.316 OA
ATOM     13  C   UNL     1      -3.488  -1.716   1.316  1.00  0.00     0.011 C 
ATOM     14  G   UNL     1      -0.718  -2.256  -0.595  1.00  0.00     0.000 G0
BRANCH   4  15
ATOM     15  C   UNL     1      -2.083   2.489   2.648  1.00  0.00    -0.046 C 
ATOM     16  C   UNL     1      -2.055   2.415   3.996  1.00  0.00     0.010 C 
ATOM     17  C   UNL     1      -2.230   3.855   2.023  1.00  0.00     0.042 C 
ENDBRANCH   4  15
BRANCH  10  18
ATOM     18  C   UNL     1      -3.317   1.649  -1.500  1.00  0.00     0.041 A 
ATOM     19  C   UNL     1      -3.813   0.853  -2.557  1.00  0.00     0.012 A 
ATOM     20  C   UNL     1      -3.687   3.006  -1.458  1.00  0.00     0.012 A 
ATOM     21  C   UNL     1      -4.655   1.403  -3.528  1.00  0.00     0.001 A 
ATOM     22  C   UNL     1      -4.531   3.551  -2.430  1.00  0.00     0.001 A 
ATOM     23  C   UNL     1      -5.016   2.749  -3.464  1.00  0.00     0.000 A 
ENDBRANCH  10  18
ENDBRANCH   2   3
BRANCH   2  24
ATOM     24  O   UNL     1       0.717   0.426  -1.769  1.00  0.00    -0.389 OA
ATOM     25  H   UNL     1       0.891  -0.357  -2.344  1.00  0.00     0.211 HD
ENDBRANCH   2  24
ENDBRANCH   1   2
BRANCH   1  26
ATOM     26  O   UNL     1       2.730  -1.020   1.022  1.00  0.00    -0.381 OA
ATOM     27  H   UNL     1       2.779  -0.109   1.413  1.00  0.00     0.211 HD
ENDBRANCH   1  26
BRANCH   1  28
ATOM     28  C   UNL     1       3.530  -0.527  -1.205  1.00  0.00     0.274 C 
BRANCH  28  29
ATOM     29  O   UNL     1       4.079   0.701  -0.866  1.00  0.00    -0.459 OA
BRANCH  29  30
ATOM     30  C   UNL     1       4.924   0.923   0.179  1.00  0.00     0.338 C 
ATOM     31  O   UNL     1       5.279  -0.004   0.895  1.00  0.00    -0.246 OA
BRANCH  30  32
ATOM     32  C   UNL     1       5.448   2.287   0.433  1.00  0.00     0.060 A 
ATOM     33  C   UNL     1       5.135   3.347  -0.437  1.00  0.00     0.015 A 
ATOM     34  C   UNL     1       6.274   2.541   1.546  1.00  0.00     0.015 A 
ATOM     35  C   UNL     1       5.640   4.630  -0.200  1.00  0.00     0.001 A 
ATOM     36  C   UNL     1       6.772   3.826   1.780  1.00  0.00     0.001 A 
ATOM     37  C   UNL     1       6.457   4.869   0.907  1.00  0.00     0.000 A 
ENDBRANCH  30  32
ENDBRANCH  29  30
ENDBRANCH  28  29
ENDBRANCH   1  28
BRANCH   1  38
ATOM     38  C   UNL     1       1.879  -2.384  -0.762  1.00  0.00     0.187 C 
BRANCH  38  39
ATOM     39  O   UNL     1       2.965  -3.264  -0.567  1.00  0.00    -0.387 OA
ATOM     40  H   UNL     1       3.071  -3.409   0.408  1.00  0.00     0.211 HD
ENDBRANCH  38  39
BRANCH  38  41
ATOM     41  C   UNL     1       0.575  -3.028  -0.164  1.00  0.00     0.125 C 
ATOM     42  C   UNL     1      -0.718  -2.256  -0.595  1.00  0.00     0.060 CG0
ATOM     43  C   UNL     1       0.379  -4.459  -0.809  1.00  0.00     0.152 C 
ATOM     44  C   UNL     1      -1.743  -3.372  -0.819  1.00  0.00     0.016 C 
ATOM     45  C   UNL     1      -0.930  -4.379  -1.609  1.00  0.00     0.018 C 
ATOM     46  C   UNL     1      -1.633  -5.718  -1.857  1.00  0.00     0.010 C 
ATOM     47  G   UNL     1      -1.217  -0.975   0.178  1.00  0.00     0.000 G0
BRANCH  41  48
ATOM     48  O   UNL     1       0.639  -3.209   1.234  1.00  0.00    -0.384 OA
ATOM     49  H   UNL     1       0.887  -2.365   1.668  1.00  0.00     0.211 HD
ENDBRANCH  41  48
BRANCH  43  50
ATOM     50  O   UNL     1       0.344  -5.472   0.176  1.00  0.00    -0.390 OA
ATOM     51  H   UNL     1      -0.456  -5.342   0.748  1.00  0.00     0.211 HD
ENDBRANCH  43  50
ENDBRANCH  38  41
ENDBRANCH   1  38
TORSDOF 11
