REMARK SMILES CC(=Nc1cc(S(=O)(=O)O)cc2cc(S(=O)(=O)O)cc(O)c12)c1c(O)n(-c2ccccc2)c2ccccc2c1=O
REMARK SMILES IDX 4 1 5 2 6 3 11 4 12 5 13 6 14 7 19 8 20 9 22 10 3 11 2 12
REMARK SMILES IDX 1 13 23 14 24 15 39 16 26 17 38 18 40 19 33 20 37 21 34 22
REMARK SMILES IDX 36 23 35 24 25 25 27 27 28 28 32 29 29 30 31 31 30 32 7 33
REMARK SMILES IDX 8 34 9 35 10 36 21 38 15 40 16 41 17 42 18 43
REMARK H PARENT 25 26 10 37 21 39 18 44
ROOT
ATOM      1  C   UNL     1       2.356  -1.247  -0.075  1.00  0.00     0.076 A 
ATOM      2  C   UNL     1       2.778  -2.285  -0.916  1.00  0.00     0.052 A 
ATOM      3  C   UNL     1       4.135  -2.485  -1.176  1.00  0.00     0.097 A 
ATOM      4  C   UNL     1       5.086  -1.645  -0.596  1.00  0.00     0.032 A 
ATOM      5  C   UNL     1       4.690  -0.599   0.250  1.00  0.00    -0.010 A 
ATOM      6  C   UNL     1       5.661   0.241   0.816  1.00  0.00     0.032 A 
ATOM      7  C   UNL     1       5.284   1.291   1.655  1.00  0.00     0.098 A 
ATOM      8  C   UNL     1       3.937   1.506   1.940  1.00  0.00     0.069 A 
ATOM      9  C   UNL     1       2.945   0.681   1.389  1.00  0.00     0.126 A 
ATOM     10  C   UNL     1       3.312  -0.387   0.528  1.00  0.00     0.049 A 
ENDROOT
BRANCH   1  11
ATOM     11  N   UNL     1       0.963  -1.072   0.146  1.00  0.00    -0.252 NA
ATOM     12  C   UNL     1       0.129  -0.464  -0.646  1.00  0.00     0.055 C 
ATOM     13  C   UNL     1       0.665   0.153  -1.925  1.00  0.00     0.068 C 
BRANCH  12  14
ATOM     14  C   UNL     1      -1.343  -0.355  -0.200  1.00  0.00     0.104 A 
ATOM     15  C   UNL     1      -2.387   0.346  -0.912  1.00  0.00     0.209 A 
ATOM     16  C   UNL     1      -1.723  -0.971   1.032  1.00  0.00     0.202 A 
ATOM     17  N   UNL     1      -3.662   0.430  -0.393  1.00  0.00    -0.280 N 
ATOM     18  C   UNL     1      -3.034  -0.887   1.524  1.00  0.00     0.047 A 
ATOM     19  O   UNL     1      -0.907  -1.594   1.694  1.00  0.00    -0.288 OA
ATOM     20  C   UNL     1      -4.004  -0.168   0.799  1.00  0.00     0.060 A 
ATOM     21  C   UNL     1      -3.393  -1.517   2.738  1.00  0.00     0.014 A 
ATOM     22  C   UNL     1      -5.328  -0.115   1.313  1.00  0.00     0.027 A 
ATOM     23  C   UNL     1      -4.696  -1.444   3.223  1.00  0.00     0.001 A 
ATOM     24  C   UNL     1      -5.661  -0.745   2.511  1.00  0.00     0.002 A 
BRANCH  15  25
ATOM     25  O   UNL     1      -2.193   0.987  -2.092  1.00  0.00    -0.494 OA
ATOM     26  H   UNL     1      -1.430   1.050  -2.658  1.00  0.00     0.295 HD
ENDBRANCH  15  25
BRANCH  17  27
ATOM     27  C   UNL     1      -4.644   1.192  -1.140  1.00  0.00     0.049 A 
ATOM     28  C   UNL     1      -5.025   0.792  -2.433  1.00  0.00     0.027 A 
ATOM     29  C   UNL     1      -5.206   2.359  -0.590  1.00  0.00     0.027 A 
ATOM     30  C   UNL     1      -5.963   1.536  -3.154  1.00  0.00     0.002 A 
ATOM     31  C   UNL     1      -6.133   3.108  -1.321  1.00  0.00     0.002 A 
ATOM     32  C   UNL     1      -6.515   2.695  -2.600  1.00  0.00     0.000 A 
ENDBRANCH  17  27
ENDBRANCH  12  14
ENDBRANCH   1  11
BRANCH   3  33
ATOM     33  S   UNL     1       4.659  -3.816  -2.258  1.00  0.00     0.294 S 
ATOM     34  O   UNL     1       5.838  -3.408  -3.155  1.00  0.00    -0.194 OA
ATOM     35  O   UNL     1       3.593  -4.130  -3.318  1.00  0.00    -0.194 OA
BRANCH  33  36
ATOM     36  O   UNL     1       5.084  -5.340  -1.588  1.00  0.00    -0.282 OA
ATOM     37  H   UNL     1       5.995  -5.212  -1.222  1.00  0.00     0.234 HD
ENDBRANCH  33  36
ENDBRANCH   3  33
BRANCH   9  38
ATOM     38  O   UNL     1       1.651   0.923   1.689  1.00  0.00    -0.507 OA
ATOM     39  H   UNL     1       1.377   1.645   2.273  1.00  0.00     0.293 HD
ENDBRANCH   9  38
BRANCH   7  40
ATOM     40  S   UNL     1       6.534   2.366   2.362  1.00  0.00     0.294 S 
ATOM     41  O   UNL     1       7.711   2.607   1.403  1.00  0.00    -0.194 OA
ATOM     42  O   UNL     1       6.007   3.800   2.524  1.00  0.00    -0.194 OA
BRANCH  40  43
ATOM     43  O   UNL     1       7.234   1.976   3.881  1.00  0.00    -0.282 OA
ATOM     44  H   UNL     1       7.889   1.261   3.683  1.00  0.00     0.234 HD
ENDBRANCH  40  43
ENDBRANCH   7  40
TORSDOF 9
