REMARK SMILES CCC/C(=C/C(=O)CCc1cc(OC2CCCC2)c(O)c2c1C#C[C@@H](c1cccc(O)c1)[C@H](N=C(N)N)CC[C@H](COC)[C@H]2CCC(C)=O)CO
REMARK SMILES IDX 10 1 11 2 12 3 19 4 21 5 22 6 23 7 9 8 8 9 6 10 7 11 5 12
REMARK SMILES IDX 4 13 3 14 2 15 1 16 50 17 51 18 13 20 14 21 15 22 18 23
REMARK SMILES IDX 16 24 17 25 44 26 45 28 46 29 47 30 49 31 48 32 24 33 25 34
REMARK SMILES IDX 26 35 27 36 32 37 28 38 30 39 29 40 31 41 33 43 34 44 35 45
REMARK SMILES IDX 36 46 37 47 38 52 39 53 40 54 41 56 42 57 43 58 20 59
REMARK H PARENT 51 19 31 42 36 48 36 49 37 50 37 51 20 60
REMARK Flexibility Score:   27.900
ROOT
ATOM      1  C   UNL     1       0.987   0.785   0.804  1.00  0.00    -0.028 A 
ATOM      2  C   UNL     1       1.410   2.107   0.894  1.00  0.00     0.055 A 
ATOM      3  C   UNL     1       0.685   3.154   0.319  1.00  0.00     0.162 A 
ATOM      4  C   UNL     1      -0.521   2.865  -0.401  1.00  0.00     0.162 A 
ATOM      5  C   UNL     1      -0.949   1.513  -0.552  1.00  0.00     0.017 A 
ATOM      6  C   UNL     1      -0.197   0.496   0.105  1.00  0.00     0.035 A 
ATOM      7  C   UNL     1      -0.713  -0.846   0.181  1.00  0.00    -0.066 C 
ENDROOT
BRANCH   1   8
ATOM      8  C   UNL     1       1.801  -0.322   1.464  1.00  0.00     0.045 C 
BRANCH   8   9
ATOM      9  C   UNL     1       2.394  -1.270   0.395  1.00  0.00     0.085 C 
BRANCH   9  10
ATOM     10  C   UNL     1       3.412  -0.551  -0.444  1.00  0.00     0.156 C 
ATOM     11  O   UNL     1       3.057  -0.187  -1.556  1.00  0.00    -0.295 OA
BRANCH  10  12
ATOM     12  C   UNL     1       4.833  -0.286  -0.071  1.00  0.00     0.049 C 
ATOM     13  C   UNL     1       5.585  -0.698   0.992  1.00  0.00    -0.041 C 
BRANCH  13  14
ATOM     14  C   UNL     1       7.061  -0.313   0.984  1.00  0.00     0.033 C 
BRANCH  14  15
ATOM     15  C   UNL     1       7.997  -1.516   0.779  1.00  0.00     0.001 C 
ATOM     16  C   UNL     1       7.721  -2.229  -0.548  1.00  0.00     0.004 C 
ENDBRANCH  14  15
ENDBRANCH  13  14
BRANCH  13  17
ATOM     17  C   UNL     1       5.104  -1.525   2.177  1.00  0.00     0.187 C 
BRANCH  17  18
ATOM     18  O   UNL     1       5.630  -2.821   2.140  1.00  0.00    -0.392 OA
ATOM     19  H   UNL     1       5.136  -3.303   1.426  1.00  0.00     0.211 HD
ENDBRANCH  17  18
ENDBRANCH  13  17
ENDBRANCH  10  12
ENDBRANCH   9  10
ENDBRANCH   8   9
ENDBRANCH   1   8
BRANCH   3  20
ATOM     20  O   UNL     1       1.233   4.388   0.514  1.00  0.00    -0.487 OA
BRANCH  20  21
ATOM     21  C   UNL     1       1.090   5.589  -0.164  1.00  0.00     0.173 C 
ATOM     22  C   UNL     1       0.465   6.587   0.809  1.00  0.00     0.045 C 
ATOM     23  C   UNL     1       2.481   6.191  -0.420  1.00  0.00     0.045 C 
ATOM     24  C   UNL     1       1.632   6.832   1.764  1.00  0.00     0.004 C 
ATOM     25  C   UNL     1       2.765   7.105   0.787  1.00  0.00     0.004 C 
ENDBRANCH  20  21
ENDBRANCH   3  20
BRANCH   5  26
ATOM     26  C   UNL     1      -2.129   1.058  -1.464  1.00  0.00     0.030 CG0
ATOM     27  G   UNL     1      -3.293   0.234  -0.760  1.00  0.00     0.000 G0
BRANCH  26  28
ATOM     28  C   UNL     1      -2.656   2.036  -2.551  1.00  0.00     0.017 C 
BRANCH  28  29
ATOM     29  C   UNL     1      -1.597   2.397  -3.608  1.00  0.00     0.076 C 
BRANCH  29  30
ATOM     30  C   UNL     1      -2.190   3.348  -4.612  1.00  0.00     0.129 C 
ATOM     31  O   UNL     1      -2.414   4.503  -4.284  1.00  0.00    -0.300 OA
ATOM     32  C   UNL     1      -2.555   2.896  -5.994  1.00  0.00     0.087 C 
ENDBRANCH  29  30
ENDBRANCH  28  29
ENDBRANCH  26  28
ENDBRANCH   5  26
BRANCH   7  33
ATOM     33  C   UNL     1      -1.224  -1.931   0.199  1.00  0.00    -0.087 C 
ATOM     34  C   UNL     1      -1.950  -3.198   0.184  1.00  0.00     0.119 C 
BRANCH  34  35
ATOM     35  C   UNL     1      -1.460  -3.937   1.428  1.00  0.00    -0.027 A 
ATOM     36  C   UNL     1      -0.809  -5.181   1.340  1.00  0.00     0.005 A 
ATOM     37  C   UNL     1      -1.639  -3.357   2.705  1.00  0.00     0.051 A 
ATOM     38  C   UNL     1      -0.349  -5.822   2.497  1.00  0.00     0.004 A 
ATOM     39  C   UNL     1      -1.171  -3.993   3.857  1.00  0.00     0.115 A 
ATOM     40  C   UNL     1      -0.526  -5.230   3.751  1.00  0.00     0.046 A 
BRANCH  39  41
ATOM     41  O   UNL     1      -1.341  -3.400   5.057  1.00  0.00    -0.508 OA
ATOM     42  H   UNL     1      -1.019  -3.796   5.879  1.00  0.00     0.293 HD
ENDBRANCH  39  41
ENDBRANCH  34  35
BRANCH  34  43
ATOM     43  C   UNL     1      -3.514  -2.991   0.177  1.00  0.00     0.129 C 
BRANCH  43  44
ATOM     44  N   UNL     1      -4.165  -4.268   0.450  1.00  0.00    -0.249 NA
ATOM     45  C   UNL     1      -4.165  -5.343  -0.282  1.00  0.00     0.186 C 
ATOM     46  N   UNL     1      -3.509  -5.426  -1.546  1.00  0.00    -0.370 N 
ATOM     47  N   UNL     1      -4.829  -6.495   0.207  1.00  0.00    -0.370 N 
ATOM     48  H   UNL     1      -3.008  -4.645  -1.982  1.00  0.00     0.159 HD
ATOM     49  H   UNL     1      -3.538  -6.309  -2.076  1.00  0.00     0.159 HD
ATOM     50  H   UNL     1      -5.293  -6.483   1.127  1.00  0.00     0.159 HD
ATOM     51  H   UNL     1      -4.832  -7.367  -0.341  1.00  0.00     0.159 HD
ENDBRANCH  43  44
BRANCH  43  52
ATOM     52  C   UNL     1      -4.244  -2.275  -1.017  1.00  0.00     0.029 C 
BRANCH  52  53
ATOM     53  C   UNL     1      -3.570  -1.038  -1.640  1.00  0.00     0.009 C 
BRANCH  53  54
ATOM     54  C   UNL     1      -3.293   0.234  -0.760  1.00  0.00     0.023 CG0
ATOM     55  G   UNL     1      -2.129   1.058  -1.464  1.00  0.00     0.000 G0
BRANCH  54  56
ATOM     56  C   UNL     1      -4.554   1.075  -0.459  1.00  0.00     0.164 C 
BRANCH  56  57
ATOM     57  O   UNL     1      -5.559   0.312   0.182  1.00  0.00    -0.384 OA
ATOM     58  C   UNL     1      -5.398   0.346   1.583  1.00  0.00     0.194 C 
ENDBRANCH  56  57
ENDBRANCH  54  56
ENDBRANCH  53  54
ENDBRANCH  52  53
ENDBRANCH  43  52
ENDBRANCH  34  43
ENDBRANCH   7  33
BRANCH   4  59
ATOM     59  O   UNL     1      -1.307   3.837  -0.904  1.00  0.00    -0.504 OA
ATOM     60  H   UNL     1      -1.291   4.762  -0.641  1.00  0.00     0.293 HD
ENDBRANCH   4  59
TORSDOF 19
