REMARK SMILES CC1=CC(=O)CC(C)(C)[C@H]1CC[C@H](C)O
REMARK SMILES IDX 12 1 11 2 10 3 2 4 3 5 4 6 7 7 5 8 6 9 1 10 8 11 9 12 13 13
REMARK SMILES IDX 14 14 15 15
REMARK H PARENT 15 16
ROOT
ATOM      1  C   UNL     1       1.928  -0.728  -0.977  1.00  0.00     0.032 C 
ENDROOT
BRANCH   1   2
ATOM      2  C   UNL     1       0.540  -1.106  -0.409  1.00  0.00     0.011 C 
BRANCH   2   3
ATOM      3  C   UNL     1      -0.380   0.043   0.133  1.00  0.00     0.021 C 
ATOM      4  C   UNL     1      -0.873   1.074  -0.914  1.00  0.00    -0.066 C 
ATOM      5  C   UNL     1      -1.821   1.970  -0.557  1.00  0.00     0.046 C 
ATOM      6  C   UNL     1      -2.456   1.927   0.772  1.00  0.00     0.156 C 
ATOM      7  C   UNL     1      -1.630  -0.485   0.937  1.00  0.00    -0.022 C 
ATOM      8  O   UNL     1      -3.133   2.870   1.149  1.00  0.00    -0.295 OA
ATOM      9  C   UNL     1      -2.275   0.734   1.669  1.00  0.00     0.087 C 
ATOM     10  C   UNL     1      -0.358   1.140  -2.332  1.00  0.00     0.040 C 
ATOM     11  C   UNL     1      -1.260  -1.516   2.031  1.00  0.00     0.012 C 
ATOM     12  C   UNL     1      -2.665  -1.154  -0.008  1.00  0.00     0.012 C 
ENDBRANCH   2   3
ENDBRANCH   1   2
BRANCH   1  13
ATOM     13  C   UNL     1       2.778   0.140  -0.022  1.00  0.00     0.111 C 
ATOM     14  C   UNL     1       4.151   0.455  -0.625  1.00  0.00     0.038 C 
BRANCH  13  15
ATOM     15  O   UNL     1       2.928  -0.480   1.231  1.00  0.00    -0.393 OA
ATOM     16  H   UNL     1       3.395  -1.343   1.085  1.00  0.00     0.210 HD
ENDBRANCH  13  15
ENDBRANCH   1  13
TORSDOF 4
