REMARK SMILES CCCCN[C@@]1(c2ccccc2)SSSSSSC1=S
REMARK SMILES IDX 13 1 6 2 5 4 4 6 3 7 2 8 1 9 7 10 8 11 12 12 9 13 11 14
REMARK SMILES IDX 10 15 14 16 15 17 16 18 17 19 18 20 19 21 20 22
REMARK H PARENT 5 5
REMARK Flexibility Score:   71.900
ROOT
ATOM      1  S   UNL     1      -2.533   1.642   1.371  1.00  0.00    -0.048 SA
ENDROOT
BRANCH   1   2
ATOM      2  C   UNL     1      -1.118   0.856   0.455  1.00  0.00     0.144 CG0
ATOM      3  G   UNL     1      -0.757   1.775  -0.755  1.00  0.00     0.000 G0
BRANCH   2   4
ATOM      4  N   UNL     1      -0.009   0.865   1.449  1.00  0.00    -0.293 NA
ATOM      5  H   UNL     1       0.190   1.833   1.793  1.00  0.00     0.124 HD
BRANCH   4   6
ATOM      6  C   UNL     1       1.268   0.164   1.226  1.00  0.00     0.083 C 
BRANCH   6   7
ATOM      7  C   UNL     1       2.168   0.857   0.189  1.00  0.00     0.015 C 
BRANCH   7   8
ATOM      8  C   UNL     1       3.562   0.219   0.089  1.00  0.00    -0.002 C 
ATOM      9  C   UNL     1       3.532  -1.217  -0.435  1.00  0.00     0.004 C 
ENDBRANCH   7   8
ENDBRANCH   6   7
ENDBRANCH   4   6
ENDBRANCH   2   4
BRANCH   2  10
ATOM     10  C   UNL     1      -1.486  -0.625   0.084  1.00  0.00    -0.011 A 
ATOM     11  C   UNL     1      -0.620  -1.406  -0.725  1.00  0.00     0.007 A 
ATOM     12  C   UNL     1      -2.674  -1.260   0.536  1.00  0.00     0.007 A 
ATOM     13  C   UNL     1      -0.920  -2.728  -1.060  1.00  0.00     0.000 A 
ATOM     14  C   UNL     1      -2.965  -2.586   0.201  1.00  0.00     0.000 A 
ATOM     15  C   UNL     1      -2.090  -3.319  -0.596  1.00  0.00     0.000 A 
ENDBRANCH   2  10
ENDBRANCH   1   2
BRANCH   1  16
ATOM     16  S   UNL     1      -4.035   1.873  -0.152  1.00  0.00    -0.010 SA
BRANCH  16  17
ATOM     17  S   UNL     1      -3.191   3.533  -1.228  1.00  0.00    -0.001 SA
BRANCH  17  18
ATOM     18  S   UNL     1      -2.936   4.915   0.383  1.00  0.00    -0.001 SA
BRANCH  18  19
ATOM     19  S   UNL     1      -1.019   4.255   1.148  1.00  0.00    -0.007 SA
BRANCH  19  20
ATOM     20  S   UNL     1      -0.085   3.482  -0.627  1.00  0.00    -0.035 SA
BRANCH  20  21
ATOM     21  C   UNL     1      -0.757   1.775  -0.755  1.00  0.00     0.095 CG0
ATOM     22  S   UNL     1      -0.886   1.305  -2.115  1.00  0.00    -0.073 S 
ATOM     23  G   UNL     1      -1.118   0.856   0.455  1.00  0.00     0.000 G0
ENDBRANCH  20  21
ENDBRANCH  19  20
ENDBRANCH  18  19
ENDBRANCH  17  18
ENDBRANCH  16  17
ENDBRANCH   1  16
TORSDOF 5
