REMARK SMILES CCC(C)CCCCCCCCC(=O)OC[C@H](COC(=O)CCCCCCC[C]CC[C]CCCCCC(C)C)OC(=O)CCCCCCCCCCC(C)C
REMARK SMILES IDX 20 1 21 2 19 3 18 4 17 5 16 6 15 7 13 8 14 9 12 10 11 11
REMARK SMILES IDX 10 12 9 13 8 14 7 15 6 16 5 17 3 18 4 19 2 20 1 21 41 22
REMARK SMILES IDX 42 23 43 24 44 25 45 26 46 27 47 28 48 29 49 30 50 31 51 32
REMARK SMILES IDX 52 33 53 34 54 35 55 36 56 37 22 38 23 39 24 40 25 41 26 42
REMARK SMILES IDX 27 43 28 44 29 45 30 46 31 47 32 48 33 49 34 50 35 51 36 52
REMARK SMILES IDX 37 53 38 54 39 55 40 56
REMARK H PARENT
ROOT
ATOM      1  C   UNL     1      -6.418  -4.341  -0.474  1.00  0.00     0.305 C 
ATOM      2  O   UNL     1      -5.900  -4.984   0.426  1.00  0.00    -0.252 OA
ENDROOT
BRANCH   1   3
ATOM      3  O   UNL     1      -5.652  -3.255  -1.024  1.00  0.00    -0.462 OA
BRANCH   3   4
ATOM      4  C   UNL     1      -4.191  -3.056  -1.006  1.00  0.00     0.281 C 
BRANCH   4   5
ATOM      5  C   UNL     1      -3.463  -1.596  -0.680  1.00  0.00     0.251 C 
BRANCH   5   6
ATOM      6  C   UNL     1      -1.811  -1.468  -0.907  1.00  0.00     0.281 C 
BRANCH   6   7
ATOM      7  O   UNL     1      -1.067  -0.213  -0.703  1.00  0.00    -0.462 OA
BRANCH   7   8
ATOM      8  C   UNL     1       0.359  -0.040  -0.849  1.00  0.00     0.305 C 
ATOM      9  O   UNL     1       1.020  -1.050  -1.035  1.00  0.00    -0.252 OA
BRANCH   8  10
ATOM     10  C   UNL     1       1.199   1.362  -1.009  1.00  0.00     0.123 C 
BRANCH  10  11
ATOM     11  C   UNL     1       2.703   1.619  -0.333  1.00  0.00     0.012 C 
BRANCH  11  12
ATOM     12  C   UNL     1       3.724   2.883  -0.760  1.00  0.00     0.001 C 
BRANCH  12  13
ATOM     13  C   UNL     1       5.196   3.000   0.000  1.00  0.00     0.000 C 
BRANCH  13  14
ATOM     14  C   UNL     1       6.495   3.750   0.000  1.00  0.00     0.000 C 
BRANCH  14  15
ATOM     15  C   UNL     1       7.794   4.500   0.000  1.00  0.00     0.000 C 
BRANCH  15  16
ATOM     16  C   UNL     1       9.093   5.250   0.000  1.00  0.00     0.000 C 
BRANCH  16  17
ATOM     17  C   UNL     1      10.392   6.000   0.000  1.00  0.00     0.003 C 
BRANCH  17  18
ATOM     18  C   UNL     1      11.691   6.750   0.000  1.00  0.00    -0.015 C 
ATOM     19  C   UNL     1      10.941   8.049   0.000  1.00  0.00     0.007 C 
BRANCH  18  20
ATOM     20  C   UNL     1      12.441   5.451   0.000  1.00  0.00    -0.000 C 
ATOM     21  C   UNL     1      13.191   4.152   0.000  1.00  0.00     0.004 C 
ENDBRANCH  18  20
ENDBRANCH  17  18
ENDBRANCH  16  17
ENDBRANCH  15  16
ENDBRANCH  14  15
ENDBRANCH  13  14
ENDBRANCH  12  13
ENDBRANCH  11  12
ENDBRANCH  10  11
ENDBRANCH   8  10
ENDBRANCH   7   8
ENDBRANCH   6   7
ENDBRANCH   5   6
BRANCH   5  22
ATOM     22  O   UNL     1      -4.097  -0.627  -1.448  1.00  0.00    -0.455 OA
BRANCH  22  23
ATOM     23  C   UNL     1      -4.891   0.350  -0.931  1.00  0.00     0.306 C 
ATOM     24  O   UNL     1      -5.068   0.417   0.280  1.00  0.00    -0.252 OA
BRANCH  23  25
ATOM     25  C   UNL     1      -5.575   1.346  -1.849  1.00  0.00     0.123 C 
BRANCH  25  26
ATOM     26  C   UNL     1      -6.432   2.315  -1.024  1.00  0.00     0.012 C 
BRANCH  26  27
ATOM     27  C   UNL     1      -7.157   3.423  -1.810  1.00  0.00     0.001 C 
BRANCH  27  28
ATOM     28  C   UNL     1      -7.933   4.243  -0.772  1.00  0.00     0.000 C 
BRANCH  28  29
ATOM     29  C   UNL     1      -8.682   5.497  -1.262  1.00  0.00     0.000 C 
BRANCH  29  30
ATOM     30  C   UNL     1      -9.348   6.093   0.000  1.00  0.00     0.000 C 
BRANCH  30  31
ATOM     31  C   UNL     1     -10.098   7.392   0.000  1.00  0.00     0.000 C 
BRANCH  31  32
ATOM     32  C   UNL     1     -10.848   8.691   0.000  1.00  0.00     0.000 C 
BRANCH  32  33
ATOM     33  C   UNL     1     -12.066   9.800   0.220  1.00  0.00     0.000 C 
BRANCH  33  34
ATOM     34  C   UNL     1     -11.986  11.379  -0.431  1.00  0.00     0.003 C 
BRANCH  34  35
ATOM     35  C   UNL     1     -13.098  12.588   0.000  1.00  0.00    -0.017 C 
ATOM     36  C   UNL     1     -13.848  13.887   0.000  1.00  0.00     0.007 C 
ATOM     37  C   UNL     1     -14.397  11.838   0.000  1.00  0.00     0.007 C 
ENDBRANCH  34  35
ENDBRANCH  33  34
ENDBRANCH  32  33
ENDBRANCH  31  32
ENDBRANCH  30  31
ENDBRANCH  29  30
ENDBRANCH  28  29
ENDBRANCH  27  28
ENDBRANCH  26  27
ENDBRANCH  25  26
ENDBRANCH  23  25
ENDBRANCH  22  23
ENDBRANCH   5  22
ENDBRANCH   4   5
ENDBRANCH   3   4
ENDBRANCH   1   3
BRANCH   1  38
ATOM     38  C   UNL     1      -7.842  -4.954  -1.033  1.00  0.00     0.123 C 
BRANCH  38  39
ATOM     39  C   UNL     1      -9.093  -5.250   0.000  1.00  0.00     0.012 C 
BRANCH  39  40
ATOM     40  C   UNL     1     -10.392  -6.000   0.000  1.00  0.00     0.001 C 
BRANCH  40  41
ATOM     41  C   UNL     1     -11.691  -6.750   0.000  1.00  0.00     0.000 C 
BRANCH  41  42
ATOM     42  C   UNL     1     -13.340  -7.069   0.054  1.00  0.00     0.000 C 
BRANCH  42  43
ATOM     43  C   UNL     1     -13.944  -8.655  -0.055  1.00  0.00     0.001 C 
BRANCH  43  44
ATOM     44  C   UNL     1     -15.588  -9.000   0.000  1.00  0.00     0.008 C 
BRANCH  44  45
ATOM     45  C   UNL     1     -16.887  -9.750   0.000  1.00  0.00    -0.017 C 
BRANCH  45  46
ATOM     46  C   UNL     1     -18.186 -10.500   0.000  1.00  0.00     0.009 C 
BRANCH  46  47
ATOM     47  C   UNL     1     -19.486 -11.250   0.000  1.00  0.00     0.009 C 
BRANCH  47  48
ATOM     48  C   UNL     1     -20.785 -12.000   0.000  1.00  0.00    -0.017 C 
BRANCH  48  49
ATOM     49  C   UNL     1     -22.084 -12.750   0.000  1.00  0.00     0.008 C 
BRANCH  49  50
ATOM     50  C   UNL     1     -23.637 -13.250   0.401  1.00  0.00     0.001 C 
BRANCH  50  51
ATOM     51  C   UNL     1     -24.429 -14.512  -0.420  1.00  0.00     0.000 C 
BRANCH  51  52
ATOM     52  C   UNL     1     -25.981 -15.000   0.000  1.00  0.00     0.000 C 
BRANCH  52  53
ATOM     53  C   UNL     1     -27.280 -15.750   0.000  1.00  0.00     0.003 C 
BRANCH  53  54
ATOM     54  C   UNL     1     -28.579 -16.500   0.000  1.00  0.00    -0.017 C 
ATOM     55  C   UNL     1     -29.878 -17.250   0.000  1.00  0.00     0.007 C 
ATOM     56  C   UNL     1     -29.329 -15.201   0.000  1.00  0.00     0.007 C 
ENDBRANCH  53  54
ENDBRANCH  52  53
ENDBRANCH  51  52
ENDBRANCH  50  51
ENDBRANCH  49  50
ENDBRANCH  48  49
ENDBRANCH  47  48
ENDBRANCH  46  47
ENDBRANCH  45  46
ENDBRANCH  44  45
ENDBRANCH  43  44
ENDBRANCH  42  43
ENDBRANCH  41  42
ENDBRANCH  40  41
ENDBRANCH  39  40
ENDBRANCH  38  39
ENDBRANCH   1  38
TORSDOF 46
