REMARK SMILES CC(=O)N[C@@H]1[C@H](O[C@H]2C[C@@H](C(=O)N[C@H](CCCCN)C(=O)N[C@H](C(=O)N[C@H](CO)C(=O)O)[C@@H](C)O[C@@H]3O[C@@H](CO)[C@H](O)[C@@H](O)[C@H]3NC(C)=O)N[C@@H]2CO)O[C@@H](CO)[C@H](OS(=O)(=O)O)[C@H]1O
REMARK SMILES IDX 14 1 20 2 22 3 21 4 23 6 33 7 34 8 35 9 36 10 45 11 43 12
REMARK SMILES IDX 37 13 41 14 38 15 46 16 47 17 49 18 48 19 44 21 42 23 39 25
REMARK SMILES IDX 40 26 24 28 25 29 26 30 27 32 28 33 29 34 30 36 31 37 32 38
REMARK SMILES IDX 15 40 16 41 17 42 18 43 19 44 13 47 11 48 12 49 10 51 9 52
REMARK SMILES IDX 50 53 8 54 51 55 7 57 6 58 54 59 5 60 55 61 64 62 58 63 4 64
REMARK SMILES IDX 2 65 3 66 1 68 56 69 57 70 65 72 59 74 60 75 61 76 62 77
REMARK SMILES IDX 63 78 52 80 53 81
REMARK H PARENT 22 5 46 20 44 22 42 24 40 27 26 31 29 35 32 39 19 45 19 46
REMARK H PARENT 13 50 50 56 4 67 57 71 65 73 63 79 53 82
ROOT
ATOM      1  C   UNL     1       0.680   0.893  -1.617  1.00  0.00     0.171 C 
ENDROOT
BRANCH   1   2
ATOM      2  C   UNL     1      -0.792   0.985  -1.936  1.00  0.00     0.243 C 
ATOM      3  N   UNL     1      -1.781   0.683  -1.038  1.00  0.00    -0.340 N 
ATOM      4  O   UNL     1      -1.081   1.304  -3.082  1.00  0.00    -0.273 OA
ATOM      5  H   UNL     1      -1.545   0.455  -0.061  1.00  0.00     0.164 HD
BRANCH   3   6
ATOM      6  C   UNL     1      -3.184   0.645  -1.450  1.00  0.00     0.200 C 
BRANCH   6   7
ATOM      7  C   UNL     1      -3.818  -0.740  -1.169  1.00  0.00     0.150 C 
ATOM      8  C   UNL     1      -2.997  -1.846  -1.857  1.00  0.00     0.041 C 
BRANCH   7   9
ATOM      9  O   UNL     1      -3.903  -1.017   0.232  1.00  0.00    -0.345 OA
BRANCH   9  10
ATOM     10  C   UNL     1      -5.135  -1.657   0.583  1.00  0.00     0.275 C 
ATOM     11  C   UNL     1      -6.186  -0.573   0.964  1.00  0.00     0.169 C 
ATOM     12  C   UNL     1      -7.581  -0.925   0.405  1.00  0.00     0.173 C 
ATOM     13  O   UNL     1      -5.551  -2.561  -0.438  1.00  0.00    -0.342 OA
ATOM     14  C   UNL     1      -7.832  -2.420   0.619  1.00  0.00     0.176 C 
ATOM     15  C   UNL     1      -6.809  -3.204  -0.244  1.00  0.00     0.178 C 
BRANCH  11  16
ATOM     16  N   UNL     1      -6.229  -0.455   2.420  1.00  0.00    -0.346 N 
ATOM     17  C   UNL     1      -5.965   0.687   3.111  1.00  0.00     0.217 C 
ATOM     18  O   UNL     1      -5.633   1.709   2.531  1.00  0.00    -0.275 OA
ATOM     19  C   UNL     1      -6.084   0.691   4.607  1.00  0.00     0.114 C 
ATOM     20  H   UNL     1      -6.494  -1.288   2.970  1.00  0.00     0.164 HD
ENDBRANCH  11  16
BRANCH  12  21
ATOM     21  O   UNL     1      -8.581  -0.110   0.967  1.00  0.00    -0.388 OA
ATOM     22  H   UNL     1      -8.758  -0.429   1.889  1.00  0.00     0.211 HD
ENDBRANCH  12  21
BRANCH  14  23
ATOM     23  O   UNL     1      -9.148  -2.792   0.290  1.00  0.00    -0.388 OA
ATOM     24  H   UNL     1      -9.335  -2.464  -0.629  1.00  0.00     0.211 HD
ENDBRANCH  14  23
BRANCH  15  25
ATOM     25  C   UNL     1      -6.624  -4.636   0.273  1.00  0.00     0.191 C 
BRANCH  25  26
ATOM     26  O   UNL     1      -5.741  -5.349  -0.550  1.00  0.00    -0.394 OA
ATOM     27  H   UNL     1      -6.247  -5.585  -1.371  1.00  0.00     0.210 HD
ENDBRANCH  25  26
ENDBRANCH  15  25
ENDBRANCH   9  10
ENDBRANCH   7   9
ENDBRANCH   6   7
BRANCH   6  28
ATOM     28  C   UNL     1      -3.969   1.811  -0.890  1.00  0.00     0.246 C 
ATOM     29  O   UNL     1      -3.459   2.553  -0.064  1.00  0.00    -0.273 OA
ATOM     30  N   UNL     1      -5.202   2.086  -1.406  1.00  0.00    -0.339 N 
ATOM     31  H   UNL     1      -5.596   1.443  -2.111  1.00  0.00     0.164 HD
BRANCH  30  32
ATOM     32  C   UNL     1      -5.963   3.289  -1.094  1.00  0.00     0.218 C 
BRANCH  32  33
ATOM     33  C   UNL     1      -7.334   2.910  -0.512  1.00  0.00     0.193 C 
BRANCH  33  34
ATOM     34  O   UNL     1      -8.064   2.109  -1.404  1.00  0.00    -0.394 OA
ATOM     35  H   UNL     1      -8.527   2.723  -2.031  1.00  0.00     0.210 HD
ENDBRANCH  33  34
ENDBRANCH  32  33
BRANCH  32  36
ATOM     36  C   UNL     1      -6.129   4.156  -2.334  1.00  0.00     0.328 C 
ATOM     37  O   UNL     1      -6.729   5.215  -2.237  1.00  0.00    -0.250 OA
BRANCH  36  38
ATOM     38  O   UNL     1      -5.622   3.811  -3.541  1.00  0.00    -0.480 OA
ATOM     39  H   UNL     1      -5.119   3.002  -3.706  1.00  0.00     0.296 HD
ENDBRANCH  36  38
ENDBRANCH  32  36
ENDBRANCH  30  32
ENDBRANCH   6  28
ENDBRANCH   3   6
ENDBRANCH   1   2
BRANCH   1  40
ATOM     40  C   UNL     1       1.456   2.224  -1.819  1.00  0.00     0.035 C 
BRANCH  40  41
ATOM     41  C   UNL     1       1.203   3.361  -0.796  1.00  0.00     0.004 C 
BRANCH  41  42
ATOM     42  C   UNL     1      -0.222   3.937  -0.747  1.00  0.00     0.015 C 
BRANCH  42  43
ATOM     43  C   UNL     1      -0.646   4.606  -2.060  1.00  0.00     0.077 C 
BRANCH  43  44
ATOM     44  N   UNL     1      -1.976   5.191  -1.923  1.00  0.00    -0.330 NA
ATOM     45  H   UNL     1      -2.674   4.424  -1.786  1.00  0.00     0.118 HD
ATOM     46  H   UNL     1      -2.218   5.679  -2.816  1.00  0.00     0.118 HD
ENDBRANCH  43  44
ENDBRANCH  42  43
ENDBRANCH  41  42
ENDBRANCH  40  41
ENDBRANCH   1  40
BRANCH   1  47
ATOM     47  N   UNL     1       0.980   0.313  -0.313  1.00  0.00    -0.343 N 
ATOM     48  C   UNL     1       1.452  -0.959  -0.181  1.00  0.00     0.237 C 
ATOM     49  O   UNL     1       1.453  -1.724  -1.137  1.00  0.00    -0.273 OA
ATOM     50  H   UNL     1       0.918   0.905   0.527  1.00  0.00     0.164 HD
BRANCH  48  51
ATOM     51  C   UNL     1       2.085  -1.407   1.117  1.00  0.00     0.146 C 
ATOM     52  C   UNL     1       3.392  -0.604   1.296  1.00  0.00     0.063 C 
ATOM     53  N   UNL     1       2.469  -2.832   1.047  1.00  0.00    -0.298 NA
ATOM     54  C   UNL     1       4.406  -1.643   1.732  1.00  0.00     0.143 C 
ATOM     55  C   UNL     1       3.926  -2.823   0.892  1.00  0.00     0.109 C 
ATOM     56  H   UNL     1       2.246  -3.261   1.978  1.00  0.00     0.123 HD
BRANCH  54  57
ATOM     57  O   UNL     1       5.738  -1.315   1.369  1.00  0.00    -0.345 OA
BRANCH  57  58
ATOM     58  C   UNL     1       6.302  -0.300   2.185  1.00  0.00     0.275 C 
ATOM     59  O   UNL     1       5.923   0.983   1.708  1.00  0.00    -0.342 OA
ATOM     60  C   UNL     1       7.859  -0.428   2.243  1.00  0.00     0.169 C 
ATOM     61  C   UNL     1       6.287   1.215   0.335  1.00  0.00     0.180 C 
ATOM     62  C   UNL     1       8.550   0.389   1.104  1.00  0.00     0.175 C 
ATOM     63  C   UNL     1       7.619   0.512  -0.108  1.00  0.00     0.204 C 
BRANCH  60  64
ATOM     64  N   UNL     1       8.246  -1.834   2.173  1.00  0.00    -0.346 N 
ATOM     65  C   UNL     1       8.931  -2.478   3.159  1.00  0.00     0.217 C 
ATOM     66  O   UNL     1       9.253  -1.894   4.184  1.00  0.00    -0.275 OA
ATOM     67  H   UNL     1       8.004  -2.363   1.321  1.00  0.00     0.164 HD
ATOM     68  C   UNL     1       9.309  -3.923   3.005  1.00  0.00     0.114 C 
ENDBRANCH  60  64
BRANCH  61  69
ATOM     69  C   UNL     1       6.328   2.741   0.125  1.00  0.00     0.191 C 
BRANCH  69  70
ATOM     70  O   UNL     1       6.489   3.052  -1.235  1.00  0.00    -0.394 OA
ATOM     71  H   UNL     1       7.436   3.317  -1.368  1.00  0.00     0.210 HD
ENDBRANCH  69  70
ENDBRANCH  61  69
BRANCH  62  72
ATOM     72  O   UNL     1       8.932   1.676   1.537  1.00  0.00    -0.388 OA
ATOM     73  H   UNL     1       8.284   2.006   2.212  1.00  0.00     0.211 HD
ENDBRANCH  62  72
BRANCH  63  74
ATOM     74  O   UNL     1       7.326  -0.786  -0.594  1.00  0.00    -0.239 OA
BRANCH  74  75
ATOM     75  S   UNL     1       7.739  -0.958  -2.273  1.00  0.00     0.397 S 
ATOM     76  O   UNL     1       7.524   0.351  -3.053  1.00  0.00    -0.169 OA
ATOM     77  O   UNL     1       9.242  -1.245  -2.405  1.00  0.00    -0.169 OA
BRANCH  75  78
ATOM     78  O   UNL     1       6.884  -2.207  -3.084  1.00  0.00    -0.264 OA
ATOM     79  H   UNL     1       6.032  -1.788  -3.368  1.00  0.00     0.236 HD
ENDBRANCH  75  78
ENDBRANCH  74  75
ENDBRANCH  63  74
ENDBRANCH  57  58
ENDBRANCH  54  57
BRANCH  55  80
ATOM     80  C   UNL     1       4.560  -4.170   1.276  1.00  0.00     0.177 C 
BRANCH  80  81
ATOM     81  O   UNL     1       5.949  -4.142   1.092  1.00  0.00    -0.395 OA
ATOM     82  H   UNL     1       6.106  -4.176   0.112  1.00  0.00     0.210 HD
ENDBRANCH  80  81
ENDBRANCH  55  80
ENDBRANCH  48  51
ENDBRANCH   1  47
TORSDOF 34
