REMARK SMILES CCCCCC[C@@H]1CO[C@@H]([C@@H](O)[C@](C)(O)[C@H]2CC[C@@]3(O)[C@H]4C(=NC[C@H](C)O)C(=O)[C@@H]5C[C@@H](O)[C@@H](O)[C@@H](CCO)[C@]5(C)[C@H]4CC[C@]23C)[C@H]1C
REMARK SMILES IDX 7 1 8 2 9 3 10 4 47 5 48 6 6 7 5 8 4 9 3 10 2 11 1 12 11 13
REMARK SMILES IDX 12 14 13 16 14 17 15 18 16 20 17 21 45 22 18 23 44 24 19 25
REMARK SMILES IDX 43 26 21 27 42 28 22 29 40 30 23 31 28 32 36 33 30 34 29 35
REMARK SMILES IDX 34 36 31 37 32 38 46 39 41 40 20 41 24 43 25 44 26 45 27 46
REMARK SMILES IDX 37 48 38 49 39 50 35 52 33 54
REMARK H PARENT 12 15 15 19 20 42 27 47 39 51 35 53 33 55
ROOT
ATOM      1  C   UNL     1       6.074  -0.711  -1.234  1.00  0.00     0.020 C 
ATOM      2  C   UNL     1       5.780  -1.939  -2.096  1.00  0.00     0.164 C 
ATOM      3  O   UNL     1       4.425  -2.306  -1.938  1.00  0.00    -0.375 OA
ATOM      4  C   UNL     1       3.765  -1.276  -1.219  1.00  0.00     0.153 C 
ATOM      5  C   UNL     1       4.712  -0.051  -1.303  1.00  0.00     0.023 C 
ATOM      6  C   UNL     1       4.413   1.074  -0.322  1.00  0.00     0.011 C 
ENDROOT
BRANCH   1   7
ATOM      7  C   UNL     1       7.318   0.028  -1.806  1.00  0.00     0.006 C 
BRANCH   7   8
ATOM      8  C   UNL     1       7.686   1.394  -1.210  1.00  0.00     0.000 C 
BRANCH   8   9
ATOM      9  C   UNL     1       7.936   1.411   0.307  1.00  0.00     0.000 C 
BRANCH   9  10
ATOM     10  C   UNL     1       9.108   0.531   0.782  1.00  0.00    -0.000 C 
BRANCH  10  11
ATOM     11  C   UNL     1      10.472   0.859   0.145  1.00  0.00    -0.003 C 
ATOM     12  C   UNL     1      10.928   2.297   0.392  1.00  0.00     0.004 C 
ENDBRANCH  10  11
ENDBRANCH   9  10
ENDBRANCH   8   9
ENDBRANCH   7   8
ENDBRANCH   1   7
BRANCH   4  13
ATOM     13  C   UNL     1       3.268  -1.962   0.113  1.00  0.00     0.175 C 
BRANCH  13  14
ATOM     14  O   UNL     1       4.349  -2.433   0.877  1.00  0.00    -0.387 OA
ATOM     15  H   UNL     1       4.793  -1.649   1.280  1.00  0.00     0.211 HD
ENDBRANCH  13  14
BRANCH  13  16
ATOM     16  C   UNL     1       2.077  -1.438   1.038  1.00  0.00     0.094 C 
ATOM     17  C   UNL     1       2.506  -0.320   2.020  1.00  0.00     0.045 C 
BRANCH  16  18
ATOM     18  O   UNL     1       1.666  -2.545   1.812  1.00  0.00    -0.387 OA
ATOM     19  H   UNL     1       2.393  -2.781   2.446  1.00  0.00     0.211 HD
ENDBRANCH  16  18
BRANCH  16  20
ATOM     20  C   UNL     1       0.830  -0.948   0.183  1.00  0.00     0.032 C 
ATOM     21  C   UNL     1       0.356  -1.952  -0.911  1.00  0.00     0.010 C 
ATOM     22  C   UNL     1      -0.549  -0.523   0.837  1.00  0.00     0.003 C 
ATOM     23  C   UNL     1      -1.111  -1.596  -1.237  1.00  0.00     0.037 C 
ATOM     24  C   UNL     1      -0.572   0.818   1.621  1.00  0.00     0.010 C 
ATOM     25  C   UNL     1      -1.399  -0.296  -0.457  1.00  0.00     0.079 C 
ATOM     26  C   UNL     1      -2.008   1.209   2.007  1.00  0.00     0.006 C 
ATOM     27  C   UNL     1      -2.903   0.120  -0.194  1.00  0.00     0.077 C 
ATOM     28  C   UNL     1      -2.965   1.361   0.777  1.00  0.00     0.008 C 
ATOM     29  C   UNL     1      -3.868  -0.994   0.187  1.00  0.00     0.084 C 
ATOM     30  C   UNL     1      -4.466   1.690   1.205  1.00  0.00    -0.013 C 
ATOM     31  N   UNL     1      -4.010  -1.950  -0.672  1.00  0.00    -0.283 NA
ATOM     32  C   UNL     1      -4.738  -0.872   1.397  1.00  0.00     0.180 C 
ATOM     33  C   UNL     1      -5.408   1.905  -0.080  1.00  0.00     0.030 C 
ATOM     34  C   UNL     1      -5.009   0.474   2.058  1.00  0.00     0.072 C 
ATOM     35  O   UNL     1      -5.236  -1.873   1.887  1.00  0.00    -0.292 OA
ATOM     36  C   UNL     1      -6.929   1.970   0.269  1.00  0.00     0.146 C 
ATOM     37  C   UNL     1      -6.518   0.626   2.377  1.00  0.00     0.047 C 
ATOM     38  C   UNL     1      -7.354   0.743   1.096  1.00  0.00     0.144 C 
ATOM     39  C   UNL     1      -1.076  -1.672   1.764  1.00  0.00     0.015 C 
ATOM     40  C   UNL     1      -4.467   2.969   2.100  1.00  0.00     0.013 C 
BRANCH  25  41
ATOM     41  O   UNL     1      -0.819   0.776  -1.182  1.00  0.00    -0.389 OA
ATOM     42  H   UNL     1      -1.216   0.789  -2.093  1.00  0.00     0.211 HD
ENDBRANCH  25  41
BRANCH  31  43
ATOM     43  C   UNL     1      -4.945  -3.051  -0.631  1.00  0.00     0.174 C 
BRANCH  43  44
ATOM     44  C   UNL     1      -4.880  -3.801  -1.971  1.00  0.00     0.132 C 
ATOM     45  C   UNL     1      -5.911  -4.930  -2.047  1.00  0.00     0.040 C 
BRANCH  44  46
ATOM     46  O   UNL     1      -3.586  -4.298  -2.208  1.00  0.00    -0.391 OA
ATOM     47  H   UNL     1      -3.372  -4.936  -1.479  1.00  0.00     0.211 HD
ENDBRANCH  44  46
ENDBRANCH  43  44
ENDBRANCH  31  43
BRANCH  33  48
ATOM     48  C   UNL     1      -4.973   3.120  -0.956  1.00  0.00     0.035 C 
BRANCH  48  49
ATOM     49  C   UNL     1      -5.758   3.263  -2.269  1.00  0.00     0.156 C 
BRANCH  49  50
ATOM     50  O   UNL     1      -5.233   4.317  -3.030  1.00  0.00    -0.396 OA
ATOM     51  H   UNL     1      -5.564   5.158  -2.618  1.00  0.00     0.210 HD
ENDBRANCH  49  50
ENDBRANCH  48  49
ENDBRANCH  33  48
BRANCH  36  52
ATOM     52  O   UNL     1      -7.243   3.164   0.942  1.00  0.00    -0.390 OA
ATOM     53  H   UNL     1      -8.160   3.427   0.669  1.00  0.00     0.211 HD
ENDBRANCH  36  52
BRANCH  38  54
ATOM     54  O   UNL     1      -8.730   0.784   1.387  1.00  0.00    -0.390 OA
ATOM     55  H   UNL     1      -8.883   1.501   2.056  1.00  0.00     0.211 HD
ENDBRANCH  38  54
ENDBRANCH  16  20
ENDBRANCH  13  16
ENDBRANCH   4  13
TORSDOF 19
