REMARK SMILES CC[C@@H](C)C(=O)O[C@@H]1OC=C2[C@@H]3C[C@@H]4C[C@]25[C@@H]1CC[C@H]5[C@]4(C)C(=O)O3
REMARK SMILES IDX 5 1 6 2 3 3 4 4 2 5 1 6 7 7 8 8 9 9 17 10 10 11 16 12 18 13
REMARK SMILES IDX 11 14 15 15 20 16 19 17 12 18 14 19 21 20 13 21 25 22 23 23
REMARK SMILES IDX 24 24 22 25
REMARK H PARENT
ROOT
ATOM      1  C   UNL     1       3.020  -0.028  -1.221  1.00  0.00     0.311 C 
ATOM      2  O   UNL     1       3.409  -0.446  -2.304  1.00  0.00    -0.252 OA
ENDROOT
BRANCH   1   3
ATOM      3  C   UNL     1       3.976   0.047  -0.044  1.00  0.00     0.096 C 
ATOM      4  C   UNL     1       5.404  -0.360  -0.463  1.00  0.00     0.020 C 
BRANCH   3   5
ATOM      5  C   UNL     1       3.442  -0.825   1.114  1.00  0.00     0.011 C 
ATOM      6  C   UNL     1       4.281  -0.724   2.391  1.00  0.00     0.005 C 
ENDBRANCH   3   5
ENDBRANCH   1   3
BRANCH   1   7
ATOM      7  O   UNL     1       1.740   0.420  -1.073  1.00  0.00    -0.425 OA
BRANCH   7   8
ATOM      8  C   UNL     1       0.825   0.545  -2.108  1.00  0.00     0.369 C 
ATOM      9  O   UNL     1       0.472   1.889  -2.255  1.00  0.00    -0.462 OA
ATOM     10  C   UNL     1      -0.451  -0.249  -1.848  1.00  0.00     0.082 C 
ATOM     11  C   UNL     1      -0.562   2.509  -1.596  1.00  0.00     0.195 C 
ATOM     12  C   UNL     1      -1.248   0.310  -0.678  1.00  0.00     0.012 C 
ATOM     13  C   UNL     1      -0.461  -1.744  -1.590  1.00  0.00     0.012 C 
ATOM     14  C   UNL     1      -1.428   1.811  -0.823  1.00  0.00     0.012 C 
ATOM     15  C   UNL     1      -0.837   0.064   0.795  1.00  0.00     0.017 C 
ATOM     16  C   UNL     1      -2.489  -0.546  -0.764  1.00  0.00     0.017 C 
ATOM     17  C   UNL     1      -1.886  -1.979  -1.004  1.00  0.00     0.006 C 
ATOM     18  C   UNL     1      -2.474   2.478   0.060  1.00  0.00     0.206 C 
ATOM     19  C   UNL     1      -2.156   0.432   1.503  1.00  0.00     0.011 C 
ATOM     20  C   UNL     1      -3.263  -0.205   0.547  1.00  0.00     0.072 C 
ATOM     21  C   UNL     1      -2.218   2.002   1.508  1.00  0.00     0.055 C 
ATOM     22  O   UNL     1      -3.768   2.086  -0.262  1.00  0.00    -0.457 OA
ATOM     23  C   UNL     1      -4.256   0.877   0.128  1.00  0.00     0.312 C 
ATOM     24  O   UNL     1      -5.463   0.688   0.144  1.00  0.00    -0.252 OA
ATOM     25  C   UNL     1      -3.983  -1.422   1.156  1.00  0.00     0.024 C 
ENDBRANCH   7   8
ENDBRANCH   1   7
TORSDOF 4
