REMARK SMILES CCN1C[C@]2(COC(=O)c3ccccc3NC(C)=O)CC[C@H](O)[C@@]34[C@@H]5C[C@H]6[C@H](O)[C@@H]5[C@](O)(C[C@@H]6OC)[C@@](O)([C@@H](OC)[C@H]23)[C@@H]14
REMARK SMILES IDX 7 1 6 2 5 3 3 4 4 5 43 6 37 7 24 8 20 9 42 10 31 11 39 12
REMARK SMILES IDX 22 13 25 14 21 15 30 16 33 17 26 18 28 19 34 20 27 21 2 22
REMARK SMILES IDX 1 23 38 24 32 26 40 28 41 29 23 30 29 32 35 34 36 35 8 36
REMARK SMILES IDX 9 37 10 38 11 39 15 40 12 41 14 42 13 43 16 44 17 45 19 46
REMARK SMILES IDX 18 48
REMARK H PARENT 38 25 32 27 23 31 29 33 16 47
ROOT
ATOM      1  O   UNL     1       3.195  -1.156  -1.384  1.00  0.00    -0.461 OA
ENDROOT
BRANCH   1   2
ATOM      2  C   UNL     1       1.831  -1.199  -1.617  1.00  0.00     0.242 C 
BRANCH   2   3
ATOM      3  C   UNL     1       1.065  -0.064  -0.870  1.00  0.00     0.024 C 
ATOM      4  N   UNL     1       0.273   0.430   1.514  1.00  0.00    -0.296 NA
ATOM      5  C   UNL     1       1.299  -0.232   0.676  1.00  0.00     0.095 C 
ATOM      6  C   UNL     1      -1.143   0.452   1.010  1.00  0.00     0.103 C 
ATOM      7  C   UNL     1      -1.859  -0.956   0.772  1.00  0.00     0.136 C 
ATOM      8  C   UNL     1      -1.195   1.048  -0.390  1.00  0.00     0.024 C 
ATOM      9  C   UNL     1       1.635   1.306  -1.391  1.00  0.00     0.015 C 
ATOM     10  C   UNL     1      -0.485  -0.164  -1.140  1.00  0.00     0.043 C 
ATOM     11  C   UNL     1      -3.421  -0.757   0.456  1.00  0.00     0.105 C 
ATOM     12  C   UNL     1      -1.058  -1.481  -0.468  1.00  0.00     0.158 C 
ATOM     13  C   UNL     1      -0.456   2.446  -0.521  1.00  0.00     0.123 C 
ATOM     14  C   UNL     1      -2.698   1.279  -0.849  1.00  0.00     0.009 C 
ATOM     15  C   UNL     1       0.581   2.389  -1.639  1.00  0.00     0.033 C 
ATOM     16  C   UNL     1      -3.552   0.039  -0.902  1.00  0.00     0.057 C 
ATOM     17  C   UNL     1      -4.105  -0.022   1.665  1.00  0.00     0.071 C 
ATOM     18  C   UNL     1      -3.622   2.298  -0.086  1.00  0.00     0.013 C 
ATOM     19  C   UNL     1      -4.938   0.629  -1.197  1.00  0.00     0.126 C 
ATOM     20  C   UNL     1      -5.312   0.841   1.286  1.00  0.00     0.126 C 
ATOM     21  C   UNL     1      -5.042   1.623  -0.047  1.00  0.00     0.048 C 
BRANCH   4  22
ATOM     22  C   UNL     1       0.455   0.075   2.945  1.00  0.00     0.081 C 
ATOM     23  C   UNL     1      -0.507   0.795   3.898  1.00  0.00     0.021 C 
ENDBRANCH   4  22
BRANCH   7  24
ATOM     24  O   UNL     1      -1.719  -1.785   1.898  1.00  0.00    -0.382 OA
ATOM     25  H   UNL     1      -1.953  -2.708   1.618  1.00  0.00     0.211 HD
ENDBRANCH   7  24
BRANCH  11  26
ATOM     26  O   UNL     1      -4.089  -1.999   0.353  1.00  0.00    -0.386 OA
ATOM     27  H   UNL     1      -3.978  -2.381  -0.551  1.00  0.00     0.211 HD
ENDBRANCH  11  26
BRANCH  12  28
ATOM     28  O   UNL     1      -1.807  -2.261  -1.389  1.00  0.00    -0.378 OA
ATOM     29  C   UNL     1      -1.391  -3.609  -1.411  1.00  0.00     0.195 C 
ENDBRANCH  12  28
BRANCH  13  30
ATOM     30  O   UNL     1       0.054   2.932   0.703  1.00  0.00    -0.392 OA
ATOM     31  H   UNL     1       1.040   2.837   0.725  1.00  0.00     0.210 HD
ENDBRANCH  13  30
BRANCH  19  32
ATOM     32  O   UNL     1      -5.991  -0.300  -1.244  1.00  0.00    -0.392 OA
ATOM     33  H   UNL     1      -5.646  -1.135  -1.650  1.00  0.00     0.210 HD
ENDBRANCH  19  32
BRANCH  20  34
ATOM     34  O   UNL     1      -6.464   0.018   1.182  1.00  0.00    -0.381 OA
ATOM     35  C   UNL     1      -7.557   0.581   1.873  1.00  0.00     0.195 C 
ENDBRANCH  20  34
ENDBRANCH   2   3
ENDBRANCH   1   2
BRANCH   1  36
ATOM     36  C   UNL     1       4.053  -2.104  -1.846  1.00  0.00     0.340 C 
ATOM     37  O   UNL     1       3.602  -3.055  -2.472  1.00  0.00    -0.246 OA
BRANCH  36  38
ATOM     38  C   UNL     1       5.542  -2.022  -1.627  1.00  0.00     0.083 A 
ATOM     39  C   UNL     1       6.323  -3.063  -2.182  1.00  0.00     0.018 A 
ATOM     40  C   UNL     1       6.209  -0.953  -0.945  1.00  0.00     0.055 A 
ATOM     41  C   UNL     1       7.710  -3.072  -2.068  1.00  0.00     0.001 A 
ATOM     42  C   UNL     1       7.623  -0.998  -0.850  1.00  0.00     0.027 A 
ATOM     43  C   UNL     1       8.356  -2.043  -1.403  1.00  0.00     0.002 A 
BRANCH  40  44
ATOM     44  N   UNL     1       5.484   0.126  -0.335  1.00  0.00    -0.326 N 
ATOM     45  C   UNL     1       5.944   1.406  -0.199  1.00  0.00     0.221 C 
ATOM     46  O   UNL     1       7.019   1.749  -0.662  1.00  0.00    -0.275 OA
ATOM     47  H   UNL     1       4.540  -0.059   0.015  1.00  0.00     0.169 HD
ATOM     48  C   UNL     1       5.099   2.449   0.476  1.00  0.00     0.114 C 
ENDBRANCH  40  44
ENDBRANCH  36  38
ENDBRANCH   1  36
TORSDOF 12
