REMARK SMILES CC[C@@H](C)[C@H](NC(=O)C[C@@H](C1=C(O)[C@@]2(Oc3c(Cl)c(OC)cc(OC)c3C2=O)[C@H](C)CC1=O)c1ccc2c(c1)OCO2)C(=O)N1C[C@H]2C[C@@H](C1)c1cccc(=O)n1C2
REMARK SMILES IDX 6 1 7 2 8 3 5 5 3 6 4 7 2 8 1 9 43 10 44 11 45 12 46 13
REMARK SMILES IDX 50 14 47 15 49 16 48 17 58 18 51 19 57 20 52 21 55 22 53 23
REMARK SMILES IDX 54 24 56 25 9 26 10 27 11 28 12 29 32 30 14 31 31 32 33 33
REMARK SMILES IDX 15 34 29 35 27 36 16 37 26 38 28 39 17 40 23 41 19 42 22 43
REMARK SMILES IDX 30 44 18 45 13 46 24 48 25 49 20 50 21 51 34 52 39 53 35 54
REMARK SMILES IDX 38 55 36 56 37 57 40 58 42 59 41 60
REMARK H PARENT 6 4 13 47
ROOT
ATOM      1  N   UNL     1      -2.205  -0.347   0.576  1.00  0.00    -0.344 N 
ATOM      2  C   UNL     1      -0.912  -0.808   0.666  1.00  0.00     0.221 C 
ATOM      3  O   UNL     1      -0.079  -0.551  -0.177  1.00  0.00    -0.275 OA
ATOM      4  H   UNL     1      -2.833  -0.650   1.337  1.00  0.00     0.164 HD
ENDROOT
BRANCH   1   5
ATOM      5  C   UNL     1      -2.862   0.529  -0.429  1.00  0.00     0.174 C 
BRANCH   5   6
ATOM      6  C   UNL     1      -1.951   1.173  -1.555  1.00  0.00     0.018 C 
ATOM      7  C   UNL     1      -1.448   0.177  -2.634  1.00  0.00     0.010 C 
BRANCH   6   8
ATOM      8  C   UNL     1      -0.902   2.163  -0.970  1.00  0.00     0.002 C 
ATOM      9  C   UNL     1      -0.183   2.979  -2.044  1.00  0.00     0.004 C 
ENDBRANCH   6   8
ENDBRANCH   5   6
BRANCH   5  10
ATOM     10  C   UNL     1      -4.061  -0.211  -1.068  1.00  0.00     0.245 C 
ATOM     11  O   UNL     1      -4.116  -1.423  -0.904  1.00  0.00    -0.272 OA
BRANCH  10  12
ATOM     12  N   UNL     1      -5.009   0.405  -1.874  1.00  0.00    -0.340 N 
ATOM     13  C   UNL     1      -5.078   1.851  -2.080  1.00  0.00     0.125 C 
ATOM     14  C   UNL     1      -5.955  -0.389  -2.666  1.00  0.00     0.129 C 
ATOM     15  C   UNL     1      -6.523   2.394  -1.973  1.00  0.00     0.029 C 
ATOM     16  C   UNL     1      -7.391   0.163  -2.548  1.00  0.00     0.056 C 
ATOM     17  C   UNL     1      -7.421   1.644  -2.953  1.00  0.00     0.019 C 
ATOM     18  C   UNL     1      -7.131   2.314  -0.552  1.00  0.00     0.131 C 
ATOM     19  C   UNL     1      -7.914   0.011  -1.141  1.00  0.00     0.026 A 
ATOM     20  N   UNL     1      -7.782   1.025  -0.218  1.00  0.00    -0.312 N 
ATOM     21  C   UNL     1      -8.599  -1.167  -0.805  1.00  0.00     0.022 A 
ATOM     22  C   UNL     1      -8.337   0.881   1.046  1.00  0.00     0.250 A 
ATOM     23  C   UNL     1      -9.152  -1.311   0.463  1.00  0.00     0.007 A 
ATOM     24  C   UNL     1      -9.022  -0.287   1.393  1.00  0.00     0.072 A 
ATOM     25  O   UNL     1      -8.248   1.776   1.870  1.00  0.00    -0.269 OA
ENDBRANCH  10  12
ENDBRANCH   5  10
ENDBRANCH   1   5
BRANCH   2  26
ATOM     26  C   UNL     1      -0.500  -1.684   1.839  1.00  0.00     0.113 C 
BRANCH  26  27
ATOM     27  C   UNL     1       0.964  -2.222   1.761  1.00  0.00     0.066 C 
BRANCH  27  28
ATOM     28  C   UNL     1       2.083  -1.147   1.816  1.00  0.00     0.045 C 
ATOM     29  C   UNL     1       2.899  -0.805   0.755  1.00  0.00     0.152 C 
ATOM     30  C   UNL     1       2.365  -0.477   3.112  1.00  0.00     0.163 C 
ATOM     31  C   UNL     1       4.018   0.257   0.880  1.00  0.00     0.231 C 
ATOM     32  C   UNL     1       3.776  -0.100   3.406  1.00  0.00     0.089 C 
ATOM     33  O   UNL     1       1.493  -0.259   3.935  1.00  0.00    -0.294 OA
ATOM     34  O   UNL     1       3.701   1.336   0.066  1.00  0.00    -0.468 OA
ATOM     35  C   UNL     1       4.217   0.858   2.323  1.00  0.00     0.054 C 
ATOM     36  C   UNL     1       5.319  -0.239   0.260  1.00  0.00     0.222 C 
ATOM     37  C   UNL     1       4.667   1.613  -0.819  1.00  0.00     0.158 A 
ATOM     38  C   UNL     1       5.688   0.708  -0.783  1.00  0.00     0.108 A 
ATOM     39  O   UNL     1       5.973  -1.208   0.619  1.00  0.00    -0.289 OA
ATOM     40  C   UNL     1       4.689   2.720  -1.663  1.00  0.00     0.126 A 
ATOM     41  C   UNL     1       6.815   0.840  -1.608  1.00  0.00     0.137 A 
ATOM     42  C   UNL     1       5.798   2.912  -2.501  1.00  0.00     0.144 A 
ATOM     43  C   UNL     1       6.859   1.966  -2.482  1.00  0.00     0.095 A 
ATOM     44  C   UNL     1       5.654   1.345   2.611  1.00  0.00     0.013 C 
ATOM     45  Cl  UNL     1       3.361   3.869  -1.640  1.00  0.00    -0.076 Cl
BRANCH  29  46
ATOM     46  O   UNL     1       2.764  -1.355  -0.480  1.00  0.00    -0.507 OA
ATOM     47  H   UNL     1       2.129  -2.026  -0.750  1.00  0.00     0.293 HD
ENDBRANCH  29  46
BRANCH  41  48
ATOM     48  O   UNL     1       7.814  -0.075  -1.542  1.00  0.00    -0.496 OA
ATOM     49  C   UNL     1       8.984  -0.026  -2.274  1.00  0.00     0.278 C 
ENDBRANCH  41  48
BRANCH  42  50
ATOM     50  O   UNL     1       5.818   4.024  -3.286  1.00  0.00    -0.495 OA
ATOM     51  C   UNL     1       6.869   4.453  -4.065  1.00  0.00     0.278 C 
ENDBRANCH  42  50
ENDBRANCH  27  28
BRANCH  27  52
ATOM     52  C   UNL     1       1.251  -3.274   2.837  1.00  0.00    -0.036 A 
ATOM     53  C   UNL     1       1.916  -4.476   2.482  1.00  0.00     0.055 A 
ATOM     54  C   UNL     1       0.914  -3.065   4.209  1.00  0.00     0.008 A 
ATOM     55  C   UNL     1       2.237  -5.376   3.499  1.00  0.00     0.166 A 
ATOM     56  C   UNL     1       1.260  -4.002   5.195  1.00  0.00     0.051 A 
ATOM     57  C   UNL     1       1.926  -5.145   4.791  1.00  0.00     0.165 A 
ATOM     58  O   UNL     1       2.877  -6.545   3.407  1.00  0.00    -0.454 OA
ATOM     59  O   UNL     1       2.369  -6.156   5.543  1.00  0.00    -0.454 OA
ATOM     60  C   UNL     1       2.985  -7.070   4.694  1.00  0.00     0.468 C 
ENDBRANCH  27  52
ENDBRANCH  26  27
ENDBRANCH   2  26
TORSDOF 12
