REMARK SMILES COc1cc2ccc3c(OC)c(O[C@@H]4O[C@H](CO[C@@H]5O[C@@H](C)[C@H](O)[C@@H](O)[C@H]5O)[C@@H](O)[C@H](O)[C@H]4O)ccc3c2c(OC)c1O
REMARK SMILES IDX 14 1 15 2 16 3 29 4 31 5 33 6 13 7 12 8 3 9 4 10 42 11 5 12
REMARK SMILES IDX 39 13 6 14 38 15 7 16 37 17 8 18 36 19 9 20 35 21 2 22 1 23
REMARK SMILES IDX 43 24 40 26 41 27 10 28 11 29 34 30 17 32 18 33 19 34 20 35
REMARK SMILES IDX 27 36 21 37 25 38 23 39 22 40 28 41 26 43 24 45 32 47 30 49
REMARK H PARENT 43 25 34 31 28 42 26 44 24 46 32 48 30 50
ROOT
ATOM      1  C   UNL     1      -0.544  -1.165  -1.646  1.00  0.00     0.339 C 
ATOM      2  O   UNL     1      -1.571  -1.729  -0.844  1.00  0.00    -0.332 OA
ATOM      3  C   UNL     1      -2.801  -1.048  -1.047  1.00  0.00     0.180 C 
ATOM      4  C   UNL     1      -3.287  -1.267  -2.509  1.00  0.00     0.177 C 
ATOM      5  C   UNL     1      -2.199  -0.796  -3.495  1.00  0.00     0.180 C 
ATOM      6  C   UNL     1      -0.847  -1.451  -3.131  1.00  0.00     0.214 C 
ENDROOT
BRANCH   1   7
ATOM      7  O   UNL     1       0.655  -1.767  -1.297  1.00  0.00    -0.458 OA
BRANCH   7   8
ATOM      8  C   UNL     1       1.811  -1.293  -0.737  1.00  0.00     0.165 A 
ATOM      9  C   UNL     1       7.998   0.717   2.323  1.00  0.00     0.165 A 
ATOM     10  C   UNL     1       6.941   1.591   2.064  1.00  0.00     0.059 A 
ATOM     11  C   UNL     1       7.876  -0.625   1.968  1.00  0.00     0.201 A 
ATOM     12  C   UNL     1       5.761   1.139   1.461  1.00  0.00    -0.010 A 
ATOM     13  C   UNL     1       6.701  -1.108   1.340  1.00  0.00     0.172 A 
ATOM     14  C   UNL     1       4.749   2.071   1.247  1.00  0.00     0.010 A 
ATOM     15  C   UNL     1       5.593  -0.228   1.082  1.00  0.00     0.036 A 
ATOM     16  C   UNL     1       3.563   1.705   0.651  1.00  0.00     0.013 A 
ATOM     17  C   UNL     1       4.334  -0.610   0.467  1.00  0.00    -0.003 A 
ATOM     18  C   UNL     1       3.329   0.384   0.244  1.00  0.00     0.028 A 
ATOM     19  C   UNL     1       4.013  -1.933   0.075  1.00  0.00     0.013 A 
ATOM     20  C   UNL     1       2.086   0.053  -0.374  1.00  0.00     0.168 A 
ATOM     21  C   UNL     1       2.789  -2.251  -0.501  1.00  0.00     0.051 A 
BRANCH   9  22
ATOM     22  O   UNL     1       9.152   1.129   2.915  1.00  0.00    -0.493 OA
ATOM     23  C   UNL     1       9.445   2.418   3.312  1.00  0.00     0.278 C 
ENDBRANCH   9  22
BRANCH  11  24
ATOM     24  O   UNL     1       8.910  -1.449   2.256  1.00  0.00    -0.502 OA
ATOM     25  H   UNL     1       8.894  -2.404   2.114  1.00  0.00     0.293 HD
ENDBRANCH  11  24
BRANCH  13  26
ATOM     26  O   UNL     1       6.669  -2.412   0.994  1.00  0.00    -0.492 OA
ATOM     27  C   UNL     1       7.324  -2.897  -0.123  1.00  0.00     0.278 C 
ENDBRANCH  13  26
BRANCH  20  28
ATOM     28  O   UNL     1       1.179   1.030  -0.603  1.00  0.00    -0.492 OA
ATOM     29  C   UNL     1       1.291   1.919  -1.655  1.00  0.00     0.278 C 
ENDBRANCH  20  28
ENDBRANCH   7   8
ENDBRANCH   1   7
BRANCH   6  30
ATOM     30  O   UNL     1       0.189  -0.994  -3.965  1.00  0.00    -0.384 OA
ATOM     31  H   UNL     1       0.141  -0.005  -4.000  1.00  0.00     0.211 HD
ENDBRANCH   6  30
BRANCH   3  32
ATOM     32  C   UNL     1      -3.821  -1.593  -0.036  1.00  0.00     0.198 C 
BRANCH  32  33
ATOM     33  O   UNL     1      -5.028  -0.850  -0.100  1.00  0.00    -0.347 OA
BRANCH  33  34
ATOM     34  C   UNL     1      -5.133   0.100   0.952  1.00  0.00     0.281 C 
ATOM     35  O   UNL     1      -5.979  -0.408   1.988  1.00  0.00    -0.344 OA
ATOM     36  C   UNL     1      -5.592   1.464   0.401  1.00  0.00     0.202 C 
ATOM     37  C   UNL     1      -7.381  -0.127   1.871  1.00  0.00     0.150 C 
ATOM     38  C   UNL     1      -6.988   1.326  -0.242  1.00  0.00     0.179 C 
ATOM     39  C   UNL     1      -7.857   0.222   0.423  1.00  0.00     0.174 C 
ATOM     40  C   UNL     1      -7.825   0.892   2.931  1.00  0.00     0.041 C 
BRANCH  36  41
ATOM     41  O   UNL     1      -5.625   2.403   1.446  1.00  0.00    -0.385 OA
ATOM     42  H   UNL     1      -4.698   2.511   1.784  1.00  0.00     0.211 HD
ENDBRANCH  36  41
BRANCH  38  43
ATOM     43  O   UNL     1      -7.642   2.570  -0.315  1.00  0.00    -0.387 OA
ATOM     44  H   UNL     1      -7.980   2.787   0.589  1.00  0.00     0.211 HD
ENDBRANCH  38  43
BRANCH  39  45
ATOM     45  O   UNL     1      -7.843  -0.924  -0.409  1.00  0.00    -0.388 OA
ATOM     46  H   UNL     1      -7.331  -1.662   0.011  1.00  0.00     0.211 HD
ENDBRANCH  39  45
ENDBRANCH  33  34
ENDBRANCH  32  33
ENDBRANCH   3  32
BRANCH   5  47
ATOM     47  O   UNL     1      -2.560  -1.070  -4.826  1.00  0.00    -0.387 OA
ATOM     48  H   UNL     1      -2.644  -2.055  -4.917  1.00  0.00     0.211 HD
ENDBRANCH   5  47
BRANCH   4  49
ATOM     49  O   UNL     1      -4.503  -0.610  -2.766  1.00  0.00    -0.387 OA
ATOM     50  H   UNL     1      -4.364   0.357  -2.589  1.00  0.00     0.211 HD
ENDBRANCH   4  49
TORSDOF 15
