REMARK SMILES C[C@@H]1C/C=C/C(=O)O[C@@H](C)C[C@@H](O)C(=O)/C=C/C(=O)O1
REMARK SMILES IDX 1 1 2 2 3 3 4 4 5 5 6 6 7 7 8 8 9 9 10 10 11 11 20 13 18 14
REMARK SMILES IDX 19 15 17 16 16 17 14 18 15 19 12 20 13 22
REMARK H PARENT 13 23
REMARK Flexibility Score:   53.900
ROOT
ATOM      1  C   UNL     1       4.858   0.769   0.426  1.00  0.00     0.053 C 
ATOM      2  C   UNL     1       3.410   0.300   0.555  1.00  0.00     0.177 C 
ENDROOT
BRANCH   2   3
ATOM      3  C   UNL     1       3.070  -0.762  -0.514  1.00  0.00     0.072 C 
BRANCH   3   4
ATOM      4  C   UNL     1       1.590  -1.093  -0.500  1.00  0.00    -0.016 C 
ATOM      5  C   UNL     1       0.835  -0.958  -1.609  1.00  0.00     0.089 C 
BRANCH   5   6
ATOM      6  C   UNL     1      -0.630  -1.182  -1.629  1.00  0.00     0.330 C 
ATOM      7  O   UNL     1      -1.230  -1.079  -2.690  1.00  0.00    -0.247 OA
BRANCH   6   8
ATOM      8  O   UNL     1      -1.307  -1.430  -0.477  1.00  0.00    -0.459 OA
BRANCH   8   9
ATOM      9  C   UNL     1      -2.688  -1.494  -0.342  1.00  0.00     0.176 C 
ATOM     10  C   UNL     1      -3.034  -2.135   1.010  1.00  0.00     0.053 C 
BRANCH   9  11
ATOM     11  C   UNL     1      -3.405  -0.118  -0.563  1.00  0.00     0.085 CG0
ATOM     12  G   UNL     1      -2.794   1.172   0.076  1.00  0.00     0.000 G0
ENDBRANCH   9  11
ENDBRANCH   8   9
ENDBRANCH   6   8
ENDBRANCH   5   6
ENDBRANCH   3   4
ENDBRANCH   2   3
BRANCH   2  13
ATOM     13  O   UNL     1       2.552   1.378   0.420  1.00  0.00    -0.459 OA
BRANCH  13  14
ATOM     14  C   UNL     1       1.684   1.749   1.399  1.00  0.00     0.331 C 
ATOM     15  O   UNL     1       2.047   1.795   2.566  1.00  0.00    -0.247 OA
BRANCH  14  16
ATOM     16  C   UNL     1       0.246   1.839   1.082  1.00  0.00     0.097 C 
ATOM     17  C   UNL     1      -0.167   1.760  -0.194  1.00  0.00     0.057 C 
BRANCH  17  18
ATOM     18  C   UNL     1      -1.560   1.639  -0.699  1.00  0.00     0.184 C 
ATOM     19  O   UNL     1      -1.713   1.844  -1.895  1.00  0.00    -0.292 OA
BRANCH  18  20
ATOM     20  C   UNL     1      -2.794   1.172   0.076  1.00  0.00     0.189 CG0
ATOM     21  G   UNL     1      -3.405  -0.118  -0.563  1.00  0.00     0.000 G0
BRANCH  20  22
ATOM     22  O   UNL     1      -2.596   1.017   1.453  1.00  0.00    -0.385 OA
ATOM     23  H   UNL     1      -1.877   0.349   1.567  1.00  0.00     0.211 HD
ENDBRANCH  20  22
ENDBRANCH  18  20
ENDBRANCH  17  18
ENDBRANCH  14  16
ENDBRANCH  13  14
ENDBRANCH   2  13
TORSDOF 1
