REMARK SMILES NC(=O)C(=O)N1CCN2C(=O)c3cc(-c4ccc(Cl)cc4)ccc3NC(=O)[C@H]2C1
REMARK SMILES IDX 6 1 7 2 8 3 9 4 28 5 29 6 4 8 5 9 2 10 1 11 3 12 10 15 11 16
REMARK SMILES IDX 12 17 13 18 24 19 14 20 23 21 22 22 25 23 26 24 27 25 15 28
REMARK SMILES IDX 16 29 21 30 17 31 20 32 18 33 19 34
REMARK H PARENT 1 13 1 14 25 26
REMARK Flexibility Score:   65.900
ROOT
ATOM      1  N   UNL     1      -4.197  -0.387   0.768  1.00  0.00    -0.330 N 
ATOM      2  C   UNL     1      -3.399  -1.094   1.770  1.00  0.00     0.141 C 
ATOM      3  C   UNL     1      -2.206  -0.207   2.107  1.00  0.00     0.142 C 
ATOM      4  N   UNL     1      -1.336  -0.175   0.929  1.00  0.00    -0.323 N 
ATOM      5  C   UNL     1      -1.953  -0.039  -0.388  1.00  0.00     0.194 CG0
ATOM      6  C   UNL     1      -3.477   0.320  -0.298  1.00  0.00     0.155 C 
ATOM      7  G   UNL     1      -1.734  -1.289  -1.206  1.00  0.00     0.000 G0
ENDROOT
BRANCH   1   8
ATOM      8  C   UNL     1      -5.563  -0.251   0.947  1.00  0.00     0.311 C 
ATOM      9  O   UNL     1      -6.100  -0.821   1.888  1.00  0.00    -0.263 OA
BRANCH   8  10
ATOM     10  C   UNL     1      -6.462   0.553   0.049  1.00  0.00     0.306 C 
ATOM     11  N   UNL     1      -7.797   0.602   0.289  1.00  0.00    -0.361 N 
ATOM     12  O   UNL     1      -6.020   1.176  -0.902  1.00  0.00    -0.264 OA
ATOM     13  H   UNL     1      -8.416   1.152  -0.324  1.00  0.00     0.160 HD
ATOM     14  H   UNL     1      -8.222   0.096   1.079  1.00  0.00     0.160 HD
ENDBRANCH   8  10
ENDBRANCH   1   8
BRANCH   4  15
ATOM     15  C   UNL     1       0.024  -0.288   1.085  1.00  0.00     0.256 C 
ATOM     16  O   UNL     1       0.488  -0.260   2.218  1.00  0.00    -0.269 OA
BRANCH  15  17
ATOM     17  C   UNL     1       1.006  -0.411  -0.043  1.00  0.00     0.064 A 
ATOM     18  C   UNL     1       2.326   0.033   0.216  1.00  0.00     0.024 A 
ATOM     19  C   UNL     1       0.739  -1.035  -1.293  1.00  0.00     0.054 A 
ATOM     20  C   UNL     1       3.371  -0.087  -0.724  1.00  0.00    -0.017 A 
ATOM     21  C   UNL     1       1.784  -1.166  -2.220  1.00  0.00     0.027 A 
ATOM     22  C   UNL     1       3.064  -0.689  -1.956  1.00  0.00     0.011 A 
BRANCH  19  23
ATOM     23  N   UNL     1      -0.502  -1.650  -1.639  1.00  0.00    -0.323 N 
ATOM     24  C   UNL     1      -1.734  -1.289  -1.206  1.00  0.00     0.249 CG0
ATOM     25  O   UNL     1      -2.697  -1.942  -1.587  1.00  0.00    -0.272 OA
ATOM     26  H   UNL     1      -0.465  -2.417  -2.330  1.00  0.00     0.170 HD
ATOM     27  G   UNL     1      -1.953  -0.039  -0.388  1.00  0.00     0.000 G0
ENDBRANCH  19  23
BRANCH  20  28
ATOM     28  C   UNL     1       4.772   0.382  -0.410  1.00  0.00    -0.018 A 
ATOM     29  C   UNL     1       5.187   0.618   0.924  1.00  0.00     0.010 A 
ATOM     30  C   UNL     1       5.727   0.589  -1.435  1.00  0.00     0.010 A 
ATOM     31  C   UNL     1       6.490   1.034   1.213  1.00  0.00     0.021 A 
ATOM     32  C   UNL     1       7.026   1.012  -1.137  1.00  0.00     0.021 A 
ATOM     33  C   UNL     1       7.409   1.232   0.185  1.00  0.00     0.041 A 
ATOM     34  Cl  UNL     1       9.042   1.754   0.555  1.00  0.00    -0.084 Cl
ENDBRANCH  20  28
ENDBRANCH  15  17
ENDBRANCH   4  15
TORSDOF 3
