REMARK SMILES CCC[C@]12CN3C[C@](CCC)(CN(C1)[C@H]3c1cc3ccc(OC)cc3[nH]c1=O)C2=O
REMARK SMILES IDX 4 1 14 2 13 3 12 4 8 5 7 6 6 7 5 8 15 9 29 10 30 11 3 12
REMARK SMILES IDX 2 13 1 14 9 15 10 16 11 17 16 18 17 19 27 20 18 21 26 22
REMARK SMILES IDX 28 23 19 24 25 25 20 26 24 27 21 28 22 30 23 31
REMARK H PARENT 26 29
ROOT
ATOM      1  C   UNL     1      -1.789   0.949  -0.400  1.00  0.00     0.055 C 
ATOM      2  C   UNL     1      -1.060   0.861   0.967  1.00  0.00     0.102 C 
ATOM      3  N   UNL     1      -0.772  -0.550   1.315  1.00  0.00    -0.282 NA
ATOM      4  C   UNL     1      -2.051  -1.301   1.443  1.00  0.00     0.102 C 
ATOM      5  C   UNL     1      -2.793  -1.347   0.072  1.00  0.00     0.055 C 
ATOM      6  C   UNL     1      -1.834  -1.918  -1.019  1.00  0.00     0.102 C 
ATOM      7  N   UNL     1      -0.570  -1.135  -1.057  1.00  0.00    -0.282 NA
ATOM      8  C   UNL     1      -0.888   0.261  -1.458  1.00  0.00     0.102 C 
ATOM      9  C   UNL     1       0.062  -1.236   0.294  1.00  0.00     0.164 C 
ATOM     10  C   UNL     1      -3.036   0.095  -0.305  1.00  0.00     0.150 C 
ATOM     11  O   UNL     1      -4.157   0.527  -0.543  1.00  0.00    -0.298 OA
ENDROOT
BRANCH   1  12
ATOM     12  C   UNL     1      -2.084   2.422  -0.819  1.00  0.00     0.017 C 
BRANCH  12  13
ATOM     13  C   UNL     1      -2.922   3.235   0.194  1.00  0.00    -0.002 C 
ATOM     14  C   UNL     1      -3.214   4.638  -0.331  1.00  0.00     0.004 C 
ENDBRANCH  12  13
ENDBRANCH   1  12
BRANCH   5  15
ATOM     15  C   UNL     1      -4.130  -2.146   0.145  1.00  0.00     0.017 C 
BRANCH  15  16
ATOM     16  C   UNL     1      -3.982  -3.639   0.506  1.00  0.00    -0.002 C 
ATOM     17  C   UNL     1      -5.342  -4.330   0.542  1.00  0.00     0.004 C 
ENDBRANCH  15  16
ENDBRANCH   5  15
BRANCH   9  18
ATOM     18  C   UNL     1       1.584  -0.936   0.362  1.00  0.00     0.050 A 
ATOM     19  C   UNL     1       2.164   0.303   0.008  1.00  0.00     0.022 A 
ATOM     20  C   UNL     1       2.477  -1.960   0.803  1.00  0.00     0.254 A 
ATOM     21  C   UNL     1       3.554   0.496   0.059  1.00  0.00    -0.001 A 
ATOM     22  N   UNL     1       3.829  -1.738   0.862  1.00  0.00    -0.321 N 
ATOM     23  O   UNL     1       2.061  -3.055   1.139  1.00  0.00    -0.269 OA
ATOM     24  C   UNL     1       4.135   1.716  -0.329  1.00  0.00     0.014 A 
ATOM     25  C   UNL     1       4.380  -0.553   0.498  1.00  0.00     0.052 A 
ATOM     26  C   UNL     1       5.524   1.882  -0.284  1.00  0.00     0.047 A 
ATOM     27  C   UNL     1       5.771  -0.376   0.552  1.00  0.00     0.073 A 
ATOM     28  C   UNL     1       6.354   0.832   0.160  1.00  0.00     0.120 A 
ATOM     29  H   UNL     1       4.450  -2.514   1.192  1.00  0.00     0.170 HD
BRANCH  28  30
ATOM     30  O   UNL     1       7.707   0.936   0.219  1.00  0.00    -0.497 OA
ATOM     31  C   UNL     1       8.453   2.023  -0.184  1.00  0.00     0.278 C 
ENDBRANCH  28  30
ENDBRANCH   9  18
TORSDOF 6
