REMARK SMILES CC(C)=CCC[C@H](C)[C@H]1CC[C@H](C)c2c1cc(C)c(O[C@@H]1OC[C@@H](O)[C@@H](O)[C@@H]1O)c2O
REMARK SMILES IDX 9 1 10 2 11 3 12 4 13 5 14 6 15 7 16 8 17 9 18 10 19 11
REMARK SMILES IDX 30 12 7 13 8 14 6 15 5 16 4 17 2 18 1 19 3 20 31 21 20 23
REMARK SMILES IDX 21 24 22 25 28 26 23 27 26 28 24 29 29 30 27 32 25 34
REMARK H PARENT 31 22 29 31 27 33 25 35
ROOT
ATOM      1  C   UNL     1       1.744  -0.993  -0.509  1.00  0.00     0.022 C 
ATOM      2  C   UNL     1       2.267  -1.649   0.784  1.00  0.00     0.009 C 
ATOM      3  C   UNL     1       1.153  -2.196   1.654  1.00  0.00     0.009 C 
ATOM      4  C   UNL     1       0.283  -1.016   2.121  1.00  0.00     0.020 C 
ATOM      5  C   UNL     1      -0.678  -1.544   3.204  1.00  0.00     0.013 C 
ATOM      6  C   UNL     1      -0.364  -0.349   0.891  1.00  0.00     0.004 A 
ATOM      7  C   UNL     1       0.344  -0.367  -0.350  1.00  0.00    -0.037 A 
ATOM      8  C   UNL     1      -0.264   0.172  -1.500  1.00  0.00     0.011 A 
ATOM      9  C   UNL     1      -1.531   0.756  -1.455  1.00  0.00    -0.005 A 
ATOM     10  C   UNL     1      -2.135   1.322  -2.714  1.00  0.00     0.048 C 
ATOM     11  C   UNL     1      -2.220   0.816  -0.237  1.00  0.00     0.167 A 
ATOM     12  C   UNL     1      -1.645   0.276   0.931  1.00  0.00     0.161 A 
ENDROOT
BRANCH   1  13
ATOM     13  C   UNL     1       2.776   0.047  -1.095  1.00  0.00    -0.006 C 
ATOM     14  C   UNL     1       2.812   1.361  -0.288  1.00  0.00     0.008 C 
BRANCH  13  15
ATOM     15  C   UNL     1       4.195  -0.504  -1.458  1.00  0.00     0.008 C 
BRANCH  15  16
ATOM     16  C   UNL     1       5.238  -0.941  -0.395  1.00  0.00     0.027 C 
BRANCH  16  17
ATOM     17  C   UNL     1       5.708   0.166   0.525  1.00  0.00    -0.028 C 
ATOM     18  C   UNL     1       6.965   0.665   0.569  1.00  0.00    -0.080 C 
ATOM     19  C   UNL     1       7.265   1.761   1.561  1.00  0.00     0.039 C 
ATOM     20  C   UNL     1       8.065   0.166  -0.336  1.00  0.00     0.039 C 
ENDBRANCH  16  17
ENDBRANCH  15  16
ENDBRANCH  13  15
ENDBRANCH   1  13
BRANCH  12  21
ATOM     21  O   UNL     1      -2.326   0.360   2.091  1.00  0.00    -0.504 OA
ATOM     22  H   UNL     1      -3.178   0.803   2.187  1.00  0.00     0.293 HD
ENDBRANCH  12  21
BRANCH  11  23
ATOM     23  O   UNL     1      -3.450   1.387  -0.176  1.00  0.00    -0.458 OA
BRANCH  23  24
ATOM     24  C   UNL     1      -4.610   0.720  -0.533  1.00  0.00     0.339 C 
ATOM     25  O   UNL     1      -5.238   1.370  -1.618  1.00  0.00    -0.338 OA
ATOM     26  C   UNL     1      -5.576   0.637   0.686  1.00  0.00     0.214 C 
ATOM     27  C   UNL     1      -6.352   0.619  -2.126  1.00  0.00     0.199 C 
ATOM     28  C   UNL     1      -7.030   0.329   0.233  1.00  0.00     0.180 C 
ATOM     29  C   UNL     1      -7.020  -0.382  -1.127  1.00  0.00     0.171 C 
BRANCH  26  30
ATOM     30  O   UNL     1      -5.565   1.808   1.466  1.00  0.00    -0.384 OA
ATOM     31  H   UNL     1      -5.734   2.574   0.857  1.00  0.00     0.211 HD
ENDBRANCH  26  30
BRANCH  28  32
ATOM     32  O   UNL     1      -7.761  -0.357   1.219  1.00  0.00    -0.387 OA
ATOM     33  H   UNL     1      -7.241  -1.157   1.486  1.00  0.00     0.211 HD
ENDBRANCH  28  32
BRANCH  29  34
ATOM     34  O   UNL     1      -6.291  -1.584  -1.074  1.00  0.00    -0.388 OA
ATOM     35  H   UNL     1      -6.805  -2.216  -0.509  1.00  0.00     0.211 HD
ENDBRANCH  29  34
ENDBRANCH  23  24
ENDBRANCH  11  23
TORSDOF 10
