REMARK SMILES C/C=C(/CO)C(=O)OCC1=CCN2CC[C@@H](OC(=O)C=C(C)C)[C@@H]12
REMARK SMILES IDX 8 1 6 2 7 3 3 4 2 5 1 6 4 7 5 8 9 10 10 11 11 12 24 13 12 14
REMARK SMILES IDX 16 15 13 16 15 17 14 18 17 19 18 20 19 21 20 22 21 23 22 24
REMARK SMILES IDX 23 25
REMARK H PARENT 5 9
ROOT
ATOM      1  O   UNL     1       2.057   0.915  -0.283  1.00  0.00    -0.458 OA
ENDROOT
BRANCH   1   2
ATOM      2  C   UNL     1       2.117   0.491   1.009  1.00  0.00     0.336 C 
ATOM      3  O   UNL     1       1.115   0.037   1.545  1.00  0.00    -0.246 OA
BRANCH   2   4
ATOM      4  C   UNL     1       3.398   0.538   1.783  1.00  0.00     0.058 C 
ATOM      5  C   UNL     1       4.543   1.088   1.296  1.00  0.00    -0.017 C 
ATOM      6  C   UNL     1       4.692   1.725  -0.056  1.00  0.00     0.036 C 
BRANCH   4   7
ATOM      7  C   UNL     1       3.368  -0.074   3.178  1.00  0.00     0.199 C 
BRANCH   7   8
ATOM      8  O   UNL     1       4.598   0.010   3.850  1.00  0.00    -0.391 OA
ATOM      9  H   UNL     1       5.145  -0.760   3.541  1.00  0.00     0.211 HD
ENDBRANCH   7   8
ENDBRANCH   4   7
ENDBRANCH   2   4
ENDBRANCH   1   2
BRANCH   1  10
ATOM     10  C   UNL     1       0.938   0.846  -1.095  1.00  0.00     0.266 C 
BRANCH  10  11
ATOM     11  C   UNL     1       0.524  -0.575  -1.399  1.00  0.00    -0.015 C 
ATOM     12  C   UNL     1       1.158  -1.706  -1.047  1.00  0.00    -0.007 C 
ATOM     13  C   UNL     1      -0.598  -0.980  -2.283  1.00  0.00     0.127 C 
ATOM     14  C   UNL     1       0.391  -2.903  -1.546  1.00  0.00     0.113 C 
ATOM     15  C   UNL     1      -1.959  -0.327  -2.450  1.00  0.00     0.199 C 
ATOM     16  N   UNL     1      -0.909  -2.303  -1.810  1.00  0.00    -0.289 NA
ATOM     17  C   UNL     1      -2.842  -1.565  -2.805  1.00  0.00     0.063 C 
ATOM     18  C   UNL     1      -1.876  -2.765  -2.785  1.00  0.00     0.089 C 
BRANCH  15  19
ATOM     19  O   UNL     1      -2.381   0.233  -1.254  1.00  0.00    -0.457 OA
BRANCH  19  20
ATOM     20  C   UNL     1      -2.786   1.521  -1.095  1.00  0.00     0.331 C 
ATOM     21  O   UNL     1      -2.861   2.263  -2.063  1.00  0.00    -0.247 OA
BRANCH  20  22
ATOM     22  C   UNL     1      -3.172   2.079   0.230  1.00  0.00     0.092 C 
ATOM     23  C   UNL     1      -3.137   1.482   1.450  1.00  0.00    -0.069 C 
ATOM     24  C   UNL     1      -3.597   2.268   2.654  1.00  0.00     0.039 C 
ATOM     25  C   UNL     1      -2.667   0.073   1.736  1.00  0.00     0.039 C 
ENDBRANCH  20  22
ENDBRANCH  19  20
ENDBRANCH  15  19
ENDBRANCH  10  11
ENDBRANCH   1  10
TORSDOF 9
