REMARK SMILES CC1=CC[C@H]2C(C)(C)[C@H](O)CC[C@@]2(C)[C@@H]1COc1ccccc1
REMARK SMILES IDX 1 1 2 2 3 3 4 4 5 5 6 6 7 7 8 8 9 9 11 10 12 11 13 12 14 13
REMARK SMILES IDX 15 14 16 15 17 16 18 17 19 18 23 19 20 20 22 21 21 22 10 23
REMARK H PARENT 10 24
ROOT
ATOM      1  C   UNL     1       1.713   2.057  -2.114  1.00  0.00     0.039 C 
ATOM      2  C   UNL     1       0.372   1.476  -1.731  1.00  0.00    -0.070 C 
ATOM      3  C   UNL     1      -0.743   2.225  -1.868  1.00  0.00    -0.027 C 
ATOM      4  C   UNL     1      -2.067   1.614  -1.520  1.00  0.00     0.032 C 
ATOM      5  C   UNL     1      -2.066   0.903  -0.123  1.00  0.00     0.008 C 
ATOM      6  C   UNL     1      -3.285  -0.095   0.041  1.00  0.00    -0.006 C 
ATOM      7  C   UNL     1      -3.294  -1.210  -1.058  1.00  0.00     0.014 C 
ATOM      8  C   UNL     1      -4.637   0.650  -0.138  1.00  0.00     0.014 C 
ATOM      9  C   UNL     1      -3.250  -0.762   1.480  1.00  0.00     0.120 C 
ATOM     10  C   UNL     1      -1.843  -1.021   2.075  1.00  0.00     0.033 C 
ATOM     11  C   UNL     1      -0.760  -1.095   1.006  1.00  0.00     0.010 C 
ATOM     12  C   UNL     1      -0.629   0.264   0.231  1.00  0.00    -0.019 C 
ATOM     13  C   UNL     1       0.111   1.277   1.180  1.00  0.00     0.012 C 
ATOM     14  C   UNL     1       0.207   0.080  -1.104  1.00  0.00     0.058 C 
ENDROOT
BRANCH  14  15
ATOM     15  C   UNL     1       1.534  -0.713  -0.972  1.00  0.00     0.238 C 
BRANCH  15  16
ATOM     16  O   UNL     1       2.424  -0.092  -0.121  1.00  0.00    -0.493 OA
BRANCH  16  17
ATOM     17  C   UNL     1       3.647  -0.557   0.237  1.00  0.00     0.119 A 
ATOM     18  C   UNL     1       4.167  -1.780  -0.236  1.00  0.00     0.046 A 
ATOM     19  C   UNL     1       4.414   0.214   1.119  1.00  0.00     0.046 A 
ATOM     20  C   UNL     1       5.431  -2.213   0.175  1.00  0.00     0.004 A 
ATOM     21  C   UNL     1       5.679  -0.221   1.528  1.00  0.00     0.004 A 
ATOM     22  C   UNL     1       6.186  -1.434   1.057  1.00  0.00     0.000 A 
ENDBRANCH  16  17
ENDBRANCH  15  16
ENDBRANCH  14  15
BRANCH   9  23
ATOM     23  O   UNL     1      -4.007  -0.053   2.432  1.00  0.00    -0.393 OA
ATOM     24  H   UNL     1      -3.597   0.845   2.534  1.00  0.00     0.210 HD
ENDBRANCH   9  23
TORSDOF 4
