REMARK SMILES COc1ccccc1-c1ccnc(N[C@H]2CO[C@H]3[C@@H]2OC[C@@H]3NS(=O)(=O)c2cccc3cccnc23)n1
REMARK SMILES IDX 14 1 13 3 9 4 10 5 37 6 11 7 12 8 8 9 3 10 4 11 5 12 7 13
REMARK SMILES IDX 6 14 2 15 1 16 15 17 16 18 19 19 17 20 18 21 20 22 22 23
REMARK SMILES IDX 21 24 23 25 24 27 25 28 26 29 27 30 28 31 36 32 29 33 35 34
REMARK SMILES IDX 31 35 30 36 34 37 32 38 33 39
REMARK H PARENT 14 2 23 26
ROOT
ATOM      1  N   UNL     1       1.646   0.615  -0.153  1.00  0.00    -0.346 N 
ATOM      2  H   UNL     1       1.881   0.791  -1.142  1.00  0.00     0.164 HD
ENDROOT
BRANCH   1   3
ATOM      3  C   UNL     1       2.615  -0.049   0.643  1.00  0.00     0.223 A 
ATOM      4  C   UNL     1       4.818  -0.957   0.799  1.00  0.00     0.079 A 
ATOM      5  C   UNL     1       4.550  -1.316   2.136  1.00  0.00     0.049 A 
ATOM      6  N   UNL     1       3.826  -0.338   0.103  1.00  0.00    -0.213 NA
ATOM      7  C   UNL     1       3.298  -1.018   2.681  1.00  0.00     0.117 A 
ATOM      8  N   UNL     1       2.357  -0.389   1.932  1.00  0.00    -0.222 NA
BRANCH   4   9
ATOM      9  C   UNL     1       6.143  -1.213   0.121  1.00  0.00     0.042 A 
ATOM     10  C   UNL     1       6.370  -0.805  -1.229  1.00  0.00     0.128 A 
ATOM     11  C   UNL     1       7.624  -1.052  -1.831  1.00  0.00     0.047 A 
ATOM     12  C   UNL     1       8.641  -1.686  -1.126  1.00  0.00     0.004 A 
ATOM     13  C   UNL     1       7.202  -1.855   0.807  1.00  0.00     0.014 A 
ATOM     14  C   UNL     1       8.431  -2.086   0.188  1.00  0.00     0.001 A 
BRANCH  10  15
ATOM     15  O   UNL     1       5.379  -0.181  -1.922  1.00  0.00    -0.496 OA
ATOM     16  C   UNL     1       5.444   0.277  -3.222  1.00  0.00     0.278 C 
ENDBRANCH  10  15
ENDBRANCH   4   9
ENDBRANCH   1   3
BRANCH   1  17
ATOM     17  C   UNL     1       0.371   1.085   0.361  1.00  0.00     0.139 C 
ATOM     18  C   UNL     1       0.508   2.186   1.403  1.00  0.00     0.188 C 
ATOM     19  C   UNL     1      -0.427   1.836  -0.673  1.00  0.00     0.173 C 
ATOM     20  O   UNL     1      -0.748   2.836   1.476  1.00  0.00    -0.371 OA
ATOM     21  C   UNL     1      -1.345   2.660   0.201  1.00  0.00     0.169 C 
ATOM     22  O   UNL     1      -1.206   0.989  -1.504  1.00  0.00    -0.371 OA
ATOM     23  C   UNL     1      -2.567   1.791   0.242  1.00  0.00     0.127 C 
ATOM     24  C   UNL     1      -2.555   1.299  -1.201  1.00  0.00     0.183 C 
BRANCH  23  25
ATOM     25  N   UNL     1      -3.759   2.567   0.611  1.00  0.00    -0.203 NA
ATOM     26  H   UNL     1      -4.293   2.901  -0.224  1.00  0.00     0.141 HD
BRANCH  25  27
ATOM     27  S   UNL     1      -4.823   1.673   1.707  1.00  0.00     0.243 S 
ATOM     28  O   UNL     1      -6.058   2.571   1.871  1.00  0.00    -0.207 OA
ATOM     29  O   UNL     1      -4.166   1.820   3.088  1.00  0.00    -0.207 OA
BRANCH  27  30
ATOM     30  C   UNL     1      -5.270  -0.024   1.322  1.00  0.00     0.108 A 
ATOM     31  C   UNL     1      -4.921  -1.047   2.215  1.00  0.00     0.024 A 
ATOM     32  C   UNL     1      -5.975  -0.336   0.148  1.00  0.00     0.090 A 
ATOM     33  C   UNL     1      -5.272  -2.371   1.945  1.00  0.00     0.002 A 
ATOM     34  N   UNL     1      -6.324   0.643  -0.733  1.00  0.00    -0.255 NA
ATOM     35  C   UNL     1      -6.330  -1.679  -0.122  1.00  0.00     0.002 A 
ATOM     36  C   UNL     1      -5.975  -2.690   0.780  1.00  0.00     0.010 A 
ATOM     37  C   UNL     1      -7.008   0.370  -1.875  1.00  0.00     0.112 A 
ATOM     38  C   UNL     1      -7.037  -1.971  -1.296  1.00  0.00     0.012 A 
ATOM     39  C   UNL     1      -7.377  -0.943  -2.176  1.00  0.00     0.021 A 
ENDBRANCH  27  30
ENDBRANCH  25  27
ENDBRANCH  23  25
ENDBRANCH   1  17
TORSDOF 7
