REMARK SMILES COC(=O)CC[C@H](C)[C@H]1CC[C@@H]2[C@H]3C(=O)[C@H](Br)[C@@H]4CCCC[C@]4(C)[C@H]3CC[C@@]21C
REMARK SMILES IDX 5 1 3 2 4 3 2 4 1 5 6 6 7 7 8 8 9 9 10 10 28 11 11 12 27 13
REMARK SMILES IDX 12 14 26 15 13 16 25 17 14 18 23 19 15 20 16 21 22 22 18 23
REMARK SMILES IDX 21 24 19 25 20 26 29 27 24 28 17 29
REMARK H PARENT
ROOT
ATOM      1  C   UNL     1       5.444  -1.755   1.147  1.00  0.00     0.123 C 
ENDROOT
BRANCH   1   2
ATOM      2  C   UNL     1       6.467  -0.736   0.699  1.00  0.00     0.305 C 
ATOM      3  O   UNL     1       7.592  -0.784   1.179  1.00  0.00    -0.252 OA
BRANCH   2   4
ATOM      4  O   UNL     1       6.160   0.197  -0.237  1.00  0.00    -0.469 OA
ATOM      5  C   UNL     1       7.034   1.170  -0.671  1.00  0.00     0.282 C 
ENDBRANCH   2   4
ENDBRANCH   1   2
BRANCH   1   6
ATOM      6  C   UNL     1       4.053  -1.597   0.495  1.00  0.00     0.015 C 
BRANCH   6   7
ATOM      7  C   UNL     1       3.291  -0.289   0.872  1.00  0.00    -0.010 C 
ATOM      8  C   UNL     1       3.005  -0.216   2.382  1.00  0.00     0.008 C 
BRANCH   7   9
ATOM      9  C   UNL     1       1.998   0.013   0.031  1.00  0.00    -0.002 C 
ATOM     10  C   UNL     1       2.283   0.281  -1.447  1.00  0.00     0.005 C 
ATOM     11  C   UNL     1       0.705  -0.881  -0.003  1.00  0.00    -0.026 C 
ATOM     12  C   UNL     1       0.910   0.313  -2.131  1.00  0.00     0.005 C 
ATOM     13  C   UNL     1      -0.017  -0.921   1.386  1.00  0.00     0.007 C 
ATOM     14  C   UNL     1      -0.150  -0.129  -1.092  1.00  0.00     0.006 C 
ATOM     15  C   UNL     1      -1.524  -1.038   1.184  1.00  0.00     0.005 C 
ATOM     16  C   UNL     1      -1.033   0.976  -0.398  1.00  0.00     0.064 C 
ATOM     17  C   UNL     1      -2.090   0.268   0.525  1.00  0.00     0.006 C 
ATOM     18  C   UNL     1      -1.651   2.015  -1.318  1.00  0.00     0.150 C 
ATOM     19  C   UNL     1      -3.538   0.067  -0.093  1.00  0.00    -0.025 C 
ATOM     20  O   UNL     1      -0.903   2.710  -1.987  1.00  0.00    -0.298 OA
ATOM     21  C   UNL     1      -3.134   2.217  -1.526  1.00  0.00     0.128 C 
ATOM     22  C   UNL     1      -4.447  -0.539   1.052  1.00  0.00     0.007 C 
ATOM     23  C   UNL     1      -4.111   1.458  -0.584  1.00  0.00     0.016 C 
ATOM     24  C   UNL     1      -5.883  -0.057   0.937  1.00  0.00     0.001 C 
ATOM     25  C   UNL     1      -4.677   2.229   0.630  1.00  0.00     0.006 C 
ATOM     26  C   UNL     1      -5.925   1.475   1.176  1.00  0.00     0.000 C 
ATOM     27  C   UNL     1       0.944  -2.336  -0.499  1.00  0.00     0.012 C 
ATOM     28  C   UNL     1      -3.558  -0.885  -1.317  1.00  0.00     0.012 C 
ATOM     29  Br  UNL     1      -3.568   4.113  -1.714  1.00  0.00    -0.080 Br
ENDBRANCH   7   9
ENDBRANCH   6   7
ENDBRANCH   1   6
TORSDOF 5
