REMARK SMILES C[C@]12CC[C@H](OC(=O)c3cccnc3)CC1=CC[C@@H]1[C@H]2CC[C@]2(C)C(=O)CC[C@@H]12
REMARK SMILES IDX 6 1 5 2 2 3 3 4 16 5 20 6 4 7 15 8 17 9 19 10 21 11 18 12
REMARK SMILES IDX 29 13 22 14 28 15 23 16 27 17 25 18 26 19 1 20 24 21 7 22
REMARK SMILES IDX 8 23 9 24 10 25 14 26 11 27 13 28 12 29
REMARK H PARENT
ROOT
ATOM      1  O   UNL     1       3.934  -0.273   0.066  1.00  0.00    -0.458 OA
ENDROOT
BRANCH   1   2
ATOM      2  C   UNL     1       2.589  -0.374   0.363  1.00  0.00     0.181 C 
ATOM      3  C   UNL     1      -0.180   0.619  -0.385  1.00  0.00    -0.008 C 
ATOM      4  C   UNL     1       0.537   1.086   0.921  1.00  0.00     0.015 C 
ATOM      5  C   UNL     1       0.369  -0.798  -0.593  1.00  0.00    -0.064 C 
ATOM      6  C   UNL     1      -1.781   0.675  -0.335  1.00  0.00     0.003 C 
ATOM      7  C   UNL     1       2.082   1.027   0.784  1.00  0.00     0.046 C 
ATOM      8  C   UNL     1       1.847  -0.931  -0.875  1.00  0.00     0.076 C 
ATOM      9  C   UNL     1      -0.358  -1.904  -0.353  1.00  0.00    -0.027 C 
ATOM     10  C   UNL     1      -2.538  -0.715  -0.331  1.00  0.00     0.001 C 
ATOM     11  C   UNL     1      -2.364   1.685   0.690  1.00  0.00     0.006 C 
ATOM     12  C   UNL     1      -1.696  -1.803   0.305  1.00  0.00     0.031 C 
ATOM     13  C   UNL     1      -3.889  -0.581   0.424  1.00  0.00     0.006 C 
ATOM     14  C   UNL     1      -3.898   1.921   0.504  1.00  0.00     0.015 C 
ATOM     15  C   UNL     1      -4.913  -1.704   0.404  1.00  0.00     0.013 C 
ATOM     16  C   UNL     1      -4.673   0.665  -0.013  1.00  0.00     0.029 C 
ATOM     17  C   UNL     1      -6.117  -1.035   1.094  1.00  0.00     0.076 C 
ATOM     18  C   UNL     1      -5.987   0.399   0.661  1.00  0.00     0.139 C 
ATOM     19  O   UNL     1      -6.856   1.241   0.829  1.00  0.00    -0.299 OA
ATOM     20  C   UNL     1       0.224   1.553  -1.573  1.00  0.00     0.016 C 
ATOM     21  C   UNL     1      -4.956   0.766  -1.540  1.00  0.00     0.020 C 
ENDBRANCH   1   2
BRANCH   1  22
ATOM     22  C   UNL     1       4.970  -0.909   0.668  1.00  0.00     0.339 C 
ATOM     23  O   UNL     1       4.773  -1.729   1.554  1.00  0.00    -0.246 OA
BRANCH  22  24
ATOM     24  C   UNL     1       6.348  -0.588   0.222  1.00  0.00     0.078 A 
ATOM     25  C   UNL     1       7.468  -1.226   0.778  1.00  0.00     0.019 A 
ATOM     26  C   UNL     1       6.556   0.379  -0.777  1.00  0.00     0.126 A 
ATOM     27  C   UNL     1       8.752  -0.896   0.333  1.00  0.00     0.021 A 
ATOM     28  N   UNL     1       7.816   0.681  -1.190  1.00  0.00    -0.264 NA
ATOM     29  C   UNL     1       8.907   0.071  -0.662  1.00  0.00     0.111 A 
ENDBRANCH  22  24
ENDBRANCH   1  22
TORSDOF 3
