REMARK SMILES CNC[C@@H](NC(=O)C[C@@H]1C[C@H](O)[C@@H](NC(=O)[C@H](CCCCN)NC(=O)[C@@H](CN)NC(=O)[C@H](C)NC(=O)[C@H](O)[C@@H](O)C[C@@H](O)[C@H](N)CCCCN)CO1)C(=O)NCC(=O)NCCCNCCCCN
REMARK SMILES IDX 14 1 15 2 16 3 13 5 9 6 10 7 52 8 11 9 51 10 8 11 6 12 5 13
REMARK SMILES IDX 7 14 4 16 3 17 2 18 1 19 53 21 54 22 55 23 56 25 57 26 58 27
REMARK SMILES IDX 59 28 60 30 61 31 62 32 63 33 64 35 65 36 66 37 67 38 68 39
REMARK SMILES IDX 12 42 17 44 18 45 19 46 20 47 21 48 22 49 23 52 24 53 25 54
REMARK SMILES IDX 26 56 27 57 28 58 29 61 30 62 31 63 32 65 33 66 34 67 35 68
REMARK SMILES IDX 36 69 37 71 38 72 39 74 40 75 41 77 42 78 43 79 44 81 45 82
REMARK SMILES IDX 46 85 47 86 48 87 49 88 50 89
REMARK H PARENT 14 4 5 15 2 20 55 24 59 29 63 34 68 40 68 41 12 43 22 50 22 51
REMARK H PARENT 23 55 28 59 28 60 29 64 34 70 38 73 40 76 43 80 45 83 45 84
REMARK H PARENT 50 90 50 91
ROOT
ATOM      1  N   UNL     1      -0.408  -0.799  -1.920  1.00  0.00    -0.347 N 
ATOM      2  C   UNL     1      -1.650  -0.417  -1.512  1.00  0.00     0.242 C 
ATOM      3  O   UNL     1      -2.595  -1.189  -1.583  1.00  0.00    -0.273 OA
ATOM      4  H   UNL     1       0.335  -0.102  -1.828  1.00  0.00     0.164 HD
ENDROOT
BRANCH   1   5
ATOM      5  C   UNL     1      -0.066  -2.130  -2.418  1.00  0.00     0.136 C 
ATOM      6  C   UNL     1       2.621  -1.409  -2.324  1.00  0.00     0.130 C 
ATOM      7  C   UNL     1       2.322  -2.788  -1.704  1.00  0.00     0.066 C 
ATOM      8  O   UNL     1       1.941  -1.230  -3.578  1.00  0.00    -0.375 OA
ATOM      9  C   UNL     1       0.818  -2.882  -1.380  1.00  0.00     0.141 C 
ATOM     10  C   UNL     1       0.725  -1.978  -3.733  1.00  0.00     0.188 C 
BRANCH   6  11
ATOM     11  C   UNL     1       4.129  -1.168  -2.529  1.00  0.00     0.132 C 
BRANCH  11  12
ATOM     12  C   UNL     1       4.891  -1.054  -1.226  1.00  0.00     0.223 C 
ATOM     13  N   UNL     1       6.216  -0.737  -1.232  1.00  0.00    -0.343 N 
ATOM     14  O   UNL     1       4.311  -1.212  -0.158  1.00  0.00    -0.275 OA
ATOM     15  H   UNL     1       6.678  -0.558  -2.139  1.00  0.00     0.164 HD
BRANCH  13  16
ATOM     16  C   UNL     1       6.994  -0.602  -0.004  1.00  0.00     0.185 C 
BRANCH  16  17
ATOM     17  C   UNL     1       7.469   0.863   0.119  1.00  0.00     0.115 C 
BRANCH  17  18
ATOM     18  N   UNL     1       7.997   1.181   1.460  1.00  0.00    -0.317 NA
ATOM     19  C   UNL     1       9.459   1.300   1.492  1.00  0.00     0.101 C 
ATOM     20  H   UNL     1       7.632   2.126   1.730  1.00  0.00     0.122 HD
ENDBRANCH  17  18
ENDBRANCH  16  17
BRANCH  16  21
ATOM     21  C   UNL     1       8.140  -1.596   0.036  1.00  0.00     0.244 C 
ATOM     22  O   UNL     1       8.777  -1.690   1.075  1.00  0.00    -0.273 OA
ATOM     23  N   UNL     1       8.475  -2.383  -1.034  1.00  0.00    -0.345 N 
ATOM     24  H   UNL     1       7.928  -2.361  -1.905  1.00  0.00     0.164 HD
BRANCH  23  25
ATOM     25  C   UNL     1       9.635  -3.257  -1.002  1.00  0.00     0.216 C 
BRANCH  25  26
ATOM     26  C   UNL     1      10.908  -2.451  -0.857  1.00  0.00     0.239 C 
ATOM     27  O   UNL     1      10.858  -1.228  -0.887  1.00  0.00    -0.273 OA
ATOM     28  N   UNL     1      12.099  -3.083  -0.690  1.00  0.00    -0.355 N 
ATOM     29  H   UNL     1      12.129  -4.114  -0.704  1.00  0.00     0.163 HD
BRANCH  28  30
ATOM     30  C   UNL     1      13.339  -2.358  -0.486  1.00  0.00     0.117 C 
BRANCH  30  31
ATOM     31  C   UNL     1      13.306  -1.583   0.849  1.00  0.00     0.036 C 
BRANCH  31  32
ATOM     32  C   UNL     1      14.622  -0.849   1.164  1.00  0.00     0.082 C 
BRANCH  32  33
ATOM     33  N   UNL     1      15.005   0.158   0.161  1.00  0.00    -0.317 NA
ATOM     34  H   UNL     1      15.137  -0.281  -0.778  1.00  0.00     0.122 HD
BRANCH  33  35
ATOM     35  C   UNL     1      14.082   1.299   0.082  1.00  0.00     0.081 C 
BRANCH  35  36
ATOM     36  C   UNL     1      14.618   2.348  -0.899  1.00  0.00     0.017 C 
BRANCH  36  37
ATOM     37  C   UNL     1      15.988   2.892  -0.461  1.00  0.00     0.016 C 
BRANCH  37  38
ATOM     38  C   UNL     1      16.542   3.915  -1.459  1.00  0.00     0.077 C 
BRANCH  38  39
ATOM     39  N   UNL     1      16.746   3.307  -2.771  1.00  0.00    -0.330 NA
ATOM     40  H   UNL     1      17.454   2.541  -2.689  1.00  0.00     0.118 HD
ATOM     41  H   UNL     1      17.132   4.032  -3.418  1.00  0.00     0.118 HD
ENDBRANCH  38  39
ENDBRANCH  37  38
ENDBRANCH  36  37
ENDBRANCH  35  36
ENDBRANCH  33  35
ENDBRANCH  32  33
ENDBRANCH  31  32
ENDBRANCH  30  31
ENDBRANCH  28  30
ENDBRANCH  25  26
ENDBRANCH  23  25
ENDBRANCH  16  21
ENDBRANCH  13  16
ENDBRANCH  11  12
ENDBRANCH   6  11
BRANCH   9  42
ATOM     42  O   UNL     1       0.447  -4.233  -1.260  1.00  0.00    -0.391 OA
ATOM     43  H   UNL     1       0.529  -4.647  -2.159  1.00  0.00     0.211 HD
ENDBRANCH   9  42
ENDBRANCH   1   5
BRANCH   2  44
ATOM     44  C   UNL     1      -1.824   0.979  -0.924  1.00  0.00     0.171 C 
BRANCH  44  45
ATOM     45  C   UNL     1      -0.877   1.199   0.287  1.00  0.00     0.035 C 
BRANCH  45  46
ATOM     46  C   UNL     1      -1.083   0.157   1.403  1.00  0.00     0.004 C 
BRANCH  46  47
ATOM     47  C   UNL     1      -0.107   0.385   2.565  1.00  0.00     0.015 C 
BRANCH  47  48
ATOM     48  C   UNL     1      -0.278  -0.669   3.667  1.00  0.00     0.077 C 
BRANCH  48  49
ATOM     49  N   UNL     1      -1.614  -0.606   4.252  1.00  0.00    -0.330 NA
ATOM     50  H   UNL     1      -1.740   0.322   4.718  1.00  0.00     0.118 HD
ATOM     51  H   UNL     1      -1.690  -1.347   4.986  1.00  0.00     0.118 HD
ENDBRANCH  48  49
ENDBRANCH  47  48
ENDBRANCH  46  47
ENDBRANCH  45  46
ENDBRANCH  44  45
BRANCH  44  52
ATOM     52  N   UNL     1      -3.198   1.253  -0.515  1.00  0.00    -0.342 N 
ATOM     53  C   UNL     1      -3.678   2.533  -0.445  1.00  0.00     0.244 C 
ATOM     54  O   UNL     1      -2.981   3.463  -0.829  1.00  0.00    -0.273 OA
ATOM     55  H   UNL     1      -3.793   0.465  -0.224  1.00  0.00     0.164 HD
BRANCH  53  56
ATOM     56  C   UNL     1      -5.057   2.873   0.105  1.00  0.00     0.185 C 
BRANCH  56  57
ATOM     57  C   UNL     1      -5.939   3.458  -1.021  1.00  0.00     0.112 C 
BRANCH  57  58
ATOM     58  N   UNL     1      -7.203   3.974  -0.492  1.00  0.00    -0.328 NA
ATOM     59  H   UNL     1      -7.797   3.193  -0.132  1.00  0.00     0.118 HD
ATOM     60  H   UNL     1      -7.731   4.423  -1.274  1.00  0.00     0.118 HD
ENDBRANCH  57  58
ENDBRANCH  56  57
BRANCH  56  61
ATOM     61  N   UNL     1      -5.709   1.739   0.750  1.00  0.00    -0.341 N 
ATOM     62  C   UNL     1      -5.210   1.152   1.882  1.00  0.00     0.242 C 
ATOM     63  O   UNL     1      -4.153   1.542   2.356  1.00  0.00    -0.273 OA
ATOM     64  H   UNL     1      -6.599   1.408   0.358  1.00  0.00     0.164 HD
BRANCH  62  65
ATOM     65  C   UNL     1      -5.963   0.058   2.619  1.00  0.00     0.168 C 
ATOM     66  C   UNL     1      -5.179  -1.255   2.635  1.00  0.00     0.041 C 
BRANCH  65  67
ATOM     67  N   UNL     1      -7.285  -0.143   2.041  1.00  0.00    -0.342 N 
ATOM     68  C   UNL     1      -8.406   0.390   2.604  1.00  0.00     0.252 C 
ATOM     69  O   UNL     1      -8.330   1.002   3.662  1.00  0.00    -0.272 OA
ATOM     70  H   UNL     1      -7.359  -0.599   1.117  1.00  0.00     0.164 HD
BRANCH  68  71
ATOM     71  C   UNL     1      -9.742   0.313   1.898  1.00  0.00     0.231 C 
BRANCH  71  72
ATOM     72  O   UNL     1     -10.696   1.121   2.551  1.00  0.00    -0.381 OA
ATOM     73  H   UNL     1     -10.822   0.779   3.472  1.00  0.00     0.211 HD
ENDBRANCH  71  72
BRANCH  71  74
ATOM     74  C   UNL     1     -10.264  -1.141   1.714  1.00  0.00     0.155 C 
BRANCH  74  75
ATOM     75  O   UNL     1     -10.200  -1.851   2.929  1.00  0.00    -0.390 OA
ATOM     76  H   UNL     1     -10.846  -1.447   3.564  1.00  0.00     0.211 HD
ENDBRANCH  74  75
BRANCH  74  77
ATOM     77  C   UNL     1     -11.712  -1.178   1.161  1.00  0.00     0.068 C 
BRANCH  77  78
ATOM     78  C   UNL     1     -11.878  -0.491  -0.225  1.00  0.00     0.133 C 
BRANCH  78  79
ATOM     79  O   UNL     1     -11.101  -1.186  -1.171  1.00  0.00    -0.391 OA
ATOM     80  H   UNL     1     -11.499  -2.091  -1.277  1.00  0.00     0.211 HD
ENDBRANCH  78  79
BRANCH  78  81
ATOM     81  C   UNL     1     -13.354  -0.370  -0.720  1.00  0.00     0.079 C 
BRANCH  81  82
ATOM     82  N   UNL     1     -13.293   0.102  -2.102  1.00  0.00    -0.325 NA
ATOM     83  H   UNL     1     -13.116   1.132  -2.159  1.00  0.00     0.119 HD
ATOM     84  H   UNL     1     -14.113  -0.204  -2.651  1.00  0.00     0.119 HD
ENDBRANCH  81  82
BRANCH  81  85
ATOM     85  C   UNL     1     -14.183   0.604   0.181  1.00  0.00     0.021 C 
BRANCH  85  86
ATOM     86  C   UNL     1     -15.734   0.599   0.166  1.00  0.00     0.003 C 
BRANCH  86  87
ATOM     87  C   UNL     1     -16.552   1.310  -0.940  1.00  0.00     0.015 C 
BRANCH  87  88
ATOM     88  C   UNL     1     -16.859   0.557  -2.242  1.00  0.00     0.077 C 
BRANCH  88  89
ATOM     89  N   UNL     1     -17.446  -0.754  -1.975  1.00  0.00    -0.330 NA
ATOM     90  H   UNL     1     -16.705  -1.390  -1.602  1.00  0.00     0.118 HD
ATOM     91  H   UNL     1     -17.771  -1.165  -2.880  1.00  0.00     0.118 HD
ENDBRANCH  88  89
ENDBRANCH  87  88
ENDBRANCH  86  87
ENDBRANCH  85  86
ENDBRANCH  81  85
ENDBRANCH  78  81
ENDBRANCH  77  78
ENDBRANCH  74  77
ENDBRANCH  71  74
ENDBRANCH  68  71
ENDBRANCH  65  67
ENDBRANCH  62  65
ENDBRANCH  56  61
ENDBRANCH  53  56
ENDBRANCH  44  52
ENDBRANCH   2  44
TORSDOF 46
