REMARK SMILES O=Cc1ccc([C@H](CN2CC23CCCCC3)C2CCCC2)cc1
REMARK SMILES IDX 7 1 6 2 3 3 4 4 23 5 5 6 22 7 2 8 1 9 8 10 9 11 10 12 11 13
REMARK SMILES IDX 12 14 16 15 13 16 15 17 14 18 17 19 18 20 21 21 19 22 20 23
REMARK H PARENT
ROOT
ATOM      1  C   UNL     1       1.097  -0.247  -1.356  1.00  0.00     0.036 C 
ENDROOT
BRANCH   1   2
ATOM      2  C   UNL     1       1.732   1.054  -0.882  1.00  0.00    -0.043 A 
ATOM      3  C   UNL     1       2.879   3.502  -0.063  1.00  0.00     0.014 A 
ATOM      4  C   UNL     1       2.835   3.158  -1.424  1.00  0.00     0.012 A 
ATOM      5  C   UNL     1       2.358   2.611   0.885  1.00  0.00     0.012 A 
ATOM      6  C   UNL     1       2.271   1.945  -1.827  1.00  0.00     0.005 A 
ATOM      7  C   UNL     1       1.791   1.400   0.480  1.00  0.00     0.005 A 
BRANCH   3   8
ATOM      8  C   UNL     1       3.462   4.785   0.383  1.00  0.00     0.260 C 
ATOM      9  O   UNL     1       3.916   5.585  -0.420  1.00  0.00    -0.298 OA
ENDBRANCH   3   8
ENDBRANCH   1   2
BRANCH   1  10
ATOM     10  C   UNL     1      -0.443  -0.195  -1.198  1.00  0.00     0.093 C 
BRANCH  10  11
ATOM     11  N   UNL     1      -0.864  -0.194   0.219  1.00  0.00    -0.294 NA
ATOM     12  C   UNL     1      -1.340   1.128   0.716  1.00  0.00     0.107 C 
ATOM     13  C   UNL     1      -2.317   0.062   0.428  1.00  0.00     0.034 C 
ATOM     14  C   UNL     1      -2.921  -0.628   1.676  1.00  0.00     0.024 C 
ATOM     15  C   UNL     1      -3.299   0.491  -0.716  1.00  0.00     0.024 C 
ATOM     16  C   UNL     1      -4.282   0.014   1.940  1.00  0.00     0.002 C 
ATOM     17  C   UNL     1      -4.552  -0.375  -0.613  1.00  0.00     0.002 C 
ATOM     18  C   UNL     1      -5.256  -0.209   0.756  1.00  0.00     0.000 C 
ENDBRANCH  10  11
ENDBRANCH   1  10
BRANCH   1  19
ATOM     19  C   UNL     1       1.752  -1.483  -0.682  1.00  0.00    -0.002 C 
ATOM     20  C   UNL     1       1.283  -2.836  -1.227  1.00  0.00     0.004 C 
ATOM     21  C   UNL     1       3.256  -1.590  -0.944  1.00  0.00     0.004 C 
ATOM     22  C   UNL     1       2.264  -3.778  -0.546  1.00  0.00     0.000 C 
ATOM     23  C   UNL     1       3.611  -3.042  -0.591  1.00  0.00     0.000 C 
ENDBRANCH   1  19
TORSDOF 5
