REMARK SMILES C[C@H]1O[C@@H](O[C@H]2CC[C@@]3(C)[C@@H](CC[C@]4(C)[C@@H]3C=C[C@]35OC[C@@]6(CCC(C)(C)C[C@H]63)[C@@H](O)C[C@]54C)[C@]2(C)CO)[C@H](O)[C@@H](O[C@@H]2O[C@H](CO[C@@H]3O[C@H](CO)[C@@H](O)[C@H](O)[C@H]3O)[C@@H](O)[C@H](O)[C@H]2O)[C@H]1O
REMARK SMILES IDX 43 1 44 2 45 3 59 4 61 5 63 6 42 7 41 8 2 9 3 10 65 11 4 12
REMARK SMILES IDX 39 13 1 14 66 15 5 17 6 18 7 19 35 20 8 21 11 22 9 23 12 24
REMARK SMILES IDX 16 25 13 26 14 27 17 28 33 29 18 30 32 31 19 32 30 33 20 34
REMARK SMILES IDX 29 35 22 36 21 37 28 38 23 39 25 40 24 41 36 42 10 43 15 44
REMARK SMILES IDX 34 45 26 46 27 47 37 48 38 49 31 51 40 53 64 55 46 57 47 58
REMARK SMILES IDX 48 59 49 60 57 61 50 62 55 63 53 64 58 65 51 67 52 68 56 70
REMARK SMILES IDX 54 72 62 74 60 76
REMARK H PARENT 66 16 38 50 31 52 40 54 64 56 58 66 52 69 56 71 54 73 62 75
REMARK H PARENT 60 77
ROOT
ATOM      1  C   UNL     1       5.869   1.199  -1.831  1.00  0.00     0.282 C 
ATOM      2  O   UNL     1       7.249   1.001  -2.139  1.00  0.00    -0.341 OA
ATOM      3  C   UNL     1       8.143   1.092  -1.022  1.00  0.00     0.178 C 
ATOM      4  C   UNL     1       7.930   2.368  -0.143  1.00  0.00     0.177 C 
ATOM      5  C   UNL     1       6.453   2.559   0.215  1.00  0.00     0.179 C 
ATOM      6  C   UNL     1       5.636   2.547  -1.082  1.00  0.00     0.202 C 
ENDROOT
BRANCH   1   7
ATOM      7  O   UNL     1       5.376   0.101  -1.075  1.00  0.00    -0.341 OA
BRANCH   7   8
ATOM      8  C   UNL     1       4.226  -0.550  -1.615  1.00  0.00     0.186 C 
ATOM      9  C   UNL     1       2.996  -2.765  -0.903  1.00  0.00     0.150 C 
ATOM     10  O   UNL     1       1.885  -2.239  -1.605  1.00  0.00    -0.344 OA
ATOM     11  C   UNL     1       4.330  -2.085  -1.348  1.00  0.00     0.175 C 
ATOM     12  C   UNL     1       1.697  -0.830  -1.449  1.00  0.00     0.282 C 
ATOM     13  C   UNL     1       2.938  -0.014  -0.978  1.00  0.00     0.202 C 
ATOM     14  C   UNL     1       2.710  -2.832   0.615  1.00  0.00     0.041 C 
BRANCH  11  15
ATOM     15  O   UNL     1       5.384  -2.429  -0.481  1.00  0.00    -0.388 OA
ATOM     16  H   UNL     1       5.245  -1.933   0.367  1.00  0.00     0.211 HD
ENDBRANCH  11  15
BRANCH  12  17
ATOM     17  O   UNL     1       0.651  -0.599  -0.517  1.00  0.00    -0.346 OA
BRANCH  17  18
ATOM     18  C   UNL     1      -0.590  -0.207  -1.093  1.00  0.00     0.130 C 
ATOM     19  C   UNL     1      -1.633  -1.346  -0.858  1.00  0.00     0.033 C 
ATOM     20  C   UNL     1      -1.033   1.212  -0.508  1.00  0.00     0.020 C 
ATOM     21  C   UNL     1      -2.194  -1.287   0.563  1.00  0.00     0.010 C 
ATOM     22  C   UNL     1      -2.578   1.151  -0.203  1.00  0.00     0.006 C 
ATOM     23  C   UNL     1      -3.027   0.031   0.850  1.00  0.00    -0.022 C 
ATOM     24  C   UNL     1      -3.343   2.481   0.012  1.00  0.00     0.005 C 
ATOM     25  C   UNL     1      -4.586  -0.160   0.596  1.00  0.00     0.024 C 
ATOM     26  C   UNL     1      -4.850   2.246  -0.296  1.00  0.00     0.008 C 
ATOM     27  C   UNL     1      -5.502   1.145   0.599  1.00  0.00    -0.017 C 
ATOM     28  C   UNL     1      -5.265  -1.268   1.410  1.00  0.00    -0.024 C 
ATOM     29  C   UNL     1      -6.964   0.669   0.059  1.00  0.00     0.009 C 
ATOM     30  C   UNL     1      -6.599  -1.323   1.648  1.00  0.00     0.005 C 
ATOM     31  C   UNL     1      -7.964   1.841  -0.178  1.00  0.00     0.043 C 
ATOM     32  C   UNL     1      -7.611  -0.285   1.165  1.00  0.00     0.096 C 
ATOM     33  C   UNL     1      -9.431   1.319  -0.331  1.00  0.00     0.124 C 
ATOM     34  O   UNL     1      -7.983   0.532   2.284  1.00  0.00    -0.369 OA
ATOM     35  C   UNL     1      -8.970  -0.942   0.812  1.00  0.00     0.037 C 
ATOM     36  C   UNL     1      -9.836   0.303   0.823  1.00  0.00     0.026 C 
ATOM     37  C   UNL     1      -9.377   0.824   2.188  1.00  0.00     0.171 C 
ATOM     38  C   UNL     1      -9.260  -1.911  -0.363  1.00  0.00     0.014 C 
ATOM     39  C   UNL     1     -11.340  -0.078   0.770  1.00  0.00     0.013 C 
ATOM     40  C   UNL     1     -10.771  -2.314  -0.389  1.00  0.00    -0.035 C 
ATOM     41  C   UNL     1     -11.640  -1.015  -0.423  1.00  0.00     0.007 C 
ATOM     42  C   UNL     1      -0.213   1.601   0.750  1.00  0.00     0.017 C 
ATOM     43  C   UNL     1      -2.780   0.336   2.365  1.00  0.00     0.012 C 
ATOM     44  C   UNL     1      -5.611   1.797   2.026  1.00  0.00     0.013 C 
ATOM     45  C   UNL     1      -6.809  -0.056  -1.331  1.00  0.00     0.015 C 
ATOM     46  C   UNL     1     -11.154  -3.209   0.821  1.00  0.00     0.011 C 
ATOM     47  C   UNL     1     -11.046  -3.139  -1.664  1.00  0.00     0.011 C 
BRANCH  20  48
ATOM     48  C   UNL     1      -0.705   2.307  -1.571  1.00  0.00     0.165 C 
BRANCH  48  49
ATOM     49  O   UNL     1      -1.466   2.135  -2.741  1.00  0.00    -0.396 OA
ATOM     50  H   UNL     1      -0.839   1.905  -3.476  1.00  0.00     0.210 HD
ENDBRANCH  48  49
ENDBRANCH  20  48
BRANCH  33  51
ATOM     51  O   UNL     1     -10.315   2.412  -0.396  1.00  0.00    -0.392 OA
ATOM     52  H   UNL     1     -10.238   2.927   0.447  1.00  0.00     0.210 HD
ENDBRANCH  33  51
ENDBRANCH  17  18
ENDBRANCH  12  17
BRANCH  13  53
ATOM     53  O   UNL     1       2.730   1.345  -1.253  1.00  0.00    -0.385 OA
ATOM     54  H   UNL     1       2.753   1.463  -2.239  1.00  0.00     0.211 HD
ENDBRANCH  13  53
ENDBRANCH   7   8
ENDBRANCH   1   7
BRANCH   6  55
ATOM     55  O   UNL     1       5.963   3.672  -1.873  1.00  0.00    -0.385 OA
ATOM     56  H   UNL     1       6.321   3.385  -2.752  1.00  0.00     0.211 HD
ENDBRANCH   6  55
BRANCH   3  57
ATOM     57  C   UNL     1       8.246  -0.246  -0.227  1.00  0.00     0.198 C 
BRANCH  57  58
ATOM     58  O   UNL     1       9.227  -0.197   0.807  1.00  0.00    -0.347 OA
BRANCH  58  59
ATOM     59  C   UNL     1      10.549  -0.345   0.306  1.00  0.00     0.282 C 
ATOM     60  O   UNL     1      10.895  -1.734   0.249  1.00  0.00    -0.341 OA
ATOM     61  C   UNL     1      11.515   0.423   1.232  1.00  0.00     0.202 C 
ATOM     62  C   UNL     1      12.303  -2.017   0.137  1.00  0.00     0.178 C 
ATOM     63  C   UNL     1      12.939   0.431   0.631  1.00  0.00     0.179 C 
ATOM     64  C   UNL     1      13.170  -0.796  -0.296  1.00  0.00     0.177 C 
BRANCH  61  65
ATOM     65  O   UNL     1      11.086   1.735   1.502  1.00  0.00    -0.385 OA
ATOM     66  H   UNL     1      10.961   2.192   0.629  1.00  0.00     0.211 HD
ENDBRANCH  61  65
BRANCH  62  67
ATOM     67  C   UNL     1      12.821  -2.691   1.419  1.00  0.00     0.191 C 
BRANCH  67  68
ATOM     68  O   UNL     1      12.161  -3.909   1.629  1.00  0.00    -0.394 OA
ATOM     69  H   UNL     1      11.308  -3.697   2.090  1.00  0.00     0.210 HD
ENDBRANCH  67  68
ENDBRANCH  62  67
BRANCH  63  70
ATOM     70  O   UNL     1      13.902   0.571   1.646  1.00  0.00    -0.387 OA
ATOM     71  H   UNL     1      14.043  -0.311   2.069  1.00  0.00     0.211 HD
ENDBRANCH  63  70
BRANCH  64  72
ATOM     72  O   UNL     1      12.783  -0.435  -1.603  1.00  0.00    -0.387 OA
ATOM     73  H   UNL     1      13.150  -1.121  -2.220  1.00  0.00     0.211 HD
ENDBRANCH  64  72
ENDBRANCH  58  59
ENDBRANCH  57  58
ENDBRANCH   3  57
BRANCH   5  74
ATOM     74  O   UNL     1       6.004   1.538   1.069  1.00  0.00    -0.387 OA
ATOM     75  H   UNL     1       6.370   1.733   1.970  1.00  0.00     0.211 HD
ENDBRANCH   5  74
BRANCH   4  76
ATOM     76  O   UNL     1       8.406   3.536  -0.780  1.00  0.00    -0.387 OA
ATOM     77  H   UNL     1       8.511   3.380  -1.753  1.00  0.00     0.211 HD
ENDBRANCH   4  76
TORSDOF 20
