REMARK SMILES COc1cc([C@H]2OC[C@](O)(Cc3cc(OC)c4c(c3)[C@H](CO)[C@@H](c3ccc(O)c(OC)c3)O4)[C@@H]2CO)ccc1O
REMARK SMILES IDX 11 1 9 2 6 3 7 4 34 5 8 6 5 7 3 8 4 9 39 10 38 11 37 12 2 13
REMARK SMILES IDX 1 14 40 15 35 17 36 18 10 20 12 22 13 23 19 24 14 25 18 26
REMARK SMILES IDX 17 27 20 28 33 29 23 30 15 31 16 32 21 33 22 34 24 36 25 37
REMARK SMILES IDX 32 38 26 39 29 40 27 41 30 42 31 43 28 44
REMARK H PARENT 40 16 36 19 10 21 22 35 28 45
ROOT
ATOM      1  C   UNL     1       1.438   1.572  -0.570  1.00  0.00     0.073 C 
ENDROOT
BRANCH   1   2
ATOM      2  C   UNL     1       2.347   0.655  -1.450  1.00  0.00     0.100 C 
ATOM      3  C   UNL     1       4.026   0.319   0.144  1.00  0.00     0.157 C 
ATOM      4  O   UNL     1       4.348   1.516  -0.563  1.00  0.00    -0.370 OA
ATOM      5  C   UNL     1       3.085  -0.492  -0.760  1.00  0.00     0.083 C 
ATOM      6  C   UNL     1       3.598   1.477  -1.768  1.00  0.00     0.197 C 
BRANCH   3   7
ATOM      7  C   UNL     1       5.296  -0.390   0.520  1.00  0.00    -0.015 A 
ATOM      8  C   UNL     1       7.526  -1.142  -0.122  1.00  0.00     0.160 A 
ATOM      9  C   UNL     1       6.287  -0.561  -0.448  1.00  0.00     0.056 A 
ATOM     10  C   UNL     1       7.741  -1.594   1.192  1.00  0.00     0.157 A 
ATOM     11  C   UNL     1       6.739  -1.437   2.163  1.00  0.00     0.050 A 
ATOM     12  C   UNL     1       5.526  -0.827   1.833  1.00  0.00     0.010 A 
BRANCH   8  13
ATOM     13  O   UNL     1       8.521  -1.260  -1.036  1.00  0.00    -0.493 OA
ATOM     14  C   UNL     1       8.483  -0.744  -2.320  1.00  0.00     0.278 C 
ENDBRANCH   8  13
BRANCH  10  15
ATOM     15  O   UNL     1       8.922  -2.158   1.515  1.00  0.00    -0.504 OA
ATOM     16  H   UNL     1       9.113  -2.470   2.412  1.00  0.00     0.293 HD
ENDBRANCH  10  15
ENDBRANCH   3   7
BRANCH   5  17
ATOM     17  C   UNL     1       2.262  -1.593  -0.070  1.00  0.00     0.165 C 
BRANCH  17  18
ATOM     18  O   UNL     1       3.104  -2.553   0.510  1.00  0.00    -0.396 OA
ATOM     19  H   UNL     1       3.540  -3.043  -0.236  1.00  0.00     0.210 HD
ENDBRANCH  17  18
ENDBRANCH   5  17
BRANCH   2  20
ATOM     20  O   UNL     1       1.669   0.214  -2.600  1.00  0.00    -0.387 OA
ATOM     21  H   UNL     1       1.466   1.015  -3.151  1.00  0.00     0.211 HD
ENDBRANCH   2  20
ENDBRANCH   1   2
BRANCH   1  22
ATOM     22  C   UNL     1       0.114   1.066  -0.087  1.00  0.00    -0.041 A 
ATOM     23  C   UNL     1      -0.045   0.689   1.264  1.00  0.00     0.054 A 
ATOM     24  C   UNL     1      -1.003   1.128  -0.935  1.00  0.00     0.012 A 
ATOM     25  C   UNL     1      -1.319   0.383   1.790  1.00  0.00     0.161 A 
ATOM     26  C   UNL     1      -2.258   0.879  -0.387  1.00  0.00     0.008 A 
ATOM     27  C   UNL     1      -2.415   0.530   0.936  1.00  0.00     0.165 A 
ATOM     28  C   UNL     1      -3.612   0.949  -1.001  1.00  0.00     0.094 C 
ATOM     29  O   UNL     1      -3.718   0.422   1.265  1.00  0.00    -0.481 OA
ATOM     30  C   UNL     1      -4.420   1.130   0.302  1.00  0.00     0.214 C 
BRANCH  25  31
ATOM     31  O   UNL     1      -1.505   0.007   3.082  1.00  0.00    -0.493 OA
ATOM     32  C   UNL     1      -0.486  -0.220   3.989  1.00  0.00     0.278 C 
ENDBRANCH  25  31
BRANCH  28  33
ATOM     33  C   UNL     1      -3.847   2.099  -1.992  1.00  0.00     0.168 C 
BRANCH  33  34
ATOM     34  O   UNL     1      -3.129   1.871  -3.176  1.00  0.00    -0.396 OA
ATOM     35  H   UNL     1      -2.458   2.597  -3.262  1.00  0.00     0.210 HD
ENDBRANCH  33  34
ENDBRANCH  28  33
BRANCH  30  36
ATOM     36  C   UNL     1      -5.889   0.811   0.192  1.00  0.00    -0.003 A 
ATOM     37  C   UNL     1      -6.818   1.858   0.299  1.00  0.00     0.011 A 
ATOM     38  C   UNL     1      -6.346  -0.493  -0.050  1.00  0.00     0.058 A 
ATOM     39  C   UNL     1      -8.180   1.614   0.156  1.00  0.00     0.050 A 
ATOM     40  C   UNL     1      -7.730  -0.750  -0.184  1.00  0.00     0.160 A 
ATOM     41  C   UNL     1      -8.640   0.314  -0.086  1.00  0.00     0.157 A 
BRANCH  40  42
ATOM     42  O   UNL     1      -8.223  -1.995  -0.409  1.00  0.00    -0.493 OA
ATOM     43  C   UNL     1      -7.482  -3.155  -0.493  1.00  0.00     0.278 C 
ENDBRANCH  40  42
BRANCH  41  44
ATOM     44  O   UNL     1      -9.961   0.082  -0.234  1.00  0.00    -0.504 OA
ATOM     45  H   UNL     1     -10.617   0.793  -0.191  1.00  0.00     0.293 HD
ENDBRANCH  41  44
ENDBRANCH  30  36
ENDBRANCH   1  22
TORSDOF 14
