REMARK SMILES CCCC[C]CCCCCCC(=O)N[C@@H](CO[C@@H]1O[C@H](CO)[C@@H](O[C@H]2O[C@H](CO)[C@H](O[C@H]3O[C@H](CO)[C@H](O)[C@H](O)[C@@H]3NC(C)=O)[C@@H](O[C@]3(C(=O)O)C[C@@H](O)[C@H](NC(C)=O)[C@H]([C@@H](O)[C@H](O)CO)O3)[C@H]2O)[C@H](O)[C@@H]1O)[C@H](O)C=CCCCC[C]CCCCCCCC
REMARK SMILES IDX 77 1 76 2 78 3 79 4 80 5 81 6 82 7 83 8 84 9 85 10 86 11
REMARK SMILES IDX 87 12 88 13 89 14 90 15 74 16 75 17 15 19 16 20 17 21 18 22
REMARK SMILES IDX 19 23 72 24 20 25 70 26 23 27 73 28 21 30 22 31 71 33 24 35
REMARK SMILES IDX 25 36 26 37 68 38 27 39 46 40 30 41 69 42 28 44 29 45 47 47
REMARK SMILES IDX 48 48 52 49 67 50 53 51 60 52 55 53 49 54 50 55 51 56 54 58
REMARK SMILES IDX 61 60 62 61 63 63 64 64 65 66 66 67 56 69 57 70 59 71 58 73
REMARK SMILES IDX 31 74 32 75 33 76 41 77 34 78 39 79 37 80 42 81 43 82 45 83
REMARK SMILES IDX 44 85 35 86 36 87 40 89 38 91 14 93 12 94 13 95 11 97 10 98
REMARK SMILES IDX 9 99 8 100 7 101 6 102 5 103 4 104 3 105 2 106 1 107
REMARK H PARENT 75 18 73 29 22 32 71 34 69 43 29 46 51 57 54 59 62 62 64 65
REMARK H PARENT 66 68 56 72 42 84 36 88 40 90 38 92 14 96
ROOT
ATOM      1  C   UNL     1       9.534  -1.909  -0.472  1.00  0.00    -0.029 C 
ATOM      2  C   UNL     1       8.681  -0.827  -0.130  1.00  0.00     0.002 C 
ENDROOT
BRANCH   1   3
ATOM      3  C   UNL     1      11.016  -2.266   0.069  1.00  0.00     0.027 C 
BRANCH   3   4
ATOM      4  C   UNL     1      12.130  -2.810  -0.979  1.00  0.00     0.004 C 
BRANCH   4   5
ATOM      5  C   UNL     1      13.703  -3.233  -0.684  1.00  0.00     0.001 C 
BRANCH   5   6
ATOM      6  C   UNL     1      14.186  -4.617  -0.000  1.00  0.00     0.008 C 
BRANCH   6   7
ATOM      7  C   UNL     1      15.595  -5.130   0.000  1.00  0.00    -0.017 C 
BRANCH   7   8
ATOM      8  C   UNL     1      17.005  -5.643  -0.000  1.00  0.00     0.008 C 
BRANCH   8   9
ATOM      9  C   UNL     1      18.415  -6.156   0.000  1.00  0.00     0.001 C 
BRANCH   9  10
ATOM     10  C   UNL     1      19.824  -6.669   0.000  1.00  0.00     0.000 C 
BRANCH  10  11
ATOM     11  C   UNL     1      21.233  -7.182   0.000  1.00  0.00     0.000 C 
BRANCH  11  12
ATOM     12  C   UNL     1      22.342  -8.266   0.735  1.00  0.00    -0.000 C 
BRANCH  12  13
ATOM     13  C   UNL     1      23.813  -9.121   0.255  1.00  0.00    -0.000 C 
BRANCH  13  14
ATOM     14  C   UNL     1      25.462  -8.722   0.000  1.00  0.00    -0.003 C 
ATOM     15  C   UNL     1      26.872  -9.235   0.000  1.00  0.00     0.004 C 
ENDBRANCH  13  14
ENDBRANCH  12  13
ENDBRANCH  11  12
ENDBRANCH  10  11
ENDBRANCH   9  10
ENDBRANCH   8   9
ENDBRANCH   7   8
ENDBRANCH   6   7
ENDBRANCH   5   6
ENDBRANCH   4   5
ENDBRANCH   3   4
ENDBRANCH   1   3
BRANCH   2  16
ATOM     16  C   UNL     1       7.143  -0.672  -0.608  1.00  0.00     0.161 C 
BRANCH  16  17
ATOM     17  O   UNL     1       6.561  -1.920  -0.330  1.00  0.00    -0.387 OA
ATOM     18  H   UNL     1       5.927  -2.125  -1.067  1.00  0.00     0.211 HD
ENDBRANCH  16  17
BRANCH  16  19
ATOM     19  C   UNL     1       6.128   0.462   0.041  1.00  0.00     0.140 C 
BRANCH  19  20
ATOM     20  C   UNL     1       4.482   0.051   0.246  1.00  0.00     0.191 C 
BRANCH  20  21
ATOM     21  O   UNL     1       3.440  -0.115  -0.803  1.00  0.00    -0.348 OA
BRANCH  21  22
ATOM     22  C   UNL     1       2.041  -0.436  -0.317  1.00  0.00     0.282 C 
ATOM     23  O   UNL     1       1.518  -1.658  -0.887  1.00  0.00    -0.341 OA
ATOM     24  C   UNL     1       0.972   0.647  -0.718  1.00  0.00     0.202 C 
ATOM     25  C   UNL     1       0.205  -2.071  -0.363  1.00  0.00     0.178 C 
ATOM     26  C   UNL     1      -0.524   0.259  -0.272  1.00  0.00     0.180 C 
ATOM     27  C   UNL     1      -1.037  -1.136  -0.788  1.00  0.00     0.184 C 
BRANCH  24  28
ATOM     28  O   UNL     1       0.995   0.807  -2.114  1.00  0.00    -0.385 OA
ATOM     29  H   UNL     1       1.754   1.412  -2.324  1.00  0.00     0.211 HD
ENDBRANCH  24  28
BRANCH  25  30
ATOM     30  C   UNL     1      -0.027  -3.520  -0.809  1.00  0.00     0.191 C 
BRANCH  30  31
ATOM     31  O   UNL     1      -1.185  -4.039  -0.216  1.00  0.00    -0.394 OA
ATOM     32  H   UNL     1      -1.245  -4.985  -0.510  1.00  0.00     0.210 HD
ENDBRANCH  30  31
ENDBRANCH  25  30
BRANCH  26  33
ATOM     33  O   UNL     1      -1.408   1.262  -0.664  1.00  0.00    -0.387 OA
ATOM     34  H   UNL     1      -1.456   1.246  -1.655  1.00  0.00     0.211 HD
ENDBRANCH  26  33
BRANCH  27  35
ATOM     35  O   UNL     1      -2.359  -1.623  -0.237  1.00  0.00    -0.341 OA
BRANCH  35  36
ATOM     36  C   UNL     1      -3.702  -1.070  -0.633  1.00  0.00     0.282 C 
ATOM     37  O   UNL     1      -4.761  -2.058  -1.040  1.00  0.00    -0.341 OA
ATOM     38  C   UNL     1      -4.255  -0.060   0.463  1.00  0.00     0.202 C 
ATOM     39  C   UNL     1      -5.729  -2.441  -0.000  1.00  0.00     0.179 C 
ATOM     40  C   UNL     1      -5.824   0.187   0.321  1.00  0.00     0.188 C 
ATOM     41  C   UNL     1      -6.503  -1.231   0.757  1.00  0.00     0.185 C 
BRANCH  38  42
ATOM     42  O   UNL     1      -3.964  -0.466   1.784  1.00  0.00    -0.385 OA
ATOM     43  H   UNL     1      -3.677  -1.412   1.803  1.00  0.00     0.211 HD
ENDBRANCH  38  42
BRANCH  39  44
ATOM     44  C   UNL     1      -6.878  -3.406   0.000  1.00  0.00     0.191 C 
BRANCH  44  45
ATOM     45  O   UNL     1      -8.027  -4.370  -0.000  1.00  0.00    -0.394 OA
ATOM     46  H   UNL     1      -8.353  -3.335  -0.499  1.00  0.00     0.210 HD
ENDBRANCH  44  45
ENDBRANCH  39  44
BRANCH  40  47
ATOM     47  O   UNL     1      -6.362   1.288   1.115  1.00  0.00    -0.332 OA
BRANCH  47  48
ATOM     48  C   UNL     1      -5.827   2.663   1.117  1.00  0.00     0.272 C 
ATOM     49  C   UNL     1      -6.845   3.701   0.494  1.00  0.00     0.113 C 
ATOM     50  O   UNL     1      -4.632   2.837   0.379  1.00  0.00    -0.332 OA
ATOM     51  C   UNL     1      -6.195   5.101   0.069  1.00  0.00     0.145 C 
ATOM     52  C   UNL     1      -3.940   4.098   0.586  1.00  0.00     0.178 C 
ATOM     53  C   UNL     1      -4.885   5.366   0.854  1.00  0.00     0.142 C 
BRANCH  48  54
ATOM     54  C   UNL     1      -5.585   2.935   2.610  1.00  0.00     0.364 C 
ATOM     55  O   UNL     1      -6.292   3.716   3.230  1.00  0.00    -0.246 OA
BRANCH  54  56
ATOM     56  O   UNL     1      -4.616   2.282   3.283  1.00  0.00    -0.477 OA
ATOM     57  H   UNL     1      -3.998   1.690   2.841  1.00  0.00     0.296 HD
ENDBRANCH  54  56
ENDBRANCH  48  54
BRANCH  51  58
ATOM     58  O   UNL     1      -7.120   6.137   0.264  1.00  0.00    -0.391 OA
ATOM     59  H   UNL     1      -7.784   6.064  -0.471  1.00  0.00     0.211 HD
ENDBRANCH  51  58
BRANCH  52  60
ATOM     60  C   UNL     1      -2.963   4.230  -0.627  1.00  0.00     0.176 C 
BRANCH  60  61
ATOM     61  O   UNL     1      -3.647   4.570  -1.805  1.00  0.00    -0.388 OA
ATOM     62  H   UNL     1      -3.755   5.556  -1.812  1.00  0.00     0.211 HD
ENDBRANCH  60  61
BRANCH  60  63
ATOM     63  C   UNL     1      -1.662   5.079  -0.459  1.00  0.00     0.171 C 
BRANCH  63  64
ATOM     64  O   UNL     1      -0.892   4.990  -1.634  1.00  0.00    -0.388 OA
ATOM     65  H   UNL     1      -0.576   4.052  -1.720  1.00  0.00     0.211 HD
ENDBRANCH  63  64
BRANCH  63  66
ATOM     66  C   UNL     1      -0.801   4.675   0.757  1.00  0.00     0.190 C 
BRANCH  66  67
ATOM     67  O   UNL     1       0.364   5.453   0.784  1.00  0.00    -0.394 OA
ATOM     68  H   UNL     1       0.885   5.142   1.570  1.00  0.00     0.210 HD
ENDBRANCH  66  67
ENDBRANCH  63  66
ENDBRANCH  60  63
ENDBRANCH  52  60
BRANCH  53  69
ATOM     69  N   UNL     1      -4.133   6.658   0.727  1.00  0.00    -0.348 N 
ATOM     70  C   UNL     1      -4.319   7.837   0.000  1.00  0.00     0.217 C 
ATOM     71  O   UNL     1      -5.307   7.994  -0.703  1.00  0.00    -0.275 OA
ATOM     72  H   UNL     1      -3.285   6.652   1.315  1.00  0.00     0.163 HD
ATOM     73  C   UNL     1      -3.170   8.801  -0.000  1.00  0.00     0.114 C 
ENDBRANCH  53  69
ENDBRANCH  47  48
ENDBRANCH  40  47
BRANCH  41  74
ATOM     74  O   UNL     1      -8.008  -1.387   0.715  1.00  0.00    -0.341 OA
BRANCH  74  75
ATOM     75  C   UNL     1      -8.697  -2.199   1.802  1.00  0.00     0.276 C 
ATOM     76  O   UNL     1      -9.330  -1.221   2.630  1.00  0.00    -0.342 OA
ATOM     77  C   UNL     1      -9.832  -3.508   1.502  1.00  0.00     0.169 C 
ATOM     78  C   UNL     1     -10.625  -0.957   2.131  1.00  0.00     0.178 C 
ATOM     79  C   UNL     1     -10.861  -3.447   2.641  1.00  0.00     0.173 C 
ATOM     80  C   UNL     1     -11.587  -2.069   2.621  1.00  0.00     0.176 C 
BRANCH  77  81
ATOM     81  N   UNL     1      -9.376  -4.987   1.350  1.00  0.00    -0.346 N 
ATOM     82  C   UNL     1      -8.516  -5.218   0.000  1.00  0.00     0.217 C 
ATOM     83  O   UNL     1      -9.272  -5.760  -0.935  1.00  0.00    -0.275 OA
ATOM     84  H   UNL     1      -8.889  -5.246   2.222  1.00  0.00     0.164 HD
ATOM     85  C   UNL     1      -7.107  -5.731   0.000  1.00  0.00     0.114 C 
ENDBRANCH  77  81
BRANCH  78  86
ATOM     86  C   UNL     1     -11.074   0.465   2.493  1.00  0.00     0.191 C 
BRANCH  86  87
ATOM     87  O   UNL     1     -12.311   0.763   1.901  1.00  0.00    -0.394 OA
ATOM     88  H   UNL     1     -13.015   0.435   2.518  1.00  0.00     0.210 HD
ENDBRANCH  86  87
ENDBRANCH  78  86
BRANCH  79  89
ATOM     89  O   UNL     1     -10.174  -3.627   3.856  1.00  0.00    -0.388 OA
ATOM     90  H   UNL     1     -10.822  -4.010   4.503  1.00  0.00     0.211 HD
ENDBRANCH  79  89
BRANCH  80  91
ATOM     91  O   UNL     1     -12.094  -1.786   3.900  1.00  0.00    -0.388 OA
ATOM     92  H   UNL     1     -12.949  -2.284   3.984  1.00  0.00     0.211 HD
ENDBRANCH  80  91
ENDBRANCH  74  75
ENDBRANCH  41  74
ENDBRANCH  35  36
ENDBRANCH  27  35
ENDBRANCH  21  22
ENDBRANCH  20  21
ENDBRANCH  19  20
BRANCH  19  93
ATOM     93  N   UNL     1       6.317   1.908  -0.380  1.00  0.00    -0.348 N 
ATOM     94  C   UNL     1       7.378   2.790  -0.070  1.00  0.00     0.220 C 
ATOM     95  O   UNL     1       8.382   2.360   0.473  1.00  0.00    -0.275 OA
ATOM     96  H   UNL     1       5.474   2.341  -0.784  1.00  0.00     0.163 HD
BRANCH  94  97
ATOM     97  C   UNL     1       7.221   4.375  -0.218  1.00  0.00     0.100 C 
BRANCH  97  98
ATOM     98  C   UNL     1       8.109   5.495  -1.002  1.00  0.00     0.010 C 
BRANCH  98  99
ATOM     99  C   UNL     1       9.262   6.450  -0.362  1.00  0.00     0.001 C 
BRANCH  99 100
ATOM    100  C   UNL     1       9.591   7.744  -1.286  1.00  0.00     0.000 C 
BRANCH 100 101
ATOM    101  C   UNL     1      10.696   8.943  -1.115  1.00  0.00     0.001 C 
BRANCH 101 102
ATOM    102  C   UNL     1      10.537  10.065  -0.000  1.00  0.00     0.008 C 
BRANCH 102 103
ATOM    103  C   UNL     1      11.050  11.475   0.000  1.00  0.00    -0.017 C 
BRANCH 103 104
ATOM    104  C   UNL     1      11.563  12.884  -0.000  1.00  0.00     0.008 C 
BRANCH 104 105
ATOM    105  C   UNL     1      12.472  14.150   0.729  1.00  0.00     0.000 C 
BRANCH 105 106
ATOM    106  C   UNL     1      12.589  15.704  -0.000  1.00  0.00    -0.003 C 
ATOM    107  C   UNL     1      13.102  17.113   0.000  1.00  0.00     0.004 C 
ENDBRANCH 105 106
ENDBRANCH 104 105
ENDBRANCH 103 104
ENDBRANCH 102 103
ENDBRANCH 101 102
ENDBRANCH 100 101
ENDBRANCH  99 100
ENDBRANCH  98  99
ENDBRANCH  97  98
ENDBRANCH  94  97
ENDBRANCH  19  93
ENDBRANCH  16  19
ENDBRANCH   2  16
TORSDOF 57
