REMARK SMILES C[C@@H](O)[C@H]1C=C2C(C)(C)CC=C[C@@]2(C)O1
REMARK SMILES IDX 1 1 2 2 3 3 4 5 5 6 15 7 6 8 13 9 7 10 12 11 10 12 11 13
REMARK SMILES IDX 14 14 8 15 9 16
REMARK H PARENT 3 4
ROOT
ATOM      1  C   UNL     1       4.173  -0.193   0.329  1.00  0.00     0.041 C 
ATOM      2  C   UNL     1       2.830  -0.934   0.335  1.00  0.00     0.144 C 
ENDROOT
BRANCH   2   3
ATOM      3  O   UNL     1       2.334  -1.050   1.647  1.00  0.00    -0.390 OA
ATOM      4  H   UNL     1       2.213  -0.134   2.008  1.00  0.00     0.211 HD
ENDBRANCH   2   3
BRANCH   2   5
ATOM      5  C   UNL     1       1.806  -0.262  -0.603  1.00  0.00     0.171 C 
ATOM      6  C   UNL     1       0.522  -1.012  -0.603  1.00  0.00     0.010 C 
ATOM      7  O   UNL     1       1.518   1.058  -0.154  1.00  0.00    -0.357 OA
ATOM      8  C   UNL     1      -0.446  -0.173  -0.341  1.00  0.00    -0.030 C 
ATOM      9  C   UNL     1       0.113   1.205  -0.217  1.00  0.00     0.106 C 
ATOM     10  C   UNL     1      -1.920  -0.502  -0.079  1.00  0.00    -0.008 C 
ATOM     11  C   UNL     1      -0.469   1.779   1.061  1.00  0.00     0.008 C 
ATOM     12  C   UNL     1      -2.647   0.814   0.347  1.00  0.00     0.038 C 
ATOM     13  C   UNL     1      -1.784   1.589   1.334  1.00  0.00    -0.027 C 
ATOM     14  C   UNL     1      -0.195   2.091  -1.441  1.00  0.00     0.052 C 
ATOM     15  C   UNL     1      -2.004  -1.512   1.087  1.00  0.00     0.016 C 
ATOM     16  C   UNL     1      -2.581  -1.106  -1.328  1.00  0.00     0.016 C 
ENDBRANCH   2   5
TORSDOF 2
