REMARK SMILES COCC(=O)N[C@H]1[C@H](c2ccccc2)N(CCC(C)C)CC[C@@]1(C)O
REMARK SMILES IDX 7 1 8 2 15 3 21 4 22 5 23 6 24 7 6 8 4 9 5 10 3 12 2 13 1 14
REMARK SMILES IDX 9 15 10 16 14 17 11 18 13 19 12 20 25 21 16 23 17 24 18 25
REMARK SMILES IDX 19 26 20 27
REMARK H PARENT 6 11 25 22
ROOT
ATOM      1  C   UNL     1       1.640   0.224   0.628  1.00  0.00     0.135 C 
ATOM      2  C   UNL     1       0.431   1.060   0.008  1.00  0.00     0.112 C 
ATOM      3  N   UNL     1      -0.462   0.299  -0.942  1.00  0.00    -0.294 NA
ATOM      4  C   UNL     1       0.251  -0.834  -1.553  1.00  0.00     0.088 C 
ATOM      5  C   UNL     1       0.671  -1.884  -0.505  1.00  0.00     0.053 C 
ATOM      6  C   UNL     1       1.339  -1.299   0.790  1.00  0.00     0.085 C 
ATOM      7  C   UNL     1       0.464  -1.543   2.045  1.00  0.00     0.044 C 
ENDROOT
BRANCH   1   8
ATOM      8  N   UNL     1       2.853   0.398  -0.186  1.00  0.00    -0.347 N 
ATOM      9  C   UNL     1       3.994   0.994   0.283  1.00  0.00     0.246 C 
ATOM     10  O   UNL     1       4.046   1.424   1.427  1.00  0.00    -0.272 OA
ATOM     11  H   UNL     1       2.863   0.053  -1.149  1.00  0.00     0.164 HD
BRANCH   9  12
ATOM     12  C   UNL     1       5.230   1.150  -0.576  1.00  0.00     0.259 C 
BRANCH  12  13
ATOM     13  O   UNL     1       5.044   0.661  -1.892  1.00  0.00    -0.375 OA
ATOM     14  C   UNL     1       5.509  -0.667  -1.990  1.00  0.00     0.195 C 
ENDBRANCH  12  13
ENDBRANCH   9  12
ENDBRANCH   1   8
BRANCH   2  15
ATOM     15  C   UNL     1      -0.344   1.979   0.967  1.00  0.00    -0.029 A 
ATOM     16  C   UNL     1      -0.343   1.841   2.373  1.00  0.00     0.005 A 
ATOM     17  C   UNL     1      -1.085   3.041   0.405  1.00  0.00     0.005 A 
ATOM     18  C   UNL     1      -1.066   2.729   3.176  1.00  0.00     0.000 A 
ATOM     19  C   UNL     1      -1.804   3.925   1.213  1.00  0.00     0.000 A 
ATOM     20  C   UNL     1      -1.795   3.768   2.598  1.00  0.00     0.000 A 
ENDBRANCH   2  15
BRANCH   6  21
ATOM     21  O   UNL     1       2.562  -1.964   1.025  1.00  0.00    -0.388 OA
ATOM     22  H   UNL     1       2.381  -2.939   1.088  1.00  0.00     0.211 HD
ENDBRANCH   6  21
BRANCH   3  23
ATOM     23  C   UNL     1      -1.826  -0.038  -0.436  1.00  0.00     0.085 C 
BRANCH  23  24
ATOM     24  C   UNL     1      -2.713  -0.794  -1.447  1.00  0.00     0.018 C 
BRANCH  24  25
ATOM     25  C   UNL     1      -4.178  -0.960  -0.968  1.00  0.00    -0.016 C 
ATOM     26  C   UNL     1      -4.993  -1.682  -2.049  1.00  0.00     0.007 C 
ATOM     27  C   UNL     1      -4.286  -1.739   0.354  1.00  0.00     0.007 C 
ENDBRANCH  24  25
ENDBRANCH  23  24
ENDBRANCH   3  23
TORSDOF 8
