REMARK SMILES COc1cc(O)c2c(c1)C(=O)c1cc(OC)c(CC=C(C)C)c(O)c1C2=O
REMARK SMILES IDX 3 1 4 2 5 3 7 4 26 5 27 6 25 7 23 8 17 9 14 10 13 11 12 12
REMARK SMILES IDX 10 13 11 14 8 15 9 16 2 17 1 18 6 19 24 21 15 23 16 24 18 25
REMARK SMILES IDX 19 26 20 27 21 28 22 29
REMARK H PARENT 6 20 24 22
ROOT
ATOM      1  C   UNL     1       5.512   0.678   0.446  1.00  0.00     0.123 A 
ATOM      2  C   UNL     1       5.373   0.656  -0.951  1.00  0.00     0.093 A 
ATOM      3  C   UNL     1       4.128   0.399  -1.542  1.00  0.00     0.131 A 
ATOM      4  C   UNL     1       2.990   0.155  -0.731  1.00  0.00     0.076 A 
ATOM      5  C   UNL     1       1.648  -0.125  -1.328  1.00  0.00     0.201 C 
ATOM      6  O   UNL     1       1.545  -0.129  -2.541  1.00  0.00    -0.288 OA
ATOM      7  C   UNL     1       0.448  -0.401  -0.459  1.00  0.00     0.076 A 
ATOM      8  C   UNL     1      -0.859  -0.692  -0.973  1.00  0.00     0.134 A 
ATOM      9  C   UNL     1      -1.932  -0.954  -0.088  1.00  0.00     0.040 A 
ATOM     10  C   UNL     1      -1.726  -0.927   1.303  1.00  0.00     0.126 A 
ATOM     11  C   UNL     1      -0.451  -0.635   1.802  1.00  0.00     0.060 A 
ATOM     12  C   UNL     1       0.630  -0.376   0.945  1.00  0.00     0.041 A 
ATOM     13  C   UNL     1       1.962  -0.081   1.537  1.00  0.00     0.195 C 
ATOM     14  O   UNL     1       2.097  -0.057   2.753  1.00  0.00    -0.289 OA
ATOM     15  C   UNL     1       3.133   0.177   0.670  1.00  0.00     0.041 A 
ATOM     16  C   UNL     1       4.392   0.439   1.243  1.00  0.00     0.059 A 
ENDROOT
BRANCH   1  17
ATOM     17  O   UNL     1       6.700   0.923   1.059  1.00  0.00    -0.497 OA
ATOM     18  C   UNL     1       7.900   1.169   0.422  1.00  0.00     0.278 C 
ENDBRANCH   1  17
BRANCH   3  19
ATOM     19  O   UNL     1       4.031   0.384  -2.889  1.00  0.00    -0.507 OA
ATOM     20  H   UNL     1       4.791   0.543  -3.468  1.00  0.00     0.293 HD
ENDBRANCH   3  19
BRANCH   8  21
ATOM     21  O   UNL     1      -1.143  -0.752  -2.297  1.00  0.00    -0.507 OA
ATOM     22  H   UNL     1      -0.553  -0.611  -3.041  1.00  0.00     0.293 HD
ENDBRANCH   8  21
BRANCH  10  23
ATOM     23  O   UNL     1      -2.780  -1.168   2.131  1.00  0.00    -0.496 OA
ATOM     24  C   UNL     1      -2.767  -1.125   3.510  1.00  0.00     0.278 C 
ENDBRANCH  10  23
BRANCH   9  25
ATOM     25  C   UNL     1      -3.310  -1.273  -0.644  1.00  0.00     0.070 C 
BRANCH  25  26
ATOM     26  C   UNL     1      -3.933  -0.033  -1.250  1.00  0.00    -0.023 C 
ATOM     27  C   UNL     1      -5.108   0.546  -0.888  1.00  0.00    -0.080 C 
ATOM     28  C   UNL     1      -5.558   1.800  -1.597  1.00  0.00     0.039 C 
ATOM     29  C   UNL     1      -6.038   0.039   0.193  1.00  0.00     0.039 C 
ENDBRANCH  25  26
ENDBRANCH   9  25
TORSDOF 6
