REMARK SMILES Cn1nc(C2CCCC2)cc1[C@H]1CN2CC[C@H]1C[C@@H]2CNC(=S)Nc1cccc(C#N)c1
REMARK SMILES IDX 12 1 13 2 14 3 15 4 16 5 17 6 18 7 19 8 11 9 2 10 3 11 4 12
REMARK SMILES IDX 10 13 1 14 5 15 6 16 9 17 7 18 8 19 20 20 21 21 22 22 23 23
REMARK SMILES IDX 24 24 25 27 26 28 32 29 27 30 29 31 28 32 30 33 31 34
REMARK H PARENT 21 25 24 26
ROOT
ATOM      1  C   UNL     1      -1.259   1.190  -0.111  1.00  0.00     0.055 C 
ATOM      2  C   UNL     1      -0.180   0.918   0.958  1.00  0.00     0.095 C 
ATOM      3  N   UNL     1       1.157   0.886   0.296  1.00  0.00    -0.298 NA
ATOM      4  C   UNL     1       1.256   2.011  -0.680  1.00  0.00     0.085 C 
ATOM      5  C   UNL     1       0.324   1.747  -1.915  1.00  0.00     0.020 C 
ATOM      6  C   UNL     1      -0.737   0.699  -1.489  1.00  0.00     0.002 C 
ATOM      7  C   UNL     1       0.015  -0.648  -1.330  1.00  0.00     0.025 C 
ATOM      8  C   UNL     1       1.285  -0.383  -0.474  1.00  0.00     0.076 C 
ENDROOT
BRANCH   1   9
ATOM      9  C   UNL     1      -2.679   0.852   0.206  1.00  0.00     0.043 A 
ATOM     10  N   UNL     1      -3.216  -0.255   0.776  1.00  0.00    -0.272 N 
ATOM     11  N   UNL     1      -4.520  -0.098   0.838  1.00  0.00    -0.178 NA
ATOM     12  C   UNL     1      -4.835   1.088   0.299  1.00  0.00     0.066 A 
ATOM     13  C   UNL     1      -3.699   1.726  -0.106  1.00  0.00     0.049 A 
ATOM     14  C   UNL     1      -2.599  -1.465   1.294  1.00  0.00     0.174 C 
BRANCH  12  15
ATOM     15  C   UNL     1      -6.221   1.620   0.183  1.00  0.00     0.040 C 
ATOM     16  C   UNL     1      -7.137   0.661  -0.580  1.00  0.00     0.010 C 
ATOM     17  C   UNL     1      -6.861   1.672   1.563  1.00  0.00     0.010 C 
ATOM     18  C   UNL     1      -7.420  -0.444   0.434  1.00  0.00     0.001 C 
ATOM     19  C   UNL     1      -7.423   0.260   1.804  1.00  0.00     0.001 C 
ENDBRANCH  12  15
ENDBRANCH   1   9
BRANCH   8  20
ATOM     20  C   UNL     1       1.697  -1.552   0.437  1.00  0.00     0.134 C 
BRANCH  20  21
ATOM     21  N   UNL     1       2.994  -1.244   1.011  1.00  0.00    -0.361 N 
ATOM     22  C   UNL     1       4.186  -1.191   0.218  1.00  0.00     0.170 C 
ATOM     23  S   UNL     1       4.182  -1.713  -1.142  1.00  0.00    -0.041 S 
ATOM     24  N   UNL     1       5.421  -0.813   0.837  1.00  0.00    -0.333 N 
ATOM     25  H   UNL     1       3.042  -1.019   2.017  1.00  0.00     0.162 HD
ATOM     26  H   UNL     1       5.456  -0.752   1.866  1.00  0.00     0.169 HD
BRANCH  24  27
ATOM     27  C   UNL     1       6.632  -0.793   0.098  1.00  0.00     0.041 A 
ATOM     28  C   UNL     1       6.734  -0.001  -1.060  1.00  0.00     0.026 A 
ATOM     29  C   UNL     1       7.702  -1.619   0.467  1.00  0.00     0.045 A 
ATOM     30  C   UNL     1       7.886  -0.034  -1.834  1.00  0.00     0.004 A 
ATOM     31  C   UNL     1       8.849  -1.671  -0.325  1.00  0.00     0.054 A 
ATOM     32  C   UNL     1       8.945  -0.872  -1.481  1.00  0.00     0.019 A 
ATOM     33  C   UNL     1       9.941  -2.545   0.015  1.00  0.00     0.099 C 
ATOM     34  N   UNL     1      10.821  -3.245   0.283  1.00  0.00    -0.192 NA
ENDBRANCH  24  27
ENDBRANCH  20  21
ENDBRANCH   8  20
TORSDOF 5
