REMARK SMILES O[C@@H]1C=C[C@]2(O)[C@H](C1)N1Cc3cc4c(cc3[C@@H]2C1)OCO4
REMARK SMILES IDX 2 1 3 2 4 3 5 4 7 5 8 6 9 7 10 8 11 9 12 10 13 11 14 12
REMARK SMILES IDX 15 13 16 14 17 15 18 16 19 17 20 18 21 19 1 20 6 22
REMARK H PARENT 1 21 6 23
ROOT
ATOM      1  C   UNL     1      -4.026  -0.432  -0.556  1.00  0.00     0.138 C 
ATOM      2  C   UNL     1      -3.436   0.051  -1.854  1.00  0.00     0.003 C 
ATOM      3  C   UNL     1      -2.110   0.197  -2.000  1.00  0.00     0.008 C 
ATOM      4  C   UNL     1      -1.123  -0.061  -0.866  1.00  0.00     0.106 C 
ATOM      5  C   UNL     1      -1.788  -0.086   0.563  1.00  0.00     0.096 C 
ATOM      6  C   UNL     1      -3.299   0.291   0.566  1.00  0.00     0.058 C 
ATOM      7  N   UNL     1      -1.090   0.930   1.378  1.00  0.00    -0.292 NA
ATOM      8  C   UNL     1       0.091   0.359   2.081  1.00  0.00     0.121 C 
ATOM      9  C   UNL     1       1.297   0.176   1.184  1.00  0.00    -0.026 A 
ATOM     10  C   UNL     1       2.509  -0.313   1.715  1.00  0.00     0.056 A 
ATOM     11  C   UNL     1       3.607  -0.389   0.862  1.00  0.00     0.166 A 
ATOM     12  C   UNL     1       3.542  -0.007  -0.430  1.00  0.00     0.166 A 
ATOM     13  C   UNL     1       2.372   0.482  -1.002  1.00  0.00     0.055 A 
ATOM     14  C   UNL     1       1.225   0.568  -0.182  1.00  0.00    -0.032 A 
ATOM     15  C   UNL     1      -0.090   1.089  -0.735  1.00  0.00     0.071 C 
ATOM     16  C   UNL     1      -0.690   1.939   0.373  1.00  0.00     0.097 C 
ATOM     17  O   UNL     1       4.737  -0.177  -1.001  1.00  0.00    -0.454 OA
ATOM     18  C   UNL     1       5.597  -0.685  -0.030  1.00  0.00     0.468 C 
ATOM     19  O   UNL     1       4.846  -0.807   1.137  1.00  0.00    -0.454 OA
ENDROOT
BRANCH   1  20
ATOM     20  O   UNL     1      -3.844  -1.817  -0.418  1.00  0.00    -0.389 OA
ATOM     21  H   UNL     1      -4.506  -2.252  -1.016  1.00  0.00     0.211 HD
ENDBRANCH   1  20
BRANCH   4  22
ATOM     22  O   UNL     1      -0.445  -1.262  -1.160  1.00  0.00    -0.383 OA
ATOM     23  H   UNL     1      -1.106  -2.001  -1.097  1.00  0.00     0.211 HD
ENDBRANCH   4  22
TORSDOF 2
