REMARK SMILES COc1cc(OC)c2c(c1Cl)O[C@@]1(C(=O)C=C(N3CCC4(CC3)C(=O)NCN4c3ccccc3)C[C@H]1C)C2=O
REMARK SMILES IDX 3 1 4 2 5 3 8 4 38 5 39 6 13 7 12 8 9 9 10 10 11 11 14 12
REMARK SMILES IDX 15 13 16 14 17 15 35 16 36 17 37 18 2 19 1 20 6 21 7 22
REMARK SMILES IDX 18 23 19 24 23 25 20 26 22 27 21 28 24 29 28 30 25 31 26 32
REMARK SMILES IDX 27 33 29 35 30 36 34 37 31 38 33 39 32 40
REMARK H PARENT 26 34
ROOT
ATOM      1  C   UNL     1      -6.742  -0.719   1.698  1.00  0.00     0.144 A 
ATOM      2  C   UNL     1      -7.381  -0.290   0.499  1.00  0.00     0.095 A 
ATOM      3  C   UNL     1      -6.625  -0.043  -0.673  1.00  0.00     0.137 A 
ATOM      4  C   UNL     1      -5.247  -0.234  -0.596  1.00  0.00     0.108 A 
ATOM      5  C   UNL     1      -4.197  -0.030  -1.562  1.00  0.00     0.222 C 
ATOM      6  O   UNL     1      -4.353   0.314  -2.724  1.00  0.00    -0.289 OA
ATOM      7  C   UNL     1      -2.880  -0.246  -0.846  1.00  0.00     0.236 C 
ATOM      8  O   UNL     1      -3.287  -0.689   0.412  1.00  0.00    -0.468 OA
ATOM      9  C   UNL     1      -4.626  -0.636   0.548  1.00  0.00     0.158 A 
ATOM     10  C   UNL     1      -5.344  -0.903   1.710  1.00  0.00     0.126 A 
ATOM     11  Cl  UNL     1      -4.505  -1.412   3.168  1.00  0.00    -0.076 Cl
ATOM     12  C   UNL     1      -1.995  -1.299  -1.475  1.00  0.00     0.209 C 
ATOM     13  O   UNL     1      -2.485  -2.246  -2.074  1.00  0.00    -0.290 OA
ATOM     14  C   UNL     1      -0.514  -1.212  -1.326  1.00  0.00     0.073 C 
ATOM     15  C   UNL     1       0.087  -0.221  -0.602  1.00  0.00     0.017 C 
ATOM     16  C   UNL     1      -0.814   0.795   0.107  1.00  0.00     0.062 C 
ATOM     17  C   UNL     1      -2.101   1.086  -0.676  1.00  0.00     0.052 C 
ATOM     18  C   UNL     1      -1.768   1.802  -2.002  1.00  0.00     0.013 C 
ENDROOT
BRANCH   1  19
ATOM     19  O   UNL     1      -7.431  -0.938   2.848  1.00  0.00    -0.495 OA
ATOM     20  C   UNL     1      -8.768  -0.671   3.050  1.00  0.00     0.278 C 
ENDBRANCH   1  19
BRANCH   3  21
ATOM     21  O   UNL     1      -7.168   0.398  -1.836  1.00  0.00    -0.496 OA
ATOM     22  C   UNL     1      -8.486   0.762  -2.015  1.00  0.00     0.278 C 
ENDBRANCH   3  21
BRANCH  15  23
ATOM     23  N   UNL     1       1.529  -0.112  -0.474  1.00  0.00    -0.374 N 
ATOM     24  C   UNL     1       2.444  -1.218  -0.792  1.00  0.00     0.119 C 
ATOM     25  C   UNL     1       2.111   1.107   0.108  1.00  0.00     0.119 C 
ATOM     26  C   UNL     1       3.297  -1.483   0.451  1.00  0.00     0.060 C 
ATOM     27  C   UNL     1       3.643   1.041   0.157  1.00  0.00     0.060 C 
ATOM     28  C   UNL     1       4.149  -0.236   0.881  1.00  0.00     0.124 C 
ATOM     29  C   UNL     1       4.042  -0.124   2.373  1.00  0.00     0.247 C 
ATOM     30  N   UNL     1       5.590  -0.562   0.727  1.00  0.00    -0.339 N 
ATOM     31  O   UNL     1       3.032   0.196   2.987  1.00  0.00    -0.272 OA
ATOM     32  N   UNL     1       5.151  -0.528   2.992  1.00  0.00    -0.336 N 
ATOM     33  C   UNL     1       6.142  -0.913   2.031  1.00  0.00     0.238 C 
ATOM     34  H   UNL     1       5.262  -0.598   4.013  1.00  0.00     0.165 HD
BRANCH  30  35
ATOM     35  C   UNL     1       6.568  -0.091  -0.236  1.00  0.00     0.039 A 
ATOM     36  C   UNL     1       6.522   1.147  -0.929  1.00  0.00     0.026 A 
ATOM     37  C   UNL     1       7.700  -0.909  -0.458  1.00  0.00     0.026 A 
ATOM     38  C   UNL     1       7.547   1.519  -1.808  1.00  0.00     0.002 A 
ATOM     39  C   UNL     1       8.717  -0.531  -1.338  1.00  0.00     0.002 A 
ATOM     40  C   UNL     1       8.639   0.681  -2.015  1.00  0.00     0.000 A 
ENDBRANCH  30  35
ENDBRANCH  15  23
TORSDOF 4
