REMARK SMILES COc1cc(O)ccc1-c1oc2cc(O)cc(O)c2c(=O)c1OC
REMARK SMILES IDX 10 1 22 2 20 3 21 4 19 5 17 6 16 7 14 8 13 9 12 10 11 11
REMARK SMILES IDX 9 12 3 13 4 14 5 15 8 16 7 17 2 18 1 19 6 20 23 22 24 23
REMARK SMILES IDX 18 24 15 26
REMARK H PARENT 6 21 18 25 15 27
ROOT
ATOM      1  C   UNL     1       0.048  -0.162  -0.062  1.00  0.00     0.184 A 
ATOM      2  C   UNL     1       0.321   1.126   0.460  1.00  0.00     0.211 A 
ATOM      3  C   UNL     1       1.629   1.449   0.856  1.00  0.00     0.239 A 
ATOM      4  O   UNL     1       1.837   2.562   1.302  1.00  0.00    -0.285 OA
ATOM      5  C   UNL     1       2.671   0.502   0.719  1.00  0.00     0.111 A 
ATOM      6  C   UNL     1       4.039   0.725   1.080  1.00  0.00     0.134 A 
ATOM      7  C   UNL     1       4.978  -0.295   0.884  1.00  0.00     0.093 A 
ATOM      8  C   UNL     1       4.606  -1.527   0.342  1.00  0.00     0.123 A 
ATOM      9  C   UNL     1       3.278  -1.751  -0.012  1.00  0.00     0.094 A 
ATOM     10  C   UNL     1       2.315  -0.754   0.170  1.00  0.00     0.146 A 
ATOM     11  O   UNL     1       1.063  -1.014  -0.188  1.00  0.00    -0.451 OA
ENDROOT
BRANCH   1  12
ATOM     12  C   UNL     1      -1.296  -0.647  -0.549  1.00  0.00     0.064 A 
ATOM     13  C   UNL     1      -2.567  -0.161  -0.113  1.00  0.00     0.133 A 
ATOM     14  C   UNL     1      -3.745  -0.694  -0.684  1.00  0.00     0.093 A 
ATOM     15  C   UNL     1      -3.688  -1.697  -1.655  1.00  0.00     0.119 A 
ATOM     16  C   UNL     1      -1.278  -1.680  -1.513  1.00  0.00     0.020 A 
ATOM     17  C   UNL     1      -2.454  -2.190  -2.060  1.00  0.00     0.047 A 
BRANCH  13  18
ATOM     18  O   UNL     1      -2.647   0.774   0.868  1.00  0.00    -0.496 OA
ATOM     19  C   UNL     1      -3.800   1.341   1.374  1.00  0.00     0.278 C 
ENDBRANCH  13  18
BRANCH  15  20
ATOM     20  O   UNL     1      -4.816  -2.198  -2.199  1.00  0.00    -0.508 OA
ATOM     21  H   UNL     1      -5.694  -1.879  -1.948  1.00  0.00     0.293 HD
ENDBRANCH  15  20
ENDBRANCH   1  12
BRANCH   2  22
ATOM     22  O   UNL     1      -0.628   2.080   0.546  1.00  0.00    -0.490 OA
ATOM     23  C   UNL     1      -0.806   3.022  -0.444  1.00  0.00     0.278 C 
ENDBRANCH   2  22
BRANCH   6  24
ATOM     24  O   UNL     1       4.515   1.877   1.608  1.00  0.00    -0.507 OA
ATOM     25  H   UNL     1       4.015   2.675   1.804  1.00  0.00     0.293 HD
ENDBRANCH   6  24
BRANCH   8  26
ATOM     26  O   UNL     1       5.518  -2.503   0.155  1.00  0.00    -0.508 OA
ATOM     27  H   UNL     1       6.451  -2.386   0.385  1.00  0.00     0.293 HD
ENDBRANCH   8  26
TORSDOF 6
