REMARK SMILES CC(C)CCC[C@@H](C)[C@H]1CC[C@H]2[C@H]3CC=C4C[C@@H](OC(=O)/C(Br)=C/c5ccccc5)CC[C@]4(C)[C@H]3CC[C@]12C
REMARK SMILES IDX 7 1 8 2 6 3 5 4 4 5 2 6 1 7 3 8 9 9 10 10 38 11 11 12 37 13
REMARK SMILES IDX 12 14 36 15 13 16 35 17 14 18 33 19 15 20 32 21 16 22 31 23
REMARK SMILES IDX 17 24 18 25 39 26 34 27 19 28 20 29 21 30 22 31 24 32 23 33
REMARK SMILES IDX 25 34 26 35 30 36 27 37 29 38 28 39
REMARK H PARENT
ROOT
ATOM      1  C   UNL     1      -4.943  -1.808  -1.353  1.00  0.00    -0.011 C 
ATOM      2  C   UNL     1      -5.835  -1.919  -2.605  1.00  0.00     0.008 C 
ENDROOT
BRANCH   1   3
ATOM      3  C   UNL     1      -5.807  -1.693  -0.076  1.00  0.00     0.003 C 
BRANCH   3   4
ATOM      4  C   UNL     1      -6.719  -0.465   0.050  1.00  0.00     0.001 C 
BRANCH   4   5
ATOM      5  C   UNL     1      -7.561  -0.588   1.333  1.00  0.00     0.003 C 
BRANCH   5   6
ATOM      6  C   UNL     1      -8.650   0.497   1.479  1.00  0.00    -0.017 C 
ATOM      7  C   UNL     1      -9.482   0.216   2.739  1.00  0.00     0.007 C 
ATOM      8  C   UNL     1      -8.063   1.913   1.551  1.00  0.00     0.007 C 
ENDBRANCH   5   6
ENDBRANCH   4   5
ENDBRANCH   3   4
ENDBRANCH   1   3
BRANCH   1   9
ATOM      9  C   UNL     1      -3.773  -0.799  -1.614  1.00  0.00    -0.002 C 
ATOM     10  C   UNL     1      -4.048   0.615  -2.183  1.00  0.00     0.005 C 
ATOM     11  C   UNL     1      -2.644  -0.536  -0.568  1.00  0.00    -0.026 C 
ATOM     12  C   UNL     1      -2.683   1.365  -2.068  1.00  0.00     0.005 C 
ATOM     13  C   UNL     1      -1.862  -1.809  -0.172  1.00  0.00     0.007 C 
ATOM     14  C   UNL     1      -1.733   0.326  -1.458  1.00  0.00    -0.001 C 
ATOM     15  C   UNL     1      -0.582  -1.442   0.597  1.00  0.00     0.005 C 
ATOM     16  C   UNL     1      -0.344   0.727  -0.901  1.00  0.00     0.000 C 
ATOM     17  C   UNL     1       0.369  -0.514  -0.226  1.00  0.00     0.003 C 
ATOM     18  C   UNL     1      -0.148   1.997  -0.060  1.00  0.00     0.031 C 
ATOM     19  C   UNL     1       1.671  -0.125   0.615  1.00  0.00    -0.008 C 
ATOM     20  C   UNL     1       1.361   2.240  -0.098  1.00  0.00    -0.027 C 
ATOM     21  C   UNL     1       2.685  -1.306   0.528  1.00  0.00     0.015 C 
ATOM     22  C   UNL     1       2.232   1.217   0.112  1.00  0.00    -0.064 C 
ATOM     23  C   UNL     1       4.139  -0.891   0.778  1.00  0.00     0.046 C 
ATOM     24  C   UNL     1       3.725   1.449  -0.069  1.00  0.00     0.076 C 
ATOM     25  C   UNL     1       4.498   0.142  -0.292  1.00  0.00     0.181 C 
ATOM     26  C   UNL     1      -3.141   0.241   0.697  1.00  0.00     0.012 C 
ATOM     27  C   UNL     1       1.407   0.117   2.137  1.00  0.00     0.016 C 
BRANCH  25  28
ATOM     28  O   UNL     1       5.871   0.362  -0.320  1.00  0.00    -0.458 OA
BRANCH  28  29
ATOM     29  C   UNL     1       6.642   0.163  -1.431  1.00  0.00     0.345 C 
ATOM     30  O   UNL     1       6.112  -0.058  -2.512  1.00  0.00    -0.246 OA
BRANCH  29  31
ATOM     31  C   UNL     1       8.129   0.206  -1.376  1.00  0.00     0.103 C 
ATOM     32  C   UNL     1       8.774   0.366  -0.190  1.00  0.00     0.031 C 
ATOM     33  Br  UNL     1       8.992  -0.080  -3.081  1.00  0.00    -0.043 Br
BRANCH  32  34
ATOM     34  C   UNL     1      10.250   0.425   0.084  1.00  0.00    -0.024 A 
ATOM     35  C   UNL     1      10.670   0.219   1.414  1.00  0.00     0.008 A 
ATOM     36  C   UNL     1      11.244   0.692  -0.886  1.00  0.00     0.008 A 
ATOM     37  C   UNL     1      12.026   0.249   1.756  1.00  0.00     0.001 A 
ATOM     38  C   UNL     1      12.597   0.727  -0.537  1.00  0.00     0.001 A 
ATOM     39  C   UNL     1      12.989   0.501   0.779  1.00  0.00     0.000 A 
ENDBRANCH  32  34
ENDBRANCH  29  31
ENDBRANCH  28  29
ENDBRANCH  25  28
ENDBRANCH   1   9
TORSDOF 9
