REMARK SMILES C[C@]1(CCO)C/C2=C/C[C@H]3[C@@H](C1)[C@@](C)(CC2)CC[C@]3(C)C(=O)Oc1ccc(CCS(=O)(=O)O)cc1
REMARK SMILES IDX 21 1 22 2 19 3 11 4 10 5 13 6 17 7 18 8 14 9 20 10 12 12
REMARK SMILES IDX 2 13 1 14 3 15 4 16 5 17 6 19 9 21 8 22 7 23 16 25 15 26
REMARK SMILES IDX 23 28 24 29 25 30 35 31 26 32 34 33 27 34 28 35 29 36 30 37
REMARK SMILES IDX 31 38 32 39 33 40
REMARK H PARENT 5 18 33 41
REMARK Flexibility Score:   69.800
ROOT
ATOM      1  C   UNL     1       1.252  -0.709  -1.676  1.00  0.00     0.317 C 
ATOM      2  O   UNL     1       2.040  -0.350  -2.546  1.00  0.00    -0.251 OA
ENDROOT
BRANCH   1   3
ATOM      3  C   UNL     1      -0.139  -1.228  -2.093  1.00  0.00     0.069 C 
ATOM      4  C   UNL     1      -1.761  -0.807  -0.059  1.00  0.00    -0.000 C 
ATOM      5  C   UNL     1      -1.303  -0.278  -1.512  1.00  0.00     0.013 C 
ATOM      6  C   UNL     1      -2.356  -2.282  -0.114  1.00  0.00    -0.029 CG1
ATOM      7  C   UNL     1      -1.766  -3.071  -1.344  1.00  0.00     0.008 C 
ATOM      8  C   UNL     1      -0.290  -2.703  -1.574  1.00  0.00     0.019 C 
ATOM      9  C   UNL     1      -1.929  -3.067   1.172  1.00  0.00     0.011 C 
ATOM     10  C   UNL     1      -0.146  -1.284  -3.659  1.00  0.00     0.024 C 
ATOM     11  G   UNL     1      -3.913  -2.321  -0.114  1.00  0.00     0.000 G1
BRANCH   4  12
ATOM     12  C   UNL     1      -2.423   0.128   1.084  1.00  0.00     0.011 C 
BRANCH  12  13
ATOM     13  C   UNL     1      -3.573   1.230   0.929  1.00  0.00    -0.026 C 
ATOM     14  C   UNL     1      -4.136   1.529   2.347  1.00  0.00     0.012 C 
BRANCH  13  15
ATOM     15  C   UNL     1      -2.864   2.563   0.452  1.00  0.00     0.035 C 
BRANCH  15  16
ATOM     16  C   UNL     1      -3.745   3.814   0.245  1.00  0.00     0.156 C 
BRANCH  16  17
ATOM     17  O   UNL     1      -4.623   3.671  -0.837  1.00  0.00    -0.396 OA
ATOM     18  H   UNL     1      -4.142   3.987  -1.646  1.00  0.00     0.210 HD
ENDBRANCH  16  17
ENDBRANCH  15  16
ENDBRANCH  13  15
BRANCH  13  19
ATOM     19  C   UNL     1      -4.816   0.736   0.074  1.00  0.00     0.037 CG0
ATOM     20  G   UNL     1      -4.340  -0.012  -1.124  1.00  0.00     0.000 G0
ENDBRANCH  13  19
ENDBRANCH  12  13
ENDBRANCH   4  12
BRANCH   5  21
ATOM     21  C   UNL     1      -2.445  -0.058  -2.604  1.00  0.00     0.032 C 
BRANCH  21  22
ATOM     22  C   UNL     1      -3.548   0.661  -1.965  1.00  0.00    -0.027 C 
ATOM     23  C   UNL     1      -4.340  -0.012  -1.124  1.00  0.00    -0.074 CG0
ATOM     24  G   UNL     1      -4.816   0.736   0.074  1.00  0.00     0.000 G0
BRANCH  23  25
ATOM     25  C   UNL     1      -4.596  -1.516  -1.214  1.00  0.00     0.031 C 
BRANCH  25  26
ATOM     26  C   UNL     1      -3.913  -2.321  -0.114  1.00  0.00     0.011 CG1
ATOM     27  G   UNL     1      -2.356  -2.282  -0.114  1.00  0.00     0.000 G1
ENDBRANCH  25  26
ENDBRANCH  23  25
ENDBRANCH  21  22
ENDBRANCH   5  21
ENDBRANCH   1   3
BRANCH   1  28
ATOM     28  O   UNL     1       1.664  -0.733  -0.374  1.00  0.00    -0.426 OA
BRANCH  28  29
ATOM     29  C   UNL     1       2.884  -0.279   0.033  1.00  0.00     0.130 A 
ATOM     30  C   UNL     1       3.631  -1.039   0.941  1.00  0.00     0.047 A 
ATOM     31  C   UNL     1       3.434   0.916  -0.472  1.00  0.00     0.047 A 
ATOM     32  C   UNL     1       4.928  -0.645   1.299  1.00  0.00     0.007 A 
ATOM     33  C   UNL     1       4.722   1.314  -0.108  1.00  0.00     0.007 A 
ATOM     34  C   UNL     1       5.490   0.528   0.764  1.00  0.00    -0.047 A 
BRANCH  34  35
ATOM     35  C   UNL     1       6.914   0.925   1.078  1.00  0.00     0.054 C 
BRANCH  35  36
ATOM     36  C   UNL     1       7.157   1.177   2.564  1.00  0.00     0.172 C 
BRANCH  36  37
ATOM     37  S   UNL     1       8.902   1.635   2.818  1.00  0.00     0.265 S 
ATOM     38  O   UNL     1       9.213   2.038   4.268  1.00  0.00    -0.200 OA
ATOM     39  O   UNL     1       9.826   0.420   2.654  1.00  0.00    -0.200 OA
BRANCH  37  40
ATOM     40  O   UNL     1       9.616   2.850   1.835  1.00  0.00    -0.286 OA
ATOM     41  H   UNL     1       9.267   3.705   2.191  1.00  0.00     0.234 HD
ENDBRANCH  37  40
ENDBRANCH  36  37
ENDBRANCH  35  36
ENDBRANCH  34  35
ENDBRANCH  28  29
ENDBRANCH   1  28
TORSDOF 10
