REMARK SMILES CCCC[C]CC[C]CCCCCCCCCCCC(=O)OC[C@@H](O)COC(=O)CCCCCCC[C]CC[C]CCCCCCCCC[C](C)CC
REMARK SMILES IDX 27 1 26 2 24 3 23 4 22 5 20 6 21 7 19 8 18 9 17 10 16 11
REMARK SMILES IDX 15 12 14 13 13 14 12 15 11 16 10 17 9 18 8 19 7 20 6 21 5 22
REMARK SMILES IDX 4 23 3 24 2 25 1 26 25 27 28 29 29 30 30 31 31 32 32 33
REMARK SMILES IDX 33 34 34 35 35 36 36 37 37 38 38 39 39 40 40 41 41 42 42 43
REMARK SMILES IDX 43 44 44 45 45 46 46 47 47 48 48 49 49 50 50 51 51 52 52 53
REMARK SMILES IDX 53 54
REMARK H PARENT 25 28
ROOT
ATOM      1  O   UNL     1      -5.146  -3.932  -0.655  1.00  0.00    -0.463 OA
ENDROOT
BRANCH   1   2
ATOM      2  C   UNL     1      -4.045  -3.275   0.068  1.00  0.00     0.268 C 
BRANCH   2   3
ATOM      3  C   UNL     1      -2.623  -2.801  -0.678  1.00  0.00     0.189 C 
BRANCH   3   4
ATOM      4  C   UNL     1      -1.428  -2.121   0.267  1.00  0.00     0.268 C 
BRANCH   4   5
ATOM      5  O   UNL     1      -0.183  -1.512  -0.247  1.00  0.00    -0.463 OA
BRANCH   5   6
ATOM      6  C   UNL     1       1.150  -1.926   0.068  1.00  0.00     0.305 C 
ATOM      7  O   UNL     1       1.241  -3.087   0.441  1.00  0.00    -0.252 OA
BRANCH   6   8
ATOM      8  C   UNL     1       2.643  -1.193   0.036  1.00  0.00     0.123 C 
BRANCH   8   9
ATOM      9  C   UNL     1       3.542   0.200  -0.150  1.00  0.00     0.012 C 
BRANCH   9  10
ATOM     10  C   UNL     1       5.196   0.000   0.000  1.00  0.00     0.001 C 
BRANCH  10  11
ATOM     11  C   UNL     1       6.495   0.750   0.000  1.00  0.00     0.000 C 
BRANCH  11  12
ATOM     12  C   UNL     1       7.794   1.500   0.000  1.00  0.00     0.000 C 
BRANCH  12  13
ATOM     13  C   UNL     1       9.093   2.250   0.000  1.00  0.00     0.000 C 
BRANCH  13  14
ATOM     14  C   UNL     1      10.392   3.000   0.000  1.00  0.00     0.000 C 
BRANCH  14  15
ATOM     15  C   UNL     1      11.691   3.750   0.000  1.00  0.00     0.000 C 
BRANCH  15  16
ATOM     16  C   UNL     1      13.342   4.063  -0.001  1.00  0.00     0.000 C 
BRANCH  16  17
ATOM     17  C   UNL     1      13.944   5.654   0.010  1.00  0.00     0.001 C 
BRANCH  17  18
ATOM     18  C   UNL     1      15.588   6.000   0.000  1.00  0.00     0.008 C 
BRANCH  18  19
ATOM     19  C   UNL     1      16.887   6.750   0.000  1.00  0.00    -0.017 C 
BRANCH  19  20
ATOM     20  C   UNL     1      18.186   7.500   0.000  1.00  0.00     0.009 C 
BRANCH  20  21
ATOM     21  C   UNL     1      19.486   8.250   0.000  1.00  0.00     0.009 C 
BRANCH  21  22
ATOM     22  C   UNL     1      20.785   9.000   0.000  1.00  0.00    -0.017 C 
BRANCH  22  23
ATOM     23  C   UNL     1      22.084   9.750   0.000  1.00  0.00     0.008 C 
BRANCH  23  24
ATOM     24  C   UNL     1      23.661  10.021  -0.637  1.00  0.00     0.000 C 
BRANCH  24  25
ATOM     25  C   UNL     1      24.682  11.250   0.000  1.00  0.00    -0.003 C 
ATOM     26  C   UNL     1      25.981  12.000   0.000  1.00  0.00     0.004 C 
ENDBRANCH  24  25
ENDBRANCH  23  24
ENDBRANCH  22  23
ENDBRANCH  21  22
ENDBRANCH  20  21
ENDBRANCH  19  20
ENDBRANCH  18  19
ENDBRANCH  17  18
ENDBRANCH  16  17
ENDBRANCH  15  16
ENDBRANCH  14  15
ENDBRANCH  13  14
ENDBRANCH  12  13
ENDBRANCH  11  12
ENDBRANCH  10  11
ENDBRANCH   9  10
ENDBRANCH   8   9
ENDBRANCH   6   8
ENDBRANCH   5   6
ENDBRANCH   4   5
ENDBRANCH   3   4
BRANCH   3  27
ATOM     27  O   UNL     1      -2.083  -3.888  -1.379  1.00  0.00    -0.386 OA
ATOM     28  H   UNL     1      -1.855  -4.575  -0.700  1.00  0.00     0.211 HD
ENDBRANCH   3  27
ENDBRANCH   2   3
ENDBRANCH   1   2
BRANCH   1  29
ATOM     29  C   UNL     1      -6.455  -4.229  -0.127  1.00  0.00     0.305 C 
ATOM     30  O   UNL     1      -6.731  -3.749   0.962  1.00  0.00    -0.252 OA
BRANCH  29  31
ATOM     31  C   UNL     1      -7.644  -5.144  -0.808  1.00  0.00     0.123 C 
BRANCH  31  32
ATOM     32  C   UNL     1      -9.093  -5.250   0.000  1.00  0.00     0.012 C 
BRANCH  32  33
ATOM     33  C   UNL     1     -10.392  -6.000   0.000  1.00  0.00     0.001 C 
BRANCH  33  34
ATOM     34  C   UNL     1     -11.691  -6.750   0.000  1.00  0.00     0.000 C 
BRANCH  34  35
ATOM     35  C   UNL     1     -13.340  -7.067  -0.040  1.00  0.00     0.000 C 
BRANCH  35  36
ATOM     36  C   UNL     1     -13.944  -8.655   0.047  1.00  0.00     0.001 C 
BRANCH  36  37
ATOM     37  C   UNL     1     -15.588  -9.000   0.000  1.00  0.00     0.008 C 
BRANCH  37  38
ATOM     38  C   UNL     1     -16.887  -9.750   0.000  1.00  0.00    -0.017 C 
BRANCH  38  39
ATOM     39  C   UNL     1     -18.186 -10.500   0.000  1.00  0.00     0.009 C 
BRANCH  39  40
ATOM     40  C   UNL     1     -19.486 -11.250   0.000  1.00  0.00     0.009 C 
BRANCH  40  41
ATOM     41  C   UNL     1     -20.785 -12.000   0.000  1.00  0.00    -0.017 C 
BRANCH  41  42
ATOM     42  C   UNL     1     -22.084 -12.750   0.000  1.00  0.00     0.008 C 
BRANCH  42  43
ATOM     43  C   UNL     1     -23.608 -13.312   0.434  1.00  0.00     0.001 C 
BRANCH  43  44
ATOM     44  C   UNL     1     -24.457 -14.474  -0.475  1.00  0.00     0.000 C 
BRANCH  44  45
ATOM     45  C   UNL     1     -25.981 -15.000   0.000  1.00  0.00     0.000 C 
BRANCH  45  46
ATOM     46  C   UNL     1     -27.280 -15.750   0.000  1.00  0.00     0.000 C 
BRANCH  46  47
ATOM     47  C   UNL     1     -28.579 -16.500   0.000  1.00  0.00     0.000 C 
BRANCH  47  48
ATOM     48  C   UNL     1     -30.222 -16.856  -0.017  1.00  0.00     0.000 C 
BRANCH  48  49
ATOM     49  C   UNL     1     -30.818 -18.456   0.003  1.00  0.00     0.001 C 
BRANCH  49  50
ATOM     50  C   UNL     1     -32.476 -18.750   0.000  1.00  0.00     0.007 C 
BRANCH  50  51
ATOM     51  C   UNL     1     -33.775 -19.500   0.000  1.00  0.00    -0.027 C 
ATOM     52  C   UNL     1     -35.074 -20.250   0.000  1.00  0.00     0.012 C 
BRANCH  51  53
ATOM     53  C   UNL     1     -34.525 -18.201   0.000  1.00  0.00     0.004 C 
ATOM     54  C   UNL     1     -35.275 -16.902   0.000  1.00  0.00     0.004 C 
ENDBRANCH  51  53
ENDBRANCH  50  51
ENDBRANCH  49  50
ENDBRANCH  48  49
ENDBRANCH  47  48
ENDBRANCH  46  47
ENDBRANCH  45  46
ENDBRANCH  44  45
ENDBRANCH  43  44
ENDBRANCH  42  43
ENDBRANCH  41  42
ENDBRANCH  40  41
ENDBRANCH  39  40
ENDBRANCH  38  39
ENDBRANCH  37  38
ENDBRANCH  36  37
ENDBRANCH  35  36
ENDBRANCH  34  35
ENDBRANCH  33  34
ENDBRANCH  32  33
ENDBRANCH  31  32
ENDBRANCH  29  31
ENDBRANCH   1  29
TORSDOF 47
