REMARK SMILES CO[C@H]1C[C@H](O[C@H]2CC[C@]3(C)[C@H]4CC[C@]5(C)[C@@H](C6=CC(=O)OC6)CC[C@]5(O)[C@@H]4CC[C@]3(O)C2)O[C@H](C)[C@@H]1O[C@@H]1O[C@H](CO)[C@@H](O)[C@H](O)[C@H]1O
REMARK SMILES IDX 3 1 4 2 5 3 34 4 35 5 36 6 37 7 2 8 1 9 38 10 39 11 40 12
REMARK SMILES IDX 48 13 41 14 46 15 44 16 49 17 42 19 43 20 47 22 45 24 6 26
REMARK SMILES IDX 7 27 8 28 33 29 9 30 31 31 10 32 30 33 12 34 29 35 13 36
REMARK SMILES IDX 28 37 14 38 26 39 15 40 25 41 17 42 24 43 11 44 16 45 32 46
REMARK SMILES IDX 27 48 18 50 19 51 23 52 20 53 22 54 21 55
REMARK H PARENT 49 18 43 21 47 23 45 25 32 47 27 49
ROOT
ATOM      1  C   UNL     1      -4.694  -2.579   0.331  1.00  0.00     0.154 C 
ATOM      2  C   UNL     1      -3.358  -1.884   0.669  1.00  0.00     0.097 C 
ATOM      3  C   UNL     1      -2.491  -1.826  -0.601  1.00  0.00     0.253 C 
ATOM      4  O   UNL     1      -3.155  -1.057  -1.595  1.00  0.00    -0.347 OA
ATOM      5  C   UNL     1      -4.348  -1.715  -2.014  1.00  0.00     0.150 C 
ATOM      6  C   UNL     1      -4.955  -0.945  -3.187  1.00  0.00     0.041 C 
ATOM      7  C   UNL     1      -5.361  -1.836  -0.842  1.00  0.00     0.179 C 
ENDROOT
BRANCH   1   8
ATOM      8  O   UNL     1      -4.454  -3.922  -0.064  1.00  0.00    -0.378 OA
ATOM      9  C   UNL     1      -4.573  -4.799   1.034  1.00  0.00     0.195 C 
ENDBRANCH   1   8
BRANCH   7  10
ATOM     10  O   UNL     1      -5.757  -0.541  -0.404  1.00  0.00    -0.341 OA
BRANCH  10  11
ATOM     11  C   UNL     1      -7.154  -0.292  -0.532  1.00  0.00     0.282 C 
ATOM     12  O   UNL     1      -7.377   0.726  -1.515  1.00  0.00    -0.341 OA
ATOM     13  C   UNL     1      -7.769  -0.022   0.876  1.00  0.00     0.202 C 
ATOM     14  C   UNL     1      -7.588   2.023  -0.986  1.00  0.00     0.178 C 
ATOM     15  C   UNL     1      -9.096   0.706   0.663  1.00  0.00     0.179 C 
ATOM     16  C   UNL     1      -8.817   2.070  -0.013  1.00  0.00     0.177 C 
BRANCH  13  17
ATOM     17  O   UNL     1      -7.923  -1.223   1.592  1.00  0.00    -0.385 OA
ATOM     18  H   UNL     1      -8.623  -1.762   1.140  1.00  0.00     0.211 HD
ENDBRANCH  13  17
BRANCH  14  19
ATOM     19  C   UNL     1      -6.266   2.596  -0.418  1.00  0.00     0.191 C 
BRANCH  19  20
ATOM     20  O   UNL     1      -6.431   3.930  -0.020  1.00  0.00    -0.394 OA
ATOM     21  H   UNL     1      -6.380   4.482  -0.844  1.00  0.00     0.210 HD
ENDBRANCH  19  20
ENDBRANCH  14  19
BRANCH  15  22
ATOM     22  O   UNL     1      -9.830   0.868   1.851  1.00  0.00    -0.387 OA
ATOM     23  H   UNL     1      -9.247   1.344   2.499  1.00  0.00     0.211 HD
ENDBRANCH  15  22
BRANCH  16  24
ATOM     24  O   UNL     1      -9.982   2.509  -0.668  1.00  0.00    -0.387 OA
ATOM     25  H   UNL     1     -10.129   1.912  -1.448  1.00  0.00     0.211 HD
ENDBRANCH  16  24
ENDBRANCH  10  11
ENDBRANCH   7  10
BRANCH   3  26
ATOM     26  O   UNL     1      -1.239  -1.216  -0.285  1.00  0.00    -0.349 OA
BRANCH  26  27
ATOM     27  C   UNL     1      -0.121  -1.940  -0.805  1.00  0.00     0.124 C 
ATOM     28  C   UNL     1       0.499  -1.214  -2.026  1.00  0.00     0.033 C 
ATOM     29  C   UNL     1       0.916  -2.182   0.299  1.00  0.00     0.068 C 
ATOM     30  C   UNL     1       1.963  -0.764  -1.804  1.00  0.00     0.012 C 
ATOM     31  C   UNL     1       1.689  -0.905   0.779  1.00  0.00     0.073 C 
ATOM     32  C   UNL     1       2.147   0.022  -0.468  1.00  0.00    -0.000 C 
ATOM     33  C   UNL     1       2.932  -1.430   1.573  1.00  0.00     0.036 C 
ATOM     34  C   UNL     1       3.675   0.436  -0.311  1.00  0.00     0.004 C 
ATOM     35  C   UNL     1       3.868  -0.321   2.109  1.00  0.00     0.010 C 
ATOM     36  C   UNL     1       4.238   1.452  -1.318  1.00  0.00     0.005 C 
ATOM     37  C   UNL     1       3.941   0.897   1.148  1.00  0.00     0.025 C 
ATOM     38  C   UNL     1       5.774   1.488  -1.165  1.00  0.00     0.010 C 
ATOM     39  C   UNL     1       5.105   1.968   1.309  1.00  0.00     0.074 C 
ATOM     40  C   UNL     1       6.286   1.788   0.293  1.00  0.00     0.003 C 
ATOM     41  C   UNL     1       5.817   1.876   2.675  1.00  0.00     0.037 C 
ATOM     42  C   UNL     1       7.056   0.611   0.949  1.00  0.00     0.028 C 
ATOM     43  C   UNL     1       7.024   0.940   2.464  1.00  0.00     0.012 C 
ATOM     44  C   UNL     1       1.257   1.308  -0.564  1.00  0.00     0.015 C 
ATOM     45  C   UNL     1       7.202   3.052   0.231  1.00  0.00     0.015 C 
BRANCH  31  46
ATOM     46  O   UNL     1       0.875  -0.152   1.652  1.00  0.00    -0.389 OA
ATOM     47  H   UNL     1       0.627  -0.728   2.422  1.00  0.00     0.211 HD
ENDBRANCH  31  46
BRANCH  39  48
ATOM     48  O   UNL     1       4.538   3.248   1.118  1.00  0.00    -0.389 OA
ATOM     49  H   UNL     1       4.025   3.482   1.935  1.00  0.00     0.211 HD
ENDBRANCH  39  48
BRANCH  42  50
ATOM     50  C   UNL     1       8.440   0.284   0.381  1.00  0.00    -0.022 C 
ATOM     51  C   UNL     1       9.593   0.299   1.048  1.00  0.00     0.096 C 
ATOM     52  C   UNL     1       8.713  -0.124  -1.051  1.00  0.00     0.265 C 
ATOM     53  C   UNL     1      10.610  -0.079   0.100  1.00  0.00     0.331 C 
ATOM     54  O   UNL     1      10.079  -0.324  -1.106  1.00  0.00    -0.458 OA
ATOM     55  O   UNL     1      11.802  -0.167   0.344  1.00  0.00    -0.247 OA
ENDBRANCH  42  50
ENDBRANCH  26  27
ENDBRANCH   3  26
TORSDOF 13
