REMARK SMILES COc1cc(Cc2nccc3cc(OC)c(OC)cc23)c(NC(=O)[C@H](C)c2ccc(CC(C)C)cc2)cc1OC
REMARK SMILES IDX 22 1 23 2 24 3 21 5 3 6 4 7 38 8 5 9 37 10 2 11 1 12 39 13
REMARK SMILES IDX 40 14 6 15 7 16 8 17 20 18 9 19 19 20 11 21 10 22 16 23
REMARK SMILES IDX 12 24 13 25 17 26 18 27 14 28 15 29 25 30 26 31 27 32 28 33
REMARK SMILES IDX 36 34 29 35 35 36 30 37 31 38 32 39 33 40 34 41
REMARK H PARENT 22 4
ROOT
ATOM      1  N   UNL     1       0.189   0.190  -0.974  1.00  0.00    -0.325 N 
ATOM      2  C   UNL     1       1.502   0.010  -0.634  1.00  0.00     0.231 C 
ATOM      3  O   UNL     1       1.957  -1.102  -0.430  1.00  0.00    -0.274 OA
ATOM      4  H   UNL     1      -0.086   1.167  -1.113  1.00  0.00     0.169 HD
ENDROOT
BRANCH   1   5
ATOM      5  C   UNL     1      -0.826  -0.824  -1.175  1.00  0.00     0.048 A 
ATOM      6  C   UNL     1      -2.845  -2.786  -1.616  1.00  0.00     0.161 A 
ATOM      7  C   UNL     1      -3.130  -1.421  -1.760  1.00  0.00     0.056 A 
ATOM      8  C   UNL     1      -1.559  -3.183  -1.254  1.00  0.00     0.162 A 
ATOM      9  C   UNL     1      -2.150  -0.436  -1.536  1.00  0.00    -0.014 A 
ATOM     10  C   UNL     1      -0.564  -2.212  -1.043  1.00  0.00     0.076 A 
BRANCH   6  11
ATOM     11  O   UNL     1      -3.787  -3.749  -1.804  1.00  0.00    -0.493 OA
ATOM     12  C   UNL     1      -5.118  -3.537  -2.098  1.00  0.00     0.278 C 
ENDBRANCH   6  11
BRANCH   8  13
ATOM     13  O   UNL     1      -1.315  -4.516  -1.110  1.00  0.00    -0.493 OA
ATOM     14  C   UNL     1      -0.119  -5.091  -0.728  1.00  0.00     0.278 C 
ENDBRANCH   8  13
BRANCH   9  15
ATOM     15  C   UNL     1      -2.590   1.013  -1.644  1.00  0.00     0.094 C 
BRANCH  15  16
ATOM     16  C   UNL     1      -2.863   1.563  -0.255  1.00  0.00     0.053 A 
ATOM     17  N   UNL     1      -1.803   2.023   0.463  1.00  0.00    -0.260 NA
ATOM     18  C   UNL     1      -4.157   1.553   0.351  1.00  0.00     0.008 A 
ATOM     19  C   UNL     1      -1.916   2.491   1.731  1.00  0.00     0.112 A 
ATOM     20  C   UNL     1      -5.311   1.079  -0.302  1.00  0.00     0.061 A 
ATOM     21  C   UNL     1      -4.281   2.027   1.681  1.00  0.00    -0.011 A 
ATOM     22  C   UNL     1      -3.154   2.498   2.364  1.00  0.00     0.029 A 
ATOM     23  C   UNL     1      -6.562   1.063   0.339  1.00  0.00     0.161 A 
ATOM     24  C   UNL     1      -5.529   2.007   2.321  1.00  0.00     0.059 A 
ATOM     25  C   UNL     1      -6.672   1.524   1.657  1.00  0.00     0.161 A 
BRANCH  23  26
ATOM     26  O   UNL     1      -7.682   0.603  -0.281  1.00  0.00    -0.493 OA
ATOM     27  C   UNL     1      -7.755   0.128  -1.577  1.00  0.00     0.278 C 
ENDBRANCH  23  26
BRANCH  25  28
ATOM     28  O   UNL     1      -7.893   1.477   2.252  1.00  0.00    -0.493 OA
ATOM     29  C   UNL     1      -8.176   1.843   3.551  1.00  0.00     0.278 C 
ENDBRANCH  25  28
ENDBRANCH  15  16
ENDBRANCH   9  15
ENDBRANCH   1   5
BRANCH   2  30
ATOM     30  C   UNL     1       2.420   1.213  -0.472  1.00  0.00     0.106 C 
ATOM     31  C   UNL     1       2.519   2.041  -1.764  1.00  0.00     0.023 C 
BRANCH  30  32
ATOM     32  C   UNL     1       3.805   0.768  -0.018  1.00  0.00    -0.036 A 
ATOM     33  C   UNL     1       4.624  -0.015  -0.856  1.00  0.00     0.005 A 
ATOM     34  C   UNL     1       4.263   1.096   1.268  1.00  0.00     0.005 A 
ATOM     35  C   UNL     1       5.871  -0.460  -0.414  1.00  0.00     0.004 A 
ATOM     36  C   UNL     1       5.500   0.629   1.717  1.00  0.00     0.004 A 
ATOM     37  C   UNL     1       6.312  -0.150   0.881  1.00  0.00    -0.048 A 
BRANCH  37  38
ATOM     38  C   UNL     1       7.640  -0.662   1.373  1.00  0.00     0.038 C 
BRANCH  38  39
ATOM     39  C   UNL     1       8.822   0.157   0.816  1.00  0.00    -0.013 C 
ATOM     40  C   UNL     1       8.751   1.613   1.311  1.00  0.00     0.008 C 
ATOM     41  C   UNL     1      10.145  -0.474   1.264  1.00  0.00     0.008 C 
ENDBRANCH  38  39
ENDBRANCH  37  38
ENDBRANCH  30  32
ENDBRANCH   2  30
TORSDOF 11
