REMARK SMILES CC1=CC(=O)O[C@H]1C/C=C(\C)CC[C@@H]1[C@@]2(C)CCC[C@@]3(C)C(=O)O[C@@H](C[C@@]1(C)O)[C@@H]23
REMARK SMILES IDX 12 1 10 2 9 3 11 4 8 5 7 6 2 7 3 8 4 9 6 10 5 11 1 12 13 13
REMARK SMILES IDX 14 14 15 15 27 16 17 17 30 18 26 19 18 20 25 21 20 22 19 23
REMARK SMILES IDX 24 24 22 25 23 26 16 27 28 28 21 29 29 30
REMARK H PARENT 29 31
ROOT
ATOM      1  C   UNL     1       1.116  -1.228  -0.862  1.00  0.00     0.031 C 
ENDROOT
BRANCH   1   2
ATOM      2  C   UNL     1       2.501  -1.290  -0.229  1.00  0.00    -0.077 C 
ATOM      3  C   UNL     1       3.494  -0.513  -0.738  1.00  0.00    -0.024 C 
ATOM      4  C   UNL     1       2.680  -2.247   0.941  1.00  0.00     0.039 C 
BRANCH   3   5
ATOM      5  C   UNL     1       4.912  -0.401  -0.216  1.00  0.00     0.077 C 
BRANCH   5   6
ATOM      6  C   UNL     1       5.215   1.055   0.165  1.00  0.00     0.207 C 
ATOM      7  C   UNL     1       6.585   1.212   0.788  1.00  0.00    -0.026 C 
ATOM      8  C   UNL     1       7.333   2.009   0.042  1.00  0.00     0.096 C 
ATOM      9  C   UNL     1       6.497   2.397  -1.068  1.00  0.00     0.331 C 
ATOM     10  O   UNL     1       5.273   1.848  -0.970  1.00  0.00    -0.454 OA
ATOM     11  O   UNL     1       6.838   3.133  -1.979  1.00  0.00    -0.247 OA
ATOM     12  C   UNL     1       7.023   0.581   2.078  1.00  0.00     0.044 C 
ENDBRANCH   5   6
ENDBRANCH   3   5
ENDBRANCH   1   2
BRANCH   1  13
ATOM     13  C   UNL     1       0.068  -0.754   0.170  1.00  0.00     0.011 C 
BRANCH  13  14
ATOM     14  C   UNL     1      -1.410  -0.672  -0.343  1.00  0.00     0.027 C 
ATOM     15  C   UNL     1      -2.395   0.101   0.646  1.00  0.00    -0.020 C 
ATOM     16  C   UNL     1      -1.956  -2.058  -0.880  1.00  0.00     0.069 C 
ATOM     17  C   UNL     1      -1.765   1.512   0.932  1.00  0.00     0.007 C 
ATOM     18  C   UNL     1      -3.899   0.250   0.061  1.00  0.00     0.054 C 
ATOM     19  C   UNL     1      -3.508  -2.067  -0.947  1.00  0.00     0.080 C 
ATOM     20  C   UNL     1      -2.797   2.523   1.377  1.00  0.00     0.002 C 
ATOM     21  C   UNL     1      -4.135  -0.696  -1.147  1.00  0.00     0.184 C 
ATOM     22  C   UNL     1      -4.221   1.617  -0.598  1.00  0.00     0.072 C 
ATOM     23  C   UNL     1      -3.707   2.862   0.195  1.00  0.00     0.019 C 
ATOM     24  O   UNL     1      -3.634   0.006  -2.230  1.00  0.00    -0.461 OA
ATOM     25  C   UNL     1      -3.585   1.327  -1.926  1.00  0.00     0.312 C 
ATOM     26  O   UNL     1      -2.939   2.126  -2.586  1.00  0.00    -0.252 OA
ATOM     27  C   UNL     1      -2.509  -0.648   2.005  1.00  0.00     0.012 C 
ATOM     28  C   UNL     1      -1.528  -3.300  -0.044  1.00  0.00     0.042 C 
ATOM     29  C   UNL     1      -5.742   1.825  -0.845  1.00  0.00     0.024 C 
BRANCH  16  30
ATOM     30  O   UNL     1      -1.442  -2.197  -2.188  1.00  0.00    -0.390 OA
ATOM     31  H   UNL     1      -1.732  -3.073  -2.556  1.00  0.00     0.211 HD
ENDBRANCH  16  30
ENDBRANCH  13  14
ENDBRANCH   1  13
TORSDOF 6
