REMARK SMILES C=C1CC[C@H]2C(=C)CC[C@@H]3[C@H](OC(=O)[C@@]3(O)C[C@]3(C)CCC(=O)[C@]4(C)CC[C@H]5C(=C)C(=O)O[C@@H]5[C@@H]34)[C@@H]12
REMARK SMILES IDX 10 1 11 2 12 3 13 4 14 5 15 6 36 7 1 8 2 9 3 10 4 11 5 12
REMARK SMILES IDX 9 14 8 15 6 16 7 17 16 19 17 21 18 22 20 23 35 24 21 25
REMARK SMILES IDX 34 26 24 27 22 28 33 29 28 30 26 31 23 32 31 33 27 34 29 35
REMARK SMILES IDX 32 36 30 37 19 38 25 39
REMARK H PARENT 16 20
REMARK Flexibility Score:   59.900
ROOT
ATOM      1  C   UNL     1      -2.131   0.458  -0.441  1.00  0.00     0.074 C 
ATOM      2  C   UNL     1      -3.079   1.321  -1.290  1.00  0.00     0.191 C 
ATOM      3  O   UNL     1      -2.212   2.262  -1.816  1.00  0.00    -0.459 OA
ATOM      4  C   UNL     1      -0.941   1.806  -1.804  1.00  0.00     0.338 C 
ATOM      5  O   UNL     1       0.009   2.564  -1.893  1.00  0.00    -0.249 OA
ATOM      6  C   UNL     1      -0.873   0.374  -1.331  1.00  0.00     0.168 C 
ENDROOT
BRANCH   2   7
ATOM      7  C   UNL     1      -4.247   2.015  -0.508  1.00  0.00     0.063 C 
ATOM      8  C   UNL     1      -6.099   1.336  -2.126  1.00  0.00     0.008 C 
ATOM      9  C   UNL     1      -5.666   1.656  -0.899  1.00  0.00    -0.070 C 
ATOM     10  C   UNL     1      -6.579   1.733   0.290  1.00  0.00     0.031 C 
ATOM     11  C   UNL     1      -5.693   2.417   1.335  1.00  0.00     0.013 C 
ATOM     12  C   UNL     1      -4.297   1.856   1.048  1.00  0.00     0.025 CG0
ATOM     13  G   UNL     1      -4.236   0.411   1.592  1.00  0.00     0.000 G0
ENDBRANCH   2   7
BRANCH   1  14
ATOM     14  C   UNL     1      -2.697  -0.888   0.046  1.00  0.00     0.015 C 
BRANCH  14  15
ATOM     15  C   UNL     1      -4.089  -0.782   0.671  1.00  0.00     0.031 C 
BRANCH  15  16
ATOM     16  C   UNL     1      -4.236   0.411   1.592  1.00  0.00    -0.074 CG0
ATOM     17  C   UNL     1      -4.346   0.202   2.915  1.00  0.00     0.008 C 
ATOM     18  G   UNL     1      -4.297   1.856   1.048  1.00  0.00     0.000 G0
ENDBRANCH  15  16
ENDBRANCH  14  15
ENDBRANCH   1  14
BRANCH   6  19
ATOM     19  O   UNL     1      -1.168  -0.515  -2.385  1.00  0.00    -0.378 OA
ATOM     20  H   UNL     1      -0.864  -0.115  -3.243  1.00  0.00     0.212 HD
ENDBRANCH   6  19
BRANCH   6  21
ATOM     21  C   UNL     1       0.386  -0.077  -0.512  1.00  0.00     0.055 C 
BRANCH  21  22
ATOM     22  C   UNL     1       1.781  -0.434  -1.174  1.00  0.00    -0.021 C 
ATOM     23  C   UNL     1       1.641  -1.617  -2.199  1.00  0.00     0.015 C 
ATOM     24  C   UNL     1       2.754  -0.859   0.037  1.00  0.00     0.050 C 
ATOM     25  C   UNL     1       1.539  -3.000  -1.566  1.00  0.00     0.077 C 
ATOM     26  C   UNL     1       3.624   0.262   0.662  1.00  0.00     0.189 C 
ATOM     27  C   UNL     1       3.653  -2.139  -0.214  1.00  0.00     0.033 C 
ATOM     28  C   UNL     1       2.677  -3.257  -0.606  1.00  0.00     0.139 C 
ATOM     29  O   UNL     1       3.019   1.460   1.000  1.00  0.00    -0.458 OA
ATOM     30  C   UNL     1       4.254  -0.220   1.978  1.00  0.00     0.067 C 
ATOM     31  C   UNL     1       4.390  -2.534   1.123  1.00  0.00     0.016 C 
ATOM     32  O   UNL     1       2.704  -4.336  -0.031  1.00  0.00    -0.299 OA
ATOM     33  C   UNL     1       3.795   2.051   1.941  1.00  0.00     0.334 C 
ATOM     34  C   UNL     1       5.216  -1.380   1.742  1.00  0.00     0.013 C 
ATOM     35  C   UNL     1       4.709   1.078   2.537  1.00  0.00     0.037 C 
ATOM     36  O   UNL     1       3.712   3.229   2.242  1.00  0.00    -0.247 OA
ATOM     37  C   UNL     1       5.675   1.300   3.433  1.00  0.00     0.021 C 
ATOM     38  C   UNL     1       2.336   0.765  -1.976  1.00  0.00     0.012 C 
ATOM     39  C   UNL     1       4.763  -1.966  -1.296  1.00  0.00     0.020 C 
ENDBRANCH  21  22
ENDBRANCH   6  21
TORSDOF 3
