REMARK SMILES CCCCCCCCCCCCCC(=O)OC[C@H](COC(=O)CCCCCCCC[C]CC[C]CCCCCC(C)C)OC(=O)CCCCCCCCCCCCCCCCCC(C)C
REMARK SMILES IDX 18 1 17 2 16 3 14 4 15 5 13 6 12 7 11 8 10 9 9 10 8 11 7 12
REMARK SMILES IDX 6 13 5 14 4 15 3 16 2 17 1 18 19 19 20 20 21 21 22 22 23 23
REMARK SMILES IDX 24 24 25 25 26 26 27 27 28 28 29 29 30 30 31 31 32 32 33 33
REMARK SMILES IDX 34 34 35 35 36 36 37 37 38 38 39 39 40 40 41 41 42 42 43 43
REMARK SMILES IDX 44 44 45 45 46 46 47 47 48 48 49 49 50 50 51 51 52 52 53 53
REMARK SMILES IDX 54 54 55 55 56 56 57 57 58 58 59 59 60 60 61 61 62 62 63 63
REMARK SMILES IDX 64 64 65 65
REMARK H PARENT
ROOT
ATOM      1  C   UNL     1      -3.239  -2.302   0.320  1.00  0.00     0.251 C 
ENDROOT
BRANCH   1   2
ATOM      2  C   UNL     1      -1.627  -1.943  -0.025  1.00  0.00     0.281 C 
BRANCH   2   3
ATOM      3  O   UNL     1      -0.990  -0.645   0.269  1.00  0.00    -0.462 OA
BRANCH   3   4
ATOM      4  C   UNL     1       0.401  -0.281   0.068  1.00  0.00     0.305 C 
ATOM      5  O   UNL     1       1.163  -1.168  -0.284  1.00  0.00    -0.252 OA
BRANCH   4   6
ATOM      6  C   UNL     1       1.091   1.204   0.261  1.00  0.00     0.123 C 
BRANCH   6   7
ATOM      7  C   UNL     1       2.739   1.472   0.047  1.00  0.00     0.012 C 
BRANCH   7   8
ATOM      8  C   UNL     1       3.535   2.955   0.188  1.00  0.00     0.001 C 
BRANCH   8   9
ATOM      9  C   UNL     1       5.196   3.000   0.000  1.00  0.00     0.000 C 
BRANCH   9  10
ATOM     10  C   UNL     1       6.495   3.750   0.000  1.00  0.00     0.000 C 
BRANCH  10  11
ATOM     11  C   UNL     1       7.794   4.500   0.000  1.00  0.00     0.000 C 
BRANCH  11  12
ATOM     12  C   UNL     1       9.093   5.250   0.000  1.00  0.00     0.000 C 
BRANCH  12  13
ATOM     13  C   UNL     1      10.392   6.000   0.000  1.00  0.00    -0.000 C 
BRANCH  13  14
ATOM     14  C   UNL     1      11.691   6.750   0.000  1.00  0.00    -0.000 C 
BRANCH  14  15
ATOM     15  C   UNL     1      13.338   7.082  -0.059  1.00  0.00    -0.000 C 
BRANCH  15  16
ATOM     16  C   UNL     1      13.940   8.674   0.017  1.00  0.00    -0.000 C 
BRANCH  16  17
ATOM     17  C   UNL     1      15.588   9.000   0.000  1.00  0.00    -0.003 C 
ATOM     18  C   UNL     1      16.887   9.750   0.000  1.00  0.00     0.004 C 
ENDBRANCH  16  17
ENDBRANCH  15  16
ENDBRANCH  14  15
ENDBRANCH  13  14
ENDBRANCH  12  13
ENDBRANCH  11  12
ENDBRANCH  10  11
ENDBRANCH   9  10
ENDBRANCH   8   9
ENDBRANCH   7   8
ENDBRANCH   6   7
ENDBRANCH   4   6
ENDBRANCH   3   4
ENDBRANCH   2   3
ENDBRANCH   1   2
BRANCH   1  19
ATOM     19  C   UNL     1      -3.701  -3.868  -0.135  1.00  0.00     0.281 C 
BRANCH  19  20
ATOM     20  O   UNL     1      -4.972  -4.571   0.156  1.00  0.00    -0.462 OA
BRANCH  20  21
ATOM     21  C   UNL     1      -5.196  -6.000   0.000  1.00  0.00     0.305 C 
ATOM     22  O   UNL     1      -4.186  -6.668  -0.220  1.00  0.00    -0.252 OA
BRANCH  21  23
ATOM     23  C   UNL     1      -6.495  -6.750   0.000  1.00  0.00     0.123 C 
BRANCH  23  24
ATOM     24  C   UNL     1      -7.794  -7.500   0.000  1.00  0.00     0.012 C 
BRANCH  24  25
ATOM     25  C   UNL     1      -9.093  -8.250   0.000  1.00  0.00     0.001 C 
BRANCH  25  26
ATOM     26  C   UNL     1     -10.392  -9.000   0.000  1.00  0.00     0.000 C 
BRANCH  26  27
ATOM     27  C   UNL     1     -11.691  -9.750   0.000  1.00  0.00     0.000 C 
BRANCH  27  28
ATOM     28  C   UNL     1     -13.340 -10.066   0.064  1.00  0.00     0.000 C 
BRANCH  28  29
ATOM     29  C   UNL     1     -13.945 -11.651  -0.063  1.00  0.00     0.001 C 
BRANCH  29  30
ATOM     30  C   UNL     1     -15.588 -12.000   0.000  1.00  0.00     0.008 C 
BRANCH  30  31
ATOM     31  C   UNL     1     -16.887 -12.750   0.000  1.00  0.00    -0.017 C 
BRANCH  31  32
ATOM     32  C   UNL     1     -18.186 -13.500   0.000  1.00  0.00     0.009 C 
BRANCH  32  33
ATOM     33  C   UNL     1     -19.486 -14.250   0.000  1.00  0.00     0.009 C 
BRANCH  33  34
ATOM     34  C   UNL     1     -20.785 -15.000   0.000  1.00  0.00    -0.017 C 
BRANCH  34  35
ATOM     35  C   UNL     1     -22.084 -15.750   0.000  1.00  0.00     0.008 C 
BRANCH  35  36
ATOM     36  C   UNL     1     -23.672 -16.189   0.330  1.00  0.00     0.001 C 
BRANCH  36  37
ATOM     37  C   UNL     1     -24.411 -17.543  -0.387  1.00  0.00     0.000 C 
BRANCH  37  38
ATOM     38  C   UNL     1     -25.981 -18.000   0.000  1.00  0.00     0.000 C 
BRANCH  38  39
ATOM     39  C   UNL     1     -27.280 -18.750   0.000  1.00  0.00     0.003 C 
BRANCH  39  40
ATOM     40  C   UNL     1     -28.579 -19.500   0.000  1.00  0.00    -0.017 C 
ATOM     41  C   UNL     1     -29.878 -20.250   0.000  1.00  0.00     0.007 C 
ATOM     42  C   UNL     1     -29.329 -18.201   0.000  1.00  0.00     0.007 C 
ENDBRANCH  39  40
ENDBRANCH  38  39
ENDBRANCH  37  38
ENDBRANCH  36  37
ENDBRANCH  35  36
ENDBRANCH  34  35
ENDBRANCH  33  34
ENDBRANCH  32  33
ENDBRANCH  31  32
ENDBRANCH  30  31
ENDBRANCH  29  30
ENDBRANCH  28  29
ENDBRANCH  27  28
ENDBRANCH  26  27
ENDBRANCH  25  26
ENDBRANCH  24  25
ENDBRANCH  23  24
ENDBRANCH  21  23
ENDBRANCH  20  21
ENDBRANCH  19  20
ENDBRANCH   1  19
BRANCH   1  43
ATOM     43  O   UNL     1      -3.999  -1.235  -0.196  1.00  0.00    -0.455 OA
BRANCH  43  44
ATOM     44  C   UNL     1      -5.327  -0.872  -0.088  1.00  0.00     0.306 C 
ATOM     45  O   UNL     1      -6.211  -1.712  -0.062  1.00  0.00    -0.252 OA
BRANCH  44  46
ATOM     46  C   UNL     1      -5.637   0.625   0.123  1.00  0.00     0.123 C 
BRANCH  46  47
ATOM     47  C   UNL     1      -7.052   1.298  -0.152  1.00  0.00     0.012 C 
BRANCH  47  48
ATOM     48  C   UNL     1      -6.994   2.791   0.354  1.00  0.00     0.001 C 
BRANCH  48  49
ATOM     49  C   UNL     1      -7.831   4.032  -0.163  1.00  0.00     0.000 C 
BRANCH  49  50
ATOM     50  C   UNL     1      -9.329   4.506   0.154  1.00  0.00     0.000 C 
BRANCH  50  51
ATOM     51  C   UNL     1      -9.348   6.093   0.000  1.00  0.00     0.000 C 
BRANCH  51  52
ATOM     52  C   UNL     1     -10.098   7.392   0.000  1.00  0.00     0.000 C 
BRANCH  52  53
ATOM     53  C   UNL     1     -10.848   8.691   0.000  1.00  0.00     0.000 C 
BRANCH  53  54
ATOM     54  C   UNL     1     -11.294  10.259  -0.419  1.00  0.00     0.000 C 
BRANCH  54  55
ATOM     55  C   UNL     1     -12.775  10.939   0.089  1.00  0.00     0.000 C 
BRANCH  55  56
ATOM     56  C   UNL     1     -13.098  12.588   0.000  1.00  0.00     0.000 C 
BRANCH  56  57
ATOM     57  C   UNL     1     -13.848  13.887   0.000  1.00  0.00     0.000 C 
BRANCH  57  58
ATOM     58  C   UNL     1     -14.598  15.187   0.000  1.00  0.00     0.000 C 
BRANCH  58  59
ATOM     59  C   UNL     1     -15.348  16.486   0.000  1.00  0.00     0.000 C 
BRANCH  59  60
ATOM     60  C   UNL     1     -16.098  17.785   0.000  1.00  0.00     0.000 C 
BRANCH  60  61
ATOM     61  C   UNL     1     -16.848  19.084   0.000  1.00  0.00     0.000 C 
BRANCH  61  62
ATOM     62  C   UNL     1     -18.055  20.062   0.580  1.00  0.00     0.003 C 
BRANCH  62  63
ATOM     63  C   UNL     1     -18.348  21.682   0.000  1.00  0.00    -0.017 C 
ATOM     64  C   UNL     1     -19.098  22.981   0.000  1.00  0.00     0.007 C 
ATOM     65  C   UNL     1     -17.049  22.432   0.000  1.00  0.00     0.007 C 
ENDBRANCH  62  63
ENDBRANCH  61  62
ENDBRANCH  60  61
ENDBRANCH  59  60
ENDBRANCH  58  59
ENDBRANCH  57  58
ENDBRANCH  56  57
ENDBRANCH  55  56
ENDBRANCH  54  55
ENDBRANCH  53  54
ENDBRANCH  52  53
ENDBRANCH  51  52
ENDBRANCH  50  51
ENDBRANCH  49  50
ENDBRANCH  48  49
ENDBRANCH  47  48
ENDBRANCH  46  47
ENDBRANCH  44  46
ENDBRANCH  43  44
ENDBRANCH   1  43
TORSDOF 56
