REMARK SMILES C/C(N[C@@H](CO)[C@H](O)c1ccc([N+](=O)[O-])cc1)=C1/C(=O)C[C@@H]2[C@H]1C2(C)C
REMARK SMILES IDX 4 1 3 2 2 4 18 5 19 6 23 7 20 8 21 9 22 10 24 11 1 12 25 13
REMARK SMILES IDX 26 14 5 15 6 16 7 18 8 19 9 21 10 22 17 23 11 24 16 25 12 26
REMARK SMILES IDX 13 27 14 28 15 29
REMARK H PARENT 3 3 6 17 8 20
ROOT
ATOM      1  C   UNL     1       1.310   0.188   1.433  1.00  0.00     0.137 C 
ENDROOT
BRANCH   1   2
ATOM      2  N   UNL     1      -0.007   0.612   1.909  1.00  0.00    -0.380 N 
ATOM      3  H   UNL     1      -0.052   1.623   2.094  1.00  0.00     0.160 HD
BRANCH   2   4
ATOM      4  C   UNL     1      -1.251  -0.039   1.599  1.00  0.00     0.015 C 
ATOM      5  C   UNL     1      -2.250   0.631   0.957  1.00  0.00     0.018 C 
ATOM      6  C   UNL     1      -2.191   1.991   0.406  1.00  0.00     0.161 C 
ATOM      7  C   UNL     1      -3.610   0.030   0.690  1.00  0.00     0.035 C 
ATOM      8  O   UNL     1      -1.218   2.726   0.427  1.00  0.00    -0.294 OA
ATOM      9  C   UNL     1      -3.453   2.368  -0.265  1.00  0.00     0.085 C 
ATOM     10  C   UNL     1      -4.395   1.177  -0.052  1.00  0.00     0.011 C 
ATOM     11  C   UNL     1      -4.071  -0.149  -0.738  1.00  0.00    -0.024 C 
ATOM     12  C   UNL     1      -1.502  -1.469   2.021  1.00  0.00     0.064 C 
ATOM     13  C   UNL     1      -3.018  -0.242  -1.857  1.00  0.00     0.012 C 
ATOM     14  C   UNL     1      -5.235  -1.146  -0.851  1.00  0.00     0.012 C 
ENDBRANCH   2   4
ENDBRANCH   1   2
BRANCH   1  15
ATOM     15  C   UNL     1       1.741  -1.209   1.918  1.00  0.00     0.183 C 
BRANCH  15  16
ATOM     16  O   UNL     1       1.640  -1.296   3.315  1.00  0.00    -0.394 OA
ATOM     17  H   UNL     1       2.402  -0.781   3.690  1.00  0.00     0.210 HD
ENDBRANCH  15  16
ENDBRANCH   1  15
BRANCH   1  18
ATOM     18  C   UNL     1       1.420   0.439  -0.102  1.00  0.00     0.169 C 
BRANCH  18  19
ATOM     19  O   UNL     1       0.470  -0.268  -0.861  1.00  0.00    -0.386 OA
ATOM     20  H   UNL     1       0.517  -1.223  -0.606  1.00  0.00     0.211 HD
ENDBRANCH  18  19
BRANCH  18  21
ATOM     21  C   UNL     1       2.823   0.242  -0.650  1.00  0.00    -0.017 A 
ATOM     22  C   UNL     1       3.639   1.361  -0.890  1.00  0.00     0.013 A 
ATOM     23  C   UNL     1       3.335  -1.039  -0.921  1.00  0.00     0.013 A 
ATOM     24  C   UNL     1       4.941   1.204  -1.370  1.00  0.00     0.086 A 
ATOM     25  C   UNL     1       4.633  -1.197  -1.413  1.00  0.00     0.086 A 
ATOM     26  C   UNL     1       5.457  -0.077  -1.638  1.00  0.00     0.269 A 
BRANCH  26  27
ATOM     27  N   UNL     1       6.788  -0.234  -2.123  1.00  0.00     0.062 N 
ATOM     28  O   UNL     1       7.226  -1.321  -2.356  1.00  0.00    -0.258 OA
ATOM     29  O   UNL     1       7.560   0.817  -2.309  1.00  0.00    -0.258 OA
ENDBRANCH  26  27
ENDBRANCH  18  21
ENDBRANCH   1  18
TORSDOF 8
