REMARK SMILES COc1cc(/C=C\CO)cc(OC)c1O[C@H]1O[C@@H](CO)[C@H](O)[C@@H](O)[C@@H]1O[C@@H]1OC[C@@](O)(CO)[C@H]1O
REMARK SMILES IDX 16 1 17 2 18 3 21 4 23 5 25 6 15 7 14 8 3 9 4 10 5 11 11 12
REMARK SMILES IDX 10 13 2 14 1 15 6 16 7 17 8 18 9 19 12 21 13 22 26 23 27 24
REMARK SMILES IDX 28 25 34 26 29 27 30 28 35 29 31 31 32 33 33 34 19 36 20 37
REMARK SMILES IDX 24 39 22 41
REMARK H PARENT 9 20 35 30 31 32 33 35 20 38 24 40 22 42
ROOT
ATOM      1  C   UNL     1       0.248  -1.015  -0.235  1.00  0.00     0.340 C 
ATOM      2  O   UNL     1       0.526  -2.296   0.345  1.00  0.00    -0.332 OA
ATOM      3  C   UNL     1       1.092  -3.275  -0.544  1.00  0.00     0.179 C 
ATOM      4  C   UNL     1       0.739  -3.008  -2.033  1.00  0.00     0.177 C 
ATOM      5  C   UNL     1       1.264  -1.621  -2.476  1.00  0.00     0.181 C 
ATOM      6  C   UNL     1       1.309  -0.626  -1.286  1.00  0.00     0.221 C 
ENDROOT
BRANCH   1   7
ATOM      7  O   UNL     1      -1.020  -1.033  -0.785  1.00  0.00    -0.454 OA
BRANCH   7   8
ATOM      8  C   UNL     1      -2.041  -0.222  -0.429  1.00  0.00     0.206 A 
ATOM      9  C   UNL     1      -2.146   1.058  -0.993  1.00  0.00     0.165 A 
ATOM     10  C   UNL     1      -3.244   1.870  -0.654  1.00  0.00     0.058 A 
ATOM     11  C   UNL     1      -4.217   1.431   0.254  1.00  0.00    -0.018 A 
ATOM     12  C   UNL     1      -3.015  -0.692   0.464  1.00  0.00     0.165 A 
ATOM     13  C   UNL     1      -4.102   0.139   0.799  1.00  0.00     0.058 A 
BRANCH   9  14
ATOM     14  O   UNL     1      -1.185   1.466  -1.860  1.00  0.00    -0.493 OA
ATOM     15  C   UNL     1      -1.122   2.694  -2.484  1.00  0.00     0.278 C 
ENDBRANCH   9  14
BRANCH  11  16
ATOM     16  C   UNL     1      -5.366   2.339   0.533  1.00  0.00     0.006 C 
ATOM     17  C   UNL     1      -6.126   2.455   1.646  1.00  0.00     0.001 C 
BRANCH  17  18
ATOM     18  C   UNL     1      -5.955   1.815   3.005  1.00  0.00     0.183 C 
BRANCH  18  19
ATOM     19  O   UNL     1      -4.674   1.290   3.207  1.00  0.00    -0.392 OA
ATOM     20  H   UNL     1      -4.763   0.588   3.902  1.00  0.00     0.210 HD
ENDBRANCH  18  19
ENDBRANCH  17  18
ENDBRANCH  11  16
BRANCH  12  21
ATOM     21  O   UNL     1      -2.876  -1.948   0.967  1.00  0.00    -0.493 OA
ATOM     22  C   UNL     1      -3.726  -2.561   1.864  1.00  0.00     0.278 C 
ENDBRANCH  12  21
ENDBRANCH   7   8
ENDBRANCH   1   7
BRANCH   6  23
ATOM     23  O   UNL     1       2.571  -0.750  -0.641  1.00  0.00    -0.337 OA
BRANCH  23  24
ATOM     24  C   UNL     1       3.376   0.418  -0.674  1.00  0.00     0.282 C 
ATOM     25  O   UNL     1       4.571   0.152  -1.369  1.00  0.00    -0.347 OA
ATOM     26  C   UNL     1       3.836   0.736   0.736  1.00  0.00     0.207 C 
ATOM     27  C   UNL     1       5.426   1.202  -0.965  1.00  0.00     0.204 C 
ATOM     28  C   UNL     1       5.149   1.500   0.529  1.00  0.00     0.142 C 
BRANCH  26  29
ATOM     29  O   UNL     1       2.870   1.359   1.546  1.00  0.00    -0.385 OA
ATOM     30  H   UNL     1       2.436   2.071   1.009  1.00  0.00     0.211 HD
ENDBRANCH  26  29
BRANCH  28  31
ATOM     31  O   UNL     1       6.129   0.909   1.351  1.00  0.00    -0.382 OA
ATOM     32  H   UNL     1       7.008   1.299   1.104  1.00  0.00     0.211 HD
ENDBRANCH  28  31
BRANCH  28  33
ATOM     33  C   UNL     1       5.091   3.022   0.797  1.00  0.00     0.196 C 
BRANCH  33  34
ATOM     34  O   UNL     1       4.904   3.273   2.167  1.00  0.00    -0.393 OA
ATOM     35  H   UNL     1       3.966   3.570   2.292  1.00  0.00     0.210 HD
ENDBRANCH  33  34
ENDBRANCH  28  33
ENDBRANCH  23  24
ENDBRANCH   6  23
BRANCH   3  36
ATOM     36  C   UNL     1       0.585  -4.658  -0.113  1.00  0.00     0.191 C 
BRANCH  36  37
ATOM     37  O   UNL     1       0.940  -4.916   1.219  1.00  0.00    -0.394 OA
ATOM     38  H   UNL     1       1.901  -5.169   1.212  1.00  0.00     0.210 HD
ENDBRANCH  36  37
ENDBRANCH   3  36
BRANCH   5  39
ATOM     39  O   UNL     1       0.495  -1.139  -3.553  1.00  0.00    -0.387 OA
ATOM     40  H   UNL     1      -0.411  -0.926  -3.212  1.00  0.00     0.211 HD
ENDBRANCH   5  39
BRANCH   4  41
ATOM     41  O   UNL     1       1.194  -4.014  -2.902  1.00  0.00    -0.387 OA
ATOM     42  H   UNL     1       2.174  -4.097  -2.768  1.00  0.00     0.211 HD
ENDBRANCH   4  41
TORSDOF 17
