REMARK SMILES CO[C@H]1C[C@H](O[C@H]2CC[C@@]3(C=O)[C@H](CC[C@@H]4[C@@H]3CC[C@]3(C)[C@@H](C5=CC(=O)OC5)CC[C@]43O)C2)O[C@H](C)[C@H]1O
REMARK SMILES IDX 6 1 5 2 3 3 4 4 37 5 35 6 34 7 36 8 2 9 1 10 38 11 7 13 8 14
REMARK SMILES IDX 33 15 9 16 13 17 10 18 14 19 17 20 15 21 16 22 18 23 31 24
REMARK SMILES IDX 19 25 30 26 20 27 29 28 22 29 21 30 11 31 12 32 32 33 23 35
REMARK SMILES IDX 24 36 28 37 25 38 27 39 26 40
REMARK H PARENT 38 12 32 34
ROOT
ATOM      1  O   UNL     1      -3.991  -0.176   0.600  1.00  0.00    -0.349 OA
ENDROOT
BRANCH   1   2
ATOM      2  C   UNL     1      -4.853   0.396  -0.370  1.00  0.00     0.253 C 
ATOM      3  C   UNL     1      -6.978  -0.148  -1.571  1.00  0.00     0.154 C 
ATOM      4  C   UNL     1      -5.683  -0.736  -1.028  1.00  0.00     0.097 C 
ATOM      5  C   UNL     1      -7.784   0.357  -0.350  1.00  0.00     0.172 C 
ATOM      6  C   UNL     1      -6.883   1.041   0.736  1.00  0.00     0.149 C 
ATOM      7  O   UNL     1      -5.622   1.448   0.225  1.00  0.00    -0.347 OA
ATOM      8  C   UNL     1      -6.709   0.204   2.017  1.00  0.00     0.041 C 
BRANCH   3   9
ATOM      9  O   UNL     1      -6.662   0.923  -2.452  1.00  0.00    -0.378 OA
ATOM     10  C   UNL     1      -7.462   0.871  -3.614  1.00  0.00     0.195 C 
ENDBRANCH   3   9
BRANCH   5  11
ATOM     11  O   UNL     1      -8.848   1.181  -0.756  1.00  0.00    -0.388 OA
ATOM     12  H   UNL     1      -8.463   2.050  -1.040  1.00  0.00     0.211 HD
ENDBRANCH   5  11
ENDBRANCH   1   2
BRANCH   1  13
ATOM     13  C   UNL     1      -2.618   0.126   0.421  1.00  0.00     0.121 C 
ATOM     14  C   UNL     1      -2.083   0.676   1.748  1.00  0.00     0.033 C 
ATOM     15  C   UNL     1      -1.877  -1.175   0.080  1.00  0.00     0.036 C 
ATOM     16  C   UNL     1      -0.580   0.957   1.645  1.00  0.00     0.018 C 
ATOM     17  C   UNL     1      -0.345  -0.994  -0.039  1.00  0.00     0.005 C 
ATOM     18  C   UNL     1       0.277  -0.293   1.232  1.00  0.00     0.032 C 
ATOM     19  C   UNL     1       0.092  -0.265  -1.304  1.00  0.00     0.005 C 
ATOM     20  C   UNL     1       1.747   0.260   0.940  1.00  0.00     0.008 C 
ATOM     21  C   UNL     1       1.611  -0.469  -1.514  1.00  0.00     0.007 C 
ATOM     22  C   UNL     1       2.457  -0.520  -0.194  1.00  0.00     0.026 C 
ATOM     23  C   UNL     1       2.614   0.326   2.226  1.00  0.00     0.006 C 
ATOM     24  C   UNL     1       3.934  -0.037  -0.460  1.00  0.00     0.074 C 
ATOM     25  C   UNL     1       3.992   0.913   1.926  1.00  0.00     0.010 C 
ATOM     26  C   UNL     1       4.066   1.383  -1.100  1.00  0.00     0.037 C 
ATOM     27  C   UNL     1       4.783   0.095   0.840  1.00  0.00     0.003 C 
ATOM     28  C   UNL     1       5.337   2.024  -0.511  1.00  0.00     0.012 C 
ATOM     29  C   UNL     1       6.016   0.933   0.337  1.00  0.00     0.028 C 
ATOM     30  C   UNL     1       5.169  -1.281   1.443  1.00  0.00     0.015 C 
BRANCH  18  31
ATOM     31  C   UNL     1       0.290  -1.361   2.324  1.00  0.00     0.231 C 
ATOM     32  O   UNL     1      -0.282  -1.206   3.391  1.00  0.00    -0.303 OA
ENDBRANCH  18  31
BRANCH  24  33
ATOM     33  O   UNL     1       4.577  -0.971  -1.302  1.00  0.00    -0.389 OA
ATOM     34  H   UNL     1       4.156  -0.935  -2.201  1.00  0.00     0.211 HD
ENDBRANCH  24  33
BRANCH  29  35
ATOM     35  C   UNL     1       7.077   0.180  -0.482  1.00  0.00    -0.022 C 
ATOM     36  C   UNL     1       7.276   0.268  -1.798  1.00  0.00     0.096 C 
ATOM     37  C   UNL     1       8.163  -0.703   0.111  1.00  0.00     0.265 C 
ATOM     38  C   UNL     1       8.428  -0.543  -2.089  1.00  0.00     0.331 C 
ATOM     39  O   UNL     1       8.930  -1.089  -0.972  1.00  0.00    -0.458 OA
ATOM     40  O   UNL     1       8.917  -0.699  -3.196  1.00  0.00    -0.247 OA
ENDBRANCH  29  35
ENDBRANCH   1  13
TORSDOF 7
