REMARK SMILES O=C(CO)Nc1cc2c(cc1OC(=O)CO)Oc1ccc(CO)cc1N2
REMARK SMILES IDX 6 1 7 2 8 3 9 4 10 5 11 6 17 7 18 8 19 9 20 10 21 11 24 12
REMARK SMILES IDX 25 13 26 14 5 16 1 17 2 18 3 20 4 21 12 23 13 24 14 25 15 26
REMARK SMILES IDX 16 27 22 29 23 30
REMARK H PARENT 26 15 5 19 4 22 16 28 23 31
ROOT
ATOM      1  C   UNL     1      -1.875   0.407   0.119  1.00  0.00     0.087 A 
ATOM      2  C   UNL     1      -0.603   1.019   0.263  1.00  0.00     0.060 A 
ATOM      3  C   UNL     1       0.564   0.246   0.318  1.00  0.00     0.084 A 
ATOM      4  C   UNL     1       0.489  -1.153   0.242  1.00  0.00     0.154 A 
ATOM      5  C   UNL     1      -0.748  -1.772   0.095  1.00  0.00     0.098 A 
ATOM      6  C   UNL     1      -1.920  -1.010   0.025  1.00  0.00     0.158 A 
ATOM      7  O   UNL     1       1.621  -1.902   0.307  1.00  0.00    -0.453 OA
ATOM      8  C   UNL     1       2.857  -1.355   0.441  1.00  0.00     0.150 A 
ATOM      9  C   UNL     1       3.983  -2.178   0.507  1.00  0.00     0.050 A 
ATOM     10  C   UNL     1       5.257  -1.614   0.641  1.00  0.00     0.010 A 
ATOM     11  C   UNL     1       5.413  -0.219   0.706  1.00  0.00    -0.020 A 
ATOM     12  C   UNL     1       4.279   0.608   0.643  1.00  0.00     0.036 A 
ATOM     13  C   UNL     1       3.003   0.042   0.514  1.00  0.00     0.082 A 
ATOM     14  N   UNL     1       1.841   0.857   0.455  1.00  0.00    -0.349 N 
ATOM     15  H   UNL     1       1.924   1.884   0.509  1.00  0.00     0.167 HD
ENDROOT
BRANCH   1  16
ATOM     16  N   UNL     1      -3.117   1.141   0.076  1.00  0.00    -0.321 N 
ATOM     17  O   UNL     1      -2.363   3.268   0.263  1.00  0.00    -0.272 OA
ATOM     18  C   UNL     1      -3.300   2.494   0.157  1.00  0.00     0.250 C 
ATOM     19  H   UNL     1      -3.982   0.586  -0.010  1.00  0.00     0.170 HD
BRANCH  18  20
ATOM     20  C   UNL     1      -4.703   3.048   0.120  1.00  0.00     0.256 C 
BRANCH  20  21
ATOM     21  O   UNL     1      -4.705   4.449   0.198  1.00  0.00    -0.387 OA
ATOM     22  H   UNL     1      -4.561   4.680   1.153  1.00  0.00     0.211 HD
ENDBRANCH  20  21
ENDBRANCH  18  20
ENDBRANCH   1  16
BRANCH   6  23
ATOM     23  O   UNL     1      -3.096  -1.660  -0.136  1.00  0.00    -0.422 OA
BRANCH  23  24
ATOM     24  C   UNL     1      -3.694  -1.816  -1.346  1.00  0.00     0.337 C 
ATOM     25  O   UNL     1      -3.150  -1.415  -2.368  1.00  0.00    -0.249 OA
BRANCH  24  26
ATOM     26  C   UNL     1      -5.032  -2.493  -1.418  1.00  0.00     0.279 C 
BRANCH  26  27
ATOM     27  O   UNL     1      -5.480  -2.604  -2.744  1.00  0.00    -0.385 OA
ATOM     28  H   UNL     1      -5.818  -1.707  -3.005  1.00  0.00     0.211 HD
ENDBRANCH  26  27
ENDBRANCH  24  26
ENDBRANCH  23  24
ENDBRANCH   6  23
BRANCH  11  29
ATOM     29  C   UNL     1       6.781   0.391   0.846  1.00  0.00     0.191 C 
BRANCH  29  30
ATOM     30  O   UNL     1       7.057   1.224  -0.247  1.00  0.00    -0.392 OA
ATOM     31  H   UNL     1       7.304   0.627  -1.002  1.00  0.00     0.211 HD
ENDBRANCH  29  30
ENDBRANCH  11  29
TORSDOF 9
