REMARK SMILES CCC(C)CCCCCCCCC(=O)OC[C@@H](COC(=O)CCCCCCC[C]CC[C]CCC(C)C)OC(=O)CCCCCCCCCCCCCCCCCCCCC(C)C
REMARK SMILES IDX 41 1 39 2 40 3 38 4 17 5 16 6 15 7 13 8 14 9 12 10 11 11
REMARK SMILES IDX 10 12 9 13 8 14 7 15 6 16 5 17 3 18 4 19 2 20 1 21 18 22
REMARK SMILES IDX 19 23 20 24 21 25 22 26 23 27 24 28 25 29 26 30 27 31 28 32
REMARK SMILES IDX 29 33 30 34 31 35 32 36 33 37 34 38 35 39 36 40 37 41 42 42
REMARK SMILES IDX 43 43 44 44 45 45 46 46 47 47 48 48 49 49 50 50 51 51 52 52
REMARK SMILES IDX 53 53 54 54 55 55 56 56 57 57 58 58 59 59 60 60 61 61 62 62
REMARK SMILES IDX 63 63
REMARK H PARENT
ROOT
ATOM      1  C   UNL     1      -6.612   0.621   1.292  1.00  0.00     0.123 C 
ENDROOT
BRANCH   1   2
ATOM      2  C   UNL     1      -5.752  -0.212   0.373  1.00  0.00     0.306 C 
ATOM      3  O   UNL     1      -6.269  -0.749  -0.596  1.00  0.00    -0.252 OA
BRANCH   2   4
ATOM      4  O   UNL     1      -4.423  -0.405   0.653  1.00  0.00    -0.455 OA
BRANCH   4   5
ATOM      5  C   UNL     1      -3.663  -1.434   0.104  1.00  0.00     0.251 C 
BRANCH   5   6
ATOM      6  C   UNL     1      -2.031  -1.192   0.414  1.00  0.00     0.281 C 
BRANCH   6   7
ATOM      7  O   UNL     1      -1.272  -0.017  -0.044  1.00  0.00    -0.462 OA
BRANCH   7   8
ATOM      8  C   UNL     1       0.133   0.248   0.182  1.00  0.00     0.305 C 
ATOM      9  O   UNL     1       0.759  -0.571   0.837  1.00  0.00    -0.252 OA
BRANCH   8  10
ATOM     10  C   UNL     1       1.000   1.540  -0.345  1.00  0.00     0.123 C 
BRANCH  10  11
ATOM     11  C   UNL     1       2.628   1.717   0.008  1.00  0.00     0.012 C 
BRANCH  11  12
ATOM     12  C   UNL     1       3.603   2.997  -0.483  1.00  0.00     0.001 C 
BRANCH  12  13
ATOM     13  C   UNL     1       5.196   3.000   0.000  1.00  0.00     0.000 C 
BRANCH  13  14
ATOM     14  C   UNL     1       6.495   3.750   0.000  1.00  0.00     0.000 C 
BRANCH  14  15
ATOM     15  C   UNL     1       7.794   4.500   0.000  1.00  0.00     0.000 C 
BRANCH  15  16
ATOM     16  C   UNL     1       9.093   5.250   0.000  1.00  0.00     0.000 C 
BRANCH  16  17
ATOM     17  C   UNL     1      10.392   6.000   0.000  1.00  0.00     0.003 C 
BRANCH  17  18
ATOM     18  C   UNL     1      11.691   6.750   0.000  1.00  0.00    -0.015 C 
ATOM     19  C   UNL     1      10.941   8.049   0.000  1.00  0.00     0.007 C 
BRANCH  18  20
ATOM     20  C   UNL     1      12.441   5.451   0.000  1.00  0.00    -0.000 C 
ATOM     21  C   UNL     1      13.191   4.152   0.000  1.00  0.00     0.004 C 
ENDBRANCH  18  20
ENDBRANCH  17  18
ENDBRANCH  16  17
ENDBRANCH  15  16
ENDBRANCH  14  15
ENDBRANCH  13  14
ENDBRANCH  12  13
ENDBRANCH  11  12
ENDBRANCH  10  11
ENDBRANCH   8  10
ENDBRANCH   7   8
ENDBRANCH   6   7
ENDBRANCH   5   6
BRANCH   5  22
ATOM     22  C   UNL     1      -4.289  -2.876   0.650  1.00  0.00     0.281 C 
BRANCH  22  23
ATOM     23  O   UNL     1      -5.728  -3.153   0.732  1.00  0.00    -0.462 OA
BRANCH  23  24
ATOM     24  C   UNL     1      -6.452  -4.308   0.302  1.00  0.00     0.305 C 
ATOM     25  O   UNL     1      -5.947  -4.987  -0.578  1.00  0.00    -0.252 OA
BRANCH  24  26
ATOM     26  C   UNL     1      -7.818  -4.922   0.967  1.00  0.00     0.123 C 
BRANCH  26  27
ATOM     27  C   UNL     1      -9.093  -5.250   0.000  1.00  0.00     0.012 C 
BRANCH  27  28
ATOM     28  C   UNL     1     -10.392  -6.000   0.000  1.00  0.00     0.001 C 
BRANCH  28  29
ATOM     29  C   UNL     1     -11.691  -6.750   0.000  1.00  0.00     0.000 C 
BRANCH  29  30
ATOM     30  C   UNL     1     -13.340  -7.068  -0.045  1.00  0.00     0.000 C 
BRANCH  30  31
ATOM     31  C   UNL     1     -13.944  -8.656   0.039  1.00  0.00     0.001 C 
BRANCH  31  32
ATOM     32  C   UNL     1     -15.588  -9.000   0.000  1.00  0.00     0.008 C 
BRANCH  32  33
ATOM     33  C   UNL     1     -16.887  -9.750   0.000  1.00  0.00    -0.017 C 
BRANCH  33  34
ATOM     34  C   UNL     1     -18.186 -10.500   0.000  1.00  0.00     0.009 C 
BRANCH  34  35
ATOM     35  C   UNL     1     -19.486 -11.250   0.000  1.00  0.00     0.009 C 
BRANCH  35  36
ATOM     36  C   UNL     1     -20.785 -12.000   0.000  1.00  0.00    -0.017 C 
BRANCH  36  37
ATOM     37  C   UNL     1     -22.084 -12.750   0.000  1.00  0.00     0.008 C 
BRANCH  37  38
ATOM     38  C   UNL     1     -23.643 -13.037  -0.657  1.00  0.00     0.003 C 
BRANCH  38  39
ATOM     39  C   UNL     1     -24.682 -14.250   0.000  1.00  0.00    -0.017 C 
ATOM     40  C   UNL     1     -25.981 -15.000   0.000  1.00  0.00     0.007 C 
ATOM     41  C   UNL     1     -23.932 -15.549   0.000  1.00  0.00     0.007 C 
ENDBRANCH  38  39
ENDBRANCH  37  38
ENDBRANCH  36  37
ENDBRANCH  35  36
ENDBRANCH  34  35
ENDBRANCH  33  34
ENDBRANCH  32  33
ENDBRANCH  31  32
ENDBRANCH  30  31
ENDBRANCH  29  30
ENDBRANCH  28  29
ENDBRANCH  27  28
ENDBRANCH  26  27
ENDBRANCH  24  26
ENDBRANCH  23  24
ENDBRANCH  22  23
ENDBRANCH   5  22
ENDBRANCH   4   5
ENDBRANCH   2   4
ENDBRANCH   1   2
BRANCH   1  42
ATOM     42  C   UNL     1      -7.260   1.831   0.583  1.00  0.00     0.012 C 
BRANCH  42  43
ATOM     43  C   UNL     1      -7.963   2.749   1.610  1.00  0.00     0.001 C 
BRANCH  43  44
ATOM     44  C   UNL     1      -8.222   4.176   1.089  1.00  0.00     0.000 C 
BRANCH  44  45
ATOM     45  C   UNL     1      -9.614   4.656   0.541  1.00  0.00     0.000 C 
BRANCH  45  46
ATOM     46  C   UNL     1      -9.348   6.093   0.000  1.00  0.00     0.000 C 
BRANCH  46  47
ATOM     47  C   UNL     1     -10.098   7.392   0.000  1.00  0.00     0.000 C 
BRANCH  47  48
ATOM     48  C   UNL     1     -10.848   8.691   0.000  1.00  0.00     0.000 C 
BRANCH  48  49
ATOM     49  C   UNL     1     -11.399  10.204  -0.484  1.00  0.00     0.000 C 
BRANCH  49  50
ATOM     50  C   UNL     1     -12.632  11.016   0.370  1.00  0.00     0.000 C 
BRANCH  50  51
ATOM     51  C   UNL     1     -13.098  12.588   0.000  1.00  0.00     0.000 C 
BRANCH  51  52
ATOM     52  C   UNL     1     -13.848  13.887   0.000  1.00  0.00     0.000 C 
BRANCH  52  53
ATOM     53  C   UNL     1     -14.598  15.187   0.000  1.00  0.00     0.000 C 
BRANCH  53  54
ATOM     54  C   UNL     1     -15.348  16.486   0.000  1.00  0.00     0.000 C 
BRANCH  54  55
ATOM     55  C   UNL     1     -16.098  17.785   0.000  1.00  0.00     0.000 C 
BRANCH  55  56
ATOM     56  C   UNL     1     -16.848  19.084   0.000  1.00  0.00     0.000 C 
BRANCH  56  57
ATOM     57  C   UNL     1     -17.250  20.695  -0.261  1.00  0.00     0.000 C 
BRANCH  57  58
ATOM     58  C   UNL     1     -18.730  21.362   0.265  1.00  0.00     0.000 C 
BRANCH  58  59
ATOM     59  C   UNL     1     -19.098  22.981   0.000  1.00  0.00     0.000 C 
BRANCH  59  60
ATOM     60  C   UNL     1     -19.848  24.280   0.000  1.00  0.00     0.003 C 
BRANCH  60  61
ATOM     61  C   UNL     1     -20.598  25.579   0.000  1.00  0.00    -0.017 C 
ATOM     62  C   UNL     1     -21.348  26.878   0.000  1.00  0.00     0.007 C 
ATOM     63  C   UNL     1     -21.897  24.829   0.000  1.00  0.00     0.007 C 
ENDBRANCH  60  61
ENDBRANCH  59  60
ENDBRANCH  58  59
ENDBRANCH  57  58
ENDBRANCH  56  57
ENDBRANCH  55  56
ENDBRANCH  54  55
ENDBRANCH  53  54
ENDBRANCH  52  53
ENDBRANCH  51  52
ENDBRANCH  50  51
ENDBRANCH  49  50
ENDBRANCH  48  49
ENDBRANCH  47  48
ENDBRANCH  46  47
ENDBRANCH  45  46
ENDBRANCH  44  45
ENDBRANCH  43  44
ENDBRANCH  42  43
ENDBRANCH   1  42
TORSDOF 53
