REMARK SMILES CC1=C2C(=C[C@@](C)(CO)[C@H]2O)C(=O)[C@@](C)(O)C12CC2
REMARK SMILES IDX 1 1 2 2 3 3 4 4 5 5 6 6 7 7 10 8 12 9 13 10 14 11 15 12
REMARK SMILES IDX 17 13 18 14 19 15 11 16 16 18 8 20 9 21
REMARK H PARENT 11 17 16 19 9 22
ROOT
ATOM      1  C   UNL     1      -1.005   2.529   0.099  1.00  0.00     0.040 C 
ATOM      2  C   UNL     1      -0.881   1.034  -0.097  1.00  0.00    -0.057 C 
ATOM      3  C   UNL     1       0.288   0.378   0.134  1.00  0.00    -0.008 C 
ATOM      4  C   UNL     1       0.416  -1.057  -0.050  1.00  0.00     0.023 C 
ATOM      5  C   UNL     1       1.663  -1.457   0.131  1.00  0.00    -0.003 C 
ATOM      6  C   UNL     1       2.556  -0.324   0.577  1.00  0.00     0.040 C 
ATOM      7  C   UNL     1       2.980  -0.620   2.030  1.00  0.00     0.021 C 
ATOM      8  C   UNL     1       1.624   0.945   0.523  1.00  0.00     0.157 C 
ATOM      9  C   UNL     1      -0.765  -1.889  -0.356  1.00  0.00     0.195 C 
ATOM     10  O   UNL     1      -0.651  -3.030  -0.778  1.00  0.00    -0.291 OA
ATOM     11  C   UNL     1      -2.120  -1.264  -0.032  1.00  0.00     0.134 C 
ATOM     12  C   UNL     1      -3.299  -2.149  -0.504  1.00  0.00     0.052 C 
ATOM     13  C   UNL     1      -2.059   0.186  -0.610  1.00  0.00     0.028 C 
ATOM     14  C   UNL     1      -2.447   0.460  -2.051  1.00  0.00     0.016 C 
ATOM     15  C   UNL     1      -3.368   0.920  -0.901  1.00  0.00     0.016 C 
ENDROOT
BRANCH   8  16
ATOM     16  O   UNL     1       2.048   1.902  -0.422  1.00  0.00    -0.387 OA
ATOM     17  H   UNL     1       1.866   1.549  -1.334  1.00  0.00     0.211 HD
ENDBRANCH   8  16
BRANCH  11  18
ATOM     18  O   UNL     1      -2.227  -1.121   1.366  1.00  0.00    -0.381 OA
ATOM     19  H   UNL     1      -2.042  -2.004   1.785  1.00  0.00     0.212 HD
ENDBRANCH  11  18
BRANCH   6  20
ATOM     20  C   UNL     1       3.814  -0.236  -0.325  1.00  0.00     0.170 C 
BRANCH  20  21
ATOM     21  O   UNL     1       4.709   0.744   0.138  1.00  0.00    -0.395 OA
ATOM     22  H   UNL     1       4.467   1.601  -0.297  1.00  0.00     0.210 HD
ENDBRANCH  20  21
ENDBRANCH   6  20
TORSDOF 4
