REMARK SMILES CC[C]CC[C]CCCCCCCCCCCCC(=O)OC[C@H](COC(=O)CCCCCCCC[C]CC[C]CCCC)OC(=O)CCCCCCCCCCCCCCC(C)C
REMARK SMILES IDX 22 1 21 2 19 3 20 4 18 5 17 6 16 7 15 8 14 9 13 10 12 11
REMARK SMILES IDX 11 12 10 13 9 14 8 15 7 16 6 17 5 18 4 19 3 20 2 21 1 22
REMARK SMILES IDX 23 23 24 24 25 25 26 26 27 27 28 28 29 29 30 30 31 31 32 32
REMARK SMILES IDX 33 33 34 34 35 35 36 36 37 37 38 38 39 39 40 40 41 41 42 42
REMARK SMILES IDX 43 43 44 44 45 45 46 46 47 47 48 48 49 49 50 50 51 51 52 52
REMARK SMILES IDX 53 53 54 54 55 55 56 56 57 57 58 58 59 59 60 60 61 61 62 62
REMARK SMILES IDX 63 63
REMARK H PARENT
ROOT
ATOM      1  C   UNL     1      -1.710  -1.854  -0.082  1.00  0.00     0.281 C 
ENDROOT
BRANCH   1   2
ATOM      2  O   UNL     1      -1.075  -0.548   0.193  1.00  0.00    -0.462 OA
BRANCH   2   3
ATOM      3  C   UNL     1       0.325  -0.204   0.005  1.00  0.00     0.305 C 
ATOM      4  O   UNL     1       1.080  -1.107  -0.322  1.00  0.00    -0.252 OA
BRANCH   3   5
ATOM      5  C   UNL     1       1.042   1.274   0.187  1.00  0.00     0.123 C 
BRANCH   5   6
ATOM      6  C   UNL     1       2.701   1.511   0.003  1.00  0.00     0.012 C 
BRANCH   6   7
ATOM      7  C   UNL     1       3.525   2.985   0.117  1.00  0.00     0.001 C 
BRANCH   7   8
ATOM      8  C   UNL     1       5.196   3.000   0.000  1.00  0.00     0.000 C 
BRANCH   8   9
ATOM      9  C   UNL     1       6.495   3.750   0.000  1.00  0.00     0.000 C 
BRANCH   9  10
ATOM     10  C   UNL     1       7.794   4.500   0.000  1.00  0.00     0.000 C 
BRANCH  10  11
ATOM     11  C   UNL     1       9.093   5.250   0.000  1.00  0.00     0.000 C 
BRANCH  11  12
ATOM     12  C   UNL     1      10.392   6.000   0.000  1.00  0.00     0.000 C 
BRANCH  12  13
ATOM     13  C   UNL     1      11.691   6.750   0.000  1.00  0.00     0.000 C 
BRANCH  13  14
ATOM     14  C   UNL     1      13.342   7.063   0.005  1.00  0.00     0.000 C 
BRANCH  14  15
ATOM     15  C   UNL     1      13.944   8.654  -0.011  1.00  0.00     0.001 C 
BRANCH  15  16
ATOM     16  C   UNL     1      15.588   9.000   0.000  1.00  0.00     0.008 C 
BRANCH  16  17
ATOM     17  C   UNL     1      16.887   9.750   0.000  1.00  0.00    -0.017 C 
BRANCH  17  18
ATOM     18  C   UNL     1      18.186  10.500   0.000  1.00  0.00     0.009 C 
BRANCH  18  19
ATOM     19  C   UNL     1      19.486  11.250   0.000  1.00  0.00     0.009 C 
BRANCH  19  20
ATOM     20  C   UNL     1      20.785  12.000   0.000  1.00  0.00    -0.018 C 
BRANCH  20  21
ATOM     21  C   UNL     1      22.084  12.750   0.000  1.00  0.00     0.005 C 
ATOM     22  C   UNL     1      23.383  13.500   0.000  1.00  0.00     0.004 C 
ENDBRANCH  20  21
ENDBRANCH  19  20
ENDBRANCH  18  19
ENDBRANCH  17  18
ENDBRANCH  16  17
ENDBRANCH  15  16
ENDBRANCH  14  15
ENDBRANCH  13  14
ENDBRANCH  12  13
ENDBRANCH  11  12
ENDBRANCH  10  11
ENDBRANCH   9  10
ENDBRANCH   8   9
ENDBRANCH   7   8
ENDBRANCH   6   7
ENDBRANCH   5   6
ENDBRANCH   3   5
ENDBRANCH   2   3
ENDBRANCH   1   2
BRANCH   1  23
ATOM     23  C   UNL     1      -3.308  -2.277   0.290  1.00  0.00     0.251 C 
BRANCH  23  24
ATOM     24  C   UNL     1      -3.679  -3.885  -0.075  1.00  0.00     0.281 C 
BRANCH  24  25
ATOM     25  O   UNL     1      -4.967  -4.575   0.166  1.00  0.00    -0.462 OA
BRANCH  25  26
ATOM     26  C   UNL     1      -5.196  -6.000   0.000  1.00  0.00     0.305 C 
ATOM     27  O   UNL     1      -4.186  -6.670  -0.215  1.00  0.00    -0.252 OA
BRANCH  26  28
ATOM     28  C   UNL     1      -6.495  -6.750   0.000  1.00  0.00     0.123 C 
BRANCH  28  29
ATOM     29  C   UNL     1      -7.794  -7.500   0.000  1.00  0.00     0.012 C 
BRANCH  29  30
ATOM     30  C   UNL     1      -9.093  -8.250   0.000  1.00  0.00     0.001 C 
BRANCH  30  31
ATOM     31  C   UNL     1     -10.392  -9.000   0.000  1.00  0.00     0.000 C 
BRANCH  31  32
ATOM     32  C   UNL     1     -11.691  -9.750   0.000  1.00  0.00     0.000 C 
BRANCH  32  33
ATOM     33  C   UNL     1     -13.340 -10.066   0.058  1.00  0.00     0.000 C 
BRANCH  33  34
ATOM     34  C   UNL     1     -13.945 -11.652  -0.056  1.00  0.00     0.001 C 
BRANCH  34  35
ATOM     35  C   UNL     1     -15.588 -12.000   0.000  1.00  0.00     0.008 C 
BRANCH  35  36
ATOM     36  C   UNL     1     -16.887 -12.750   0.000  1.00  0.00    -0.017 C 
BRANCH  36  37
ATOM     37  C   UNL     1     -18.186 -13.500   0.000  1.00  0.00     0.009 C 
BRANCH  37  38
ATOM     38  C   UNL     1     -19.486 -14.250   0.000  1.00  0.00     0.009 C 
BRANCH  38  39
ATOM     39  C   UNL     1     -20.785 -15.000   0.000  1.00  0.00    -0.017 C 
BRANCH  39  40
ATOM     40  C   UNL     1     -22.084 -15.750   0.000  1.00  0.00     0.008 C 
BRANCH  40  41
ATOM     41  C   UNL     1     -23.806 -15.769   0.018  1.00  0.00     0.000 C 
BRANCH  41  42
ATOM     42  C   UNL     1     -24.682 -17.250   0.000  1.00  0.00    -0.003 C 
ATOM     43  C   UNL     1     -25.981 -18.000   0.000  1.00  0.00     0.004 C 
ENDBRANCH  41  42
ENDBRANCH  40  41
ENDBRANCH  39  40
ENDBRANCH  38  39
ENDBRANCH  37  38
ENDBRANCH  36  37
ENDBRANCH  35  36
ENDBRANCH  34  35
ENDBRANCH  33  34
ENDBRANCH  32  33
ENDBRANCH  31  32
ENDBRANCH  30  31
ENDBRANCH  29  30
ENDBRANCH  28  29
ENDBRANCH  26  28
ENDBRANCH  25  26
ENDBRANCH  24  25
ENDBRANCH  23  24
BRANCH  23  44
ATOM     44  O   UNL     1      -4.216  -1.396  -0.337  1.00  0.00    -0.455 OA
BRANCH  44  45
ATOM     45  C   UNL     1      -5.069  -0.487   0.274  1.00  0.00     0.306 C 
ATOM     46  O   UNL     1      -5.087  -0.383   1.493  1.00  0.00    -0.252 OA
BRANCH  45  47
ATOM     47  C   UNL     1      -5.966   0.439  -0.575  1.00  0.00     0.123 C 
BRANCH  47  48
ATOM     48  C   UNL     1      -6.804   1.561   0.172  1.00  0.00     0.012 C 
BRANCH  48  49
ATOM     49  C   UNL     1      -7.514   2.535  -0.842  1.00  0.00     0.001 C 
BRANCH  49  50
ATOM     50  C   UNL     1      -7.935   3.989  -0.379  1.00  0.00     0.000 C 
BRANCH  50  51
ATOM     51  C   UNL     1      -9.428   4.514  -0.118  1.00  0.00     0.000 C 
BRANCH  51  52
ATOM     52  C   UNL     1      -9.348   6.093   0.000  1.00  0.00     0.000 C 
BRANCH  52  53
ATOM     53  C   UNL     1     -10.098   7.392   0.000  1.00  0.00     0.000 C 
BRANCH  53  54
ATOM     54  C   UNL     1     -10.848   8.691   0.000  1.00  0.00     0.000 C 
BRANCH  54  55
ATOM     55  C   UNL     1     -11.341  10.238   0.437  1.00  0.00     0.000 C 
BRANCH  55  56
ATOM     56  C   UNL     1     -12.681  10.989  -0.305  1.00  0.00     0.000 C 
BRANCH  56  57
ATOM     57  C   UNL     1     -13.098  12.588   0.000  1.00  0.00     0.000 C 
BRANCH  57  58
ATOM     58  C   UNL     1     -13.848  13.887   0.000  1.00  0.00     0.000 C 
BRANCH  58  59
ATOM     59  C   UNL     1     -14.598  15.187   0.000  1.00  0.00     0.000 C 
BRANCH  59  60
ATOM     60  C   UNL     1     -15.348  16.486   0.000  1.00  0.00     0.003 C 
BRANCH  60  61
ATOM     61  C   UNL     1     -16.098  17.785   0.000  1.00  0.00    -0.017 C 
ATOM     62  C   UNL     1     -16.848  19.084   0.000  1.00  0.00     0.007 C 
ATOM     63  C   UNL     1     -17.397  17.035   0.000  1.00  0.00     0.007 C 
ENDBRANCH  60  61
ENDBRANCH  59  60
ENDBRANCH  58  59
ENDBRANCH  57  58
ENDBRANCH  56  57
ENDBRANCH  55  56
ENDBRANCH  54  55
ENDBRANCH  53  54
ENDBRANCH  52  53
ENDBRANCH  51  52
ENDBRANCH  50  51
ENDBRANCH  49  50
ENDBRANCH  48  49
ENDBRANCH  47  48
ENDBRANCH  45  47
ENDBRANCH  44  45
ENDBRANCH  23  44
ENDBRANCH   1  23
TORSDOF 55
