REMARK SMILES C[C@@H]1CC[C@]2(C(=O)O[C@@H]3O[C@H](COC(=O)c4cc(O)c(O)c(O)c4)[C@@H](O)[C@H](O)[C@H]3O)CC[C@]3(C)C(=CC[C@@H]4[C@@]5(C)CC[C@H](O[C@@H]6OC[C@H](O)[C@H](O)[C@H]6O)C(C)(C)[C@@H]5CC[C@]43C)[C@@H]2[C@]1(C)O
REMARK SMILES IDX 9 1 10 2 11 3 25 4 27 5 29 6 8 7 6 8 7 9 5 10 2 11 3 12
REMARK SMILES IDX 63 13 4 14 62 15 35 16 31 17 33 18 36 19 32 20 60 21 37 22
REMARK SMILES IDX 59 23 38 24 58 25 39 26 57 27 41 28 54 29 42 30 43 31 1 32
REMARK SMILES IDX 64 33 34 34 61 35 40 36 55 37 56 38 65 39 44 41 45 42 46 43
REMARK SMILES IDX 52 44 47 45 50 46 48 47 53 48 51 50 49 52 30 54 12 56 13 57
REMARK SMILES IDX 14 58 15 59 16 60 17 61 24 62 18 63 22 64 20 65 19 66 23 68
REMARK SMILES IDX 21 70 28 72 26 74
REMARK H PARENT 65 40 53 49 51 51 49 53 30 55 19 67 23 69 21 71 28 73 26 75
ROOT
ATOM      1  C   UNL     1       5.463  -0.566  -0.936  1.00  0.00     0.342 C 
ATOM      2  O   UNL     1       6.511   0.326  -0.626  1.00  0.00    -0.331 OA
ATOM      3  C   UNL     1       7.745  -0.323  -0.318  1.00  0.00     0.191 C 
ATOM      4  C   UNL     1       7.847  -1.819  -0.791  1.00  0.00     0.178 C 
ATOM      5  C   UNL     1       7.225  -1.983  -2.199  1.00  0.00     0.181 C 
ATOM      6  C   UNL     1       5.803  -1.315  -2.259  1.00  0.00     0.214 C 
ENDROOT
BRANCH   1   7
ATOM      7  O   UNL     1       4.307   0.172  -1.073  1.00  0.00    -0.432 OA
BRANCH   7   8
ATOM      8  C   UNL     1       3.050  -0.312  -0.898  1.00  0.00     0.315 C 
ATOM      9  O   UNL     1       2.879  -1.478  -0.559  1.00  0.00    -0.252 OA
BRANCH   8  10
ATOM     10  C   UNL     1       1.841   0.548  -1.234  1.00  0.00     0.077 C 
ATOM     11  C   UNL     1       2.690   2.224   0.961  1.00  0.00     0.018 C 
ATOM     12  C   UNL     1       2.336   2.983  -0.323  1.00  0.00     0.007 C 
ATOM     13  C   UNL     1       1.545   1.200   1.312  1.00  0.00     0.072 C 
ATOM     14  C   UNL     1       2.248   2.035  -1.565  1.00  0.00     0.020 C 
ATOM     15  C   UNL     1       0.858   0.621  -0.024  1.00  0.00     0.064 C 
ATOM     16  C   UNL     1      -0.505   1.181  -0.559  1.00  0.00    -0.061 C 
ATOM     17  C   UNL     1       1.198  -0.159  -2.494  1.00  0.00     0.020 C 
ATOM     18  C   UNL     1      -1.178   0.377  -1.704  1.00  0.00    -0.006 C 
ATOM     19  C   UNL     1      -1.232   2.175   0.021  1.00  0.00    -0.026 C 
ATOM     20  C   UNL     1      -0.199  -0.750  -2.193  1.00  0.00     0.013 C 
ATOM     21  C   UNL     1      -2.528  -0.152  -1.030  1.00  0.00    -0.020 C 
ATOM     22  C   UNL     1      -2.662   2.437  -0.376  1.00  0.00     0.032 C 
ATOM     23  C   UNL     1      -3.357  -1.124  -1.901  1.00  0.00     0.008 C 
ATOM     24  C   UNL     1      -3.462   1.131  -0.782  1.00  0.00     0.006 C 
ATOM     25  C   UNL     1      -4.659  -1.554  -1.175  1.00  0.00     0.005 C 
ATOM     26  C   UNL     1      -4.801   0.852   0.004  1.00  0.00    -0.025 C 
ATOM     27  C   UNL     1      -5.558  -0.346  -0.747  1.00  0.00     0.003 C 
ATOM     28  C   UNL     1      -5.790   2.061  -0.134  1.00  0.00     0.010 C 
ATOM     29  C   UNL     1      -6.920  -0.772  -0.062  1.00  0.00    -0.006 C 
ATOM     30  C   UNL     1      -7.113   1.795   0.611  1.00  0.00     0.033 C 
ATOM     31  C   UNL     1      -7.835   0.498   0.180  1.00  0.00     0.127 C 
ATOM     32  C   UNL     1       3.004   3.180   2.128  1.00  0.00     0.011 C 
ATOM     33  C   UNL     1       2.170   0.067   2.180  1.00  0.00     0.043 C 
ATOM     34  C   UNL     1      -1.441   1.241  -2.994  1.00  0.00     0.017 C 
ATOM     35  C   UNL     1      -2.116  -0.950   0.277  1.00  0.00     0.012 C 
ATOM     36  C   UNL     1      -4.452   0.725   1.534  1.00  0.00     0.012 C 
ATOM     37  C   UNL     1      -7.715  -1.717  -1.006  1.00  0.00     0.014 C 
ATOM     38  C   UNL     1      -6.699  -1.603   1.244  1.00  0.00     0.014 C 
BRANCH  13  39
ATOM     39  O   UNL     1       0.591   1.809   2.144  1.00  0.00    -0.389 OA
ATOM     40  H   UNL     1      -0.098   1.131   2.380  1.00  0.00     0.211 HD
ENDBRANCH  13  39
BRANCH  31  41
ATOM     41  O   UNL     1      -8.717   0.179   1.237  1.00  0.00    -0.346 OA
BRANCH  41  42
ATOM     42  C   UNL     1     -10.095   0.279   1.003  1.00  0.00     0.281 C 
ATOM     43  O   UNL     1     -10.530   1.543   1.468  1.00  0.00    -0.347 OA
ATOM     44  C   UNL     1     -10.713  -0.897   1.826  1.00  0.00     0.202 C 
ATOM     45  C   UNL     1     -11.948   1.723   1.407  1.00  0.00     0.198 C 
ATOM     46  C   UNL     1     -12.110  -0.564   2.406  1.00  0.00     0.179 C 
ATOM     47  C   UNL     1     -12.788   0.416   1.450  1.00  0.00     0.171 C 
BRANCH  44  48
ATOM     48  O   UNL     1     -10.739  -2.062   1.039  1.00  0.00    -0.385 OA
ATOM     49  H   UNL     1     -11.387  -1.917   0.302  1.00  0.00     0.211 HD
ENDBRANCH  44  48
BRANCH  46  50
ATOM     50  O   UNL     1     -12.021  -0.002   3.701  1.00  0.00    -0.387 OA
ATOM     51  H   UNL     1     -11.209   0.566   3.764  1.00  0.00     0.211 HD
ENDBRANCH  46  50
BRANCH  47  52
ATOM     52  O   UNL     1     -14.123   0.677   1.808  1.00  0.00    -0.388 OA
ATOM     53  H   UNL     1     -14.129   1.001   2.747  1.00  0.00     0.211 HD
ENDBRANCH  47  52
ENDBRANCH  41  42
ENDBRANCH  31  41
ENDBRANCH   8  10
ENDBRANCH   7   8
ENDBRANCH   1   7
BRANCH   6  54
ATOM     54  O   UNL     1       4.814  -2.256  -2.590  1.00  0.00    -0.384 OA
ATOM     55  H   UNL     1       4.799  -2.934  -1.866  1.00  0.00     0.211 HD
ENDBRANCH   6  54
BRANCH   3  56
ATOM     56  C   UNL     1       8.875   0.550  -0.870  1.00  0.00     0.268 C 
BRANCH  56  57
ATOM     57  O   UNL     1      10.078   0.046  -0.422  1.00  0.00    -0.459 OA
BRANCH  57  58
ATOM     58  C   UNL     1      11.292   0.592  -0.669  1.00  0.00     0.338 C 
ATOM     59  O   UNL     1      11.405   1.572  -1.389  1.00  0.00    -0.246 OA
BRANCH  58  60
ATOM     60  C   UNL     1      12.480  -0.011  -0.016  1.00  0.00     0.067 A 
ATOM     61  C   UNL     1      13.762   0.523  -0.207  1.00  0.00     0.066 A 
ATOM     62  C   UNL     1      12.319  -1.128   0.820  1.00  0.00     0.066 A 
ATOM     63  C   UNL     1      14.874  -0.055   0.428  1.00  0.00     0.162 A 
ATOM     64  C   UNL     1      13.416  -1.710   1.455  1.00  0.00     0.162 A 
ATOM     65  C   UNL     1      14.703  -1.175   1.263  1.00  0.00     0.200 A 
BRANCH  63  66
ATOM     66  O   UNL     1      16.106   0.463   0.240  1.00  0.00    -0.504 OA
ATOM     67  H   UNL     1      16.261   1.232  -0.325  1.00  0.00     0.293 HD
ENDBRANCH  63  66
BRANCH  64  68
ATOM     68  O   UNL     1      13.214  -2.782   2.250  1.00  0.00    -0.504 OA
ATOM     69  H   UNL     1      13.930  -3.230   2.720  1.00  0.00     0.293 HD
ENDBRANCH  64  68
BRANCH  65  70
ATOM     70  O   UNL     1      15.759  -1.743   1.884  1.00  0.00    -0.502 OA
ATOM     71  H   UNL     1      16.663  -1.415   1.788  1.00  0.00     0.293 HD
ENDBRANCH  65  70
ENDBRANCH  58  60
ENDBRANCH  57  58
ENDBRANCH  56  57
ENDBRANCH   3  56
BRANCH   5  72
ATOM     72  O   UNL     1       8.109  -1.517  -3.196  1.00  0.00    -0.387 OA
ATOM     73  H   UNL     1       7.858  -0.605  -3.485  1.00  0.00     0.211 HD
ENDBRANCH   5  72
BRANCH   4  74
ATOM     74  O   UNL     1       7.146  -2.627   0.125  1.00  0.00    -0.387 OA
ATOM     75  H   UNL     1       7.302  -3.574  -0.131  1.00  0.00     0.211 HD
ENDBRANCH   4  74
TORSDOF 19
