REMARK SMILES C[C@@H]1O[C@H](O[C@H]2CC[C@]3(C=O)[C@H]4CC[C@]5(C)[C@@H](c6ccc(=O)oc6)CC[C@]5(O)[C@H]4CC[C@]3(O)C2)[C@@H](O)[C@H](O)[C@H]1O[C@H]1O[C@@H](CO)[C@H](O)[C@@H](O)[C@@H]1O
REMARK SMILES IDX 1 1 2 2 3 3 4 4 35 5 37 6 39 7 40 8 41 9 42 10 50 11 43 12
REMARK SMILES IDX 48 13 46 14 51 15 44 17 45 18 49 20 47 22 5 24 6 25 7 26
REMARK SMILES IDX 34 27 8 28 32 29 9 30 31 31 12 32 30 33 13 34 29 35 14 36
REMARK SMILES IDX 27 37 15 38 26 39 17 40 25 41 16 42 33 43 10 45 11 46 28 47
REMARK SMILES IDX 18 49 24 50 19 51 23 52 20 53 21 54 22 55 38 56 36 58
REMARK H PARENT 51 16 45 19 49 21 47 23 33 44 28 48 38 57 36 59
ROOT
ATOM      1  C   UNL     1      -4.881  -2.809   0.835  1.00  0.00     0.041 C 
ATOM      2  C   UNL     1      -4.506  -1.479   0.178  1.00  0.00     0.150 C 
ATOM      3  O   UNL     1      -3.108  -1.301   0.286  1.00  0.00    -0.344 OA
ATOM      4  C   UNL     1      -2.643  -0.146  -0.419  1.00  0.00     0.282 C 
ATOM      5  C   UNL     1      -3.532   1.125  -0.202  1.00  0.00     0.202 C 
ATOM      6  C   UNL     1      -4.387   0.929   1.051  1.00  0.00     0.180 C 
ATOM      7  C   UNL     1      -5.304  -0.306   0.832  1.00  0.00     0.181 C 
ENDROOT
BRANCH   7   8
ATOM      8  O   UNL     1      -6.350   0.059  -0.063  1.00  0.00    -0.341 OA
BRANCH   8   9
ATOM      9  C   UNL     1      -7.646  -0.333   0.350  1.00  0.00     0.282 C 
ATOM     10  O   UNL     1      -8.403   0.877   0.460  1.00  0.00    -0.341 OA
ATOM     11  C   UNL     1      -8.205  -1.355  -0.719  1.00  0.00     0.202 C 
ATOM     12  C   UNL     1      -9.776   0.681   0.218  1.00  0.00     0.178 C 
ATOM     13  C   UNL     1      -8.854  -0.551  -1.855  1.00  0.00     0.179 C 
ATOM     14  C   UNL     1     -10.028   0.304  -1.279  1.00  0.00     0.177 C 
BRANCH  11  15
ATOM     15  O   UNL     1      -9.174  -2.243  -0.205  1.00  0.00    -0.385 OA
ATOM     16  H   UNL     1      -9.136  -2.260   0.784  1.00  0.00     0.211 HD
ENDBRANCH  11  15
BRANCH  12  17
ATOM     17  C   UNL     1     -10.537   1.951   0.616  1.00  0.00     0.191 C 
BRANCH  17  18
ATOM     18  O   UNL     1     -11.922   1.752   0.547  1.00  0.00    -0.394 OA
ATOM     19  H   UNL     1     -12.203   1.991  -0.374  1.00  0.00     0.210 HD
ENDBRANCH  17  18
ENDBRANCH  12  17
BRANCH  13  20
ATOM     20  O   UNL     1      -7.876   0.250  -2.487  1.00  0.00    -0.387 OA
ATOM     21  H   UNL     1      -7.801   1.119  -2.014  1.00  0.00     0.211 HD
ENDBRANCH  13  20
BRANCH  14  22
ATOM     22  O   UNL     1     -11.267  -0.351  -1.409  1.00  0.00    -0.387 OA
ATOM     23  H   UNL     1     -11.242  -1.182  -0.864  1.00  0.00     0.211 HD
ENDBRANCH  14  22
ENDBRANCH   8   9
ENDBRANCH   7   8
BRANCH   4  24
ATOM     24  O   UNL     1      -1.370   0.150   0.117  1.00  0.00    -0.346 OA
BRANCH  24  25
ATOM     25  C   UNL     1      -0.297  -0.096  -0.779  1.00  0.00     0.124 C 
ATOM     26  C   UNL     1       0.311   1.269  -1.183  1.00  0.00     0.033 C 
ATOM     27  C   UNL     1       0.724  -1.026  -0.089  1.00  0.00     0.068 C 
ATOM     28  C   UNL     1       1.838   1.201  -1.216  1.00  0.00     0.020 C 
ATOM     29  C   UNL     1       1.564  -0.250   0.960  1.00  0.00     0.080 C 
ATOM     30  C   UNL     1       2.407   0.942   0.236  1.00  0.00     0.058 C 
ATOM     31  C   UNL     1       2.507  -1.233   1.690  1.00  0.00     0.037 C 
ATOM     32  C   UNL     1       3.949   0.583   0.113  1.00  0.00     0.011 C 
ATOM     33  C   UNL     1       3.559  -1.883   0.767  1.00  0.00     0.010 C 
ATOM     34  C   UNL     1       4.831   0.996   1.343  1.00  0.00     0.006 C 
ATOM     35  C   UNL     1       4.157  -0.905  -0.286  1.00  0.00     0.026 C 
ATOM     36  C   UNL     1       5.982   0.028   1.661  1.00  0.00     0.011 C 
ATOM     37  C   UNL     1       5.663  -1.218  -0.628  1.00  0.00     0.074 C 
ATOM     38  C   UNL     1       6.683  -0.590   0.421  1.00  0.00     0.004 C 
ATOM     39  C   UNL     1       6.089  -0.593  -1.995  1.00  0.00     0.037 C 
ATOM     40  C   UNL     1       7.439   0.489  -0.417  1.00  0.00     0.031 C 
ATOM     41  C   UNL     1       7.528  -0.152  -1.799  1.00  0.00     0.012 C 
ATOM     42  C   UNL     1       7.650  -1.682   0.970  1.00  0.00     0.015 C 
BRANCH  29  43
ATOM     43  O   UNL     1       0.659   0.274   1.908  1.00  0.00    -0.389 OA
ATOM     44  H   UNL     1       0.156  -0.478   2.319  1.00  0.00     0.211 HD
ENDBRANCH  29  43
BRANCH  30  45
ATOM     45  C   UNL     1       2.325   2.305   0.945  1.00  0.00     0.234 C 
ATOM     46  O   UNL     1       1.739   2.485   2.000  1.00  0.00    -0.303 OA
ENDBRANCH  30  45
BRANCH  37  47
ATOM     47  O   UNL     1       5.846  -2.617  -0.725  1.00  0.00    -0.389 OA
ATOM     48  H   UNL     1       5.218  -2.963  -1.413  1.00  0.00     0.211 HD
ENDBRANCH  37  47
BRANCH  40  49
ATOM     49  C   UNL     1       8.751   1.028   0.127  1.00  0.00    -0.009 A 
ATOM     50  C   UNL     1       8.822   2.348   0.604  1.00  0.00     0.203 A 
ATOM     51  C   UNL     1       9.934   0.263   0.159  1.00  0.00     0.015 A 
ATOM     52  O   UNL     1       9.964   2.840   1.087  1.00  0.00    -0.431 OA
ATOM     53  C   UNL     1      11.104   0.812   0.665  1.00  0.00     0.094 A 
ATOM     54  C   UNL     1      11.085   2.129   1.130  1.00  0.00     0.335 A 
ATOM     55  O   UNL     1      12.098   2.630   1.582  1.00  0.00    -0.246 OA
ENDBRANCH  40  49
ENDBRANCH  24  25
ENDBRANCH   4  24
BRANCH   6  56
ATOM     56  O   UNL     1      -3.539   0.795   2.175  1.00  0.00    -0.387 OA
ATOM     57  H   UNL     1      -3.485  -0.154   2.462  1.00  0.00     0.211 HD
ENDBRANCH   6  56
BRANCH   5  58
ATOM     58  O   UNL     1      -4.345   1.429  -1.314  1.00  0.00    -0.385 OA
ATOM     59  H   UNL     1      -4.602   0.594  -1.782  1.00  0.00     0.211 HD
ENDBRANCH   5  58
TORSDOF 15
