REMARK SMILES CO[C@@H]1C[C@H](O[C@H]2CC[C@@]3(C)[C@H](CC[C@@]45O[C@@]46CC[C@H](C4=CC(=O)OC4)[C@@]6(C)CC[C@H]35)C2)O[C@H](C)[C@@H]1O[C@@H]1O[C@H](CO)[C@@H](O)[C@H](O)[C@H]1O
REMARK SMILES IDX 37 1 36 2 3 3 4 4 5 5 34 6 33 7 35 8 2 9 1 10 6 11 7 12 8 13
REMARK SMILES IDX 32 14 9 15 12 16 10 17 13 18 31 19 14 20 30 21 15 22 29 23
REMARK SMILES IDX 16 24 17 25 27 26 18 27 20 28 19 29 11 30 28 31 21 32 22 33
REMARK SMILES IDX 26 34 23 35 25 36 24 37 38 38 39 39 47 40 40 41 45 42 43 43
REMARK SMILES IDX 48 44 41 46 42 47 46 49 44 51
REMARK H PARENT 48 45 42 48 46 50 44 52
ROOT
ATOM      1  O   UNL     1      -6.049  -0.339  -0.192  1.00  0.00    -0.341 OA
ENDROOT
BRANCH   1   2
ATOM      2  C   UNL     1      -5.008   0.324  -0.902  1.00  0.00     0.179 C 
ATOM      3  C   UNL     1      -4.001  -0.694  -1.452  1.00  0.00     0.154 C 
ATOM      4  C   UNL     1      -2.943   0.106  -2.213  1.00  0.00     0.097 C 
ATOM      5  C   UNL     1      -2.309   1.197  -1.326  1.00  0.00     0.253 C 
ATOM      6  C   UNL     1      -4.316   1.389  -0.015  1.00  0.00     0.150 C 
ATOM      7  O   UNL     1      -3.262   2.058  -0.705  1.00  0.00    -0.347 OA
ATOM      8  C   UNL     1      -3.875   0.914   1.382  1.00  0.00     0.041 C 
BRANCH   3   9
ATOM      9  O   UNL     1      -3.393  -1.438  -0.408  1.00  0.00    -0.378 OA
ATOM     10  C   UNL     1      -3.753  -2.800  -0.479  1.00  0.00     0.195 C 
ENDBRANCH   3   9
BRANCH   5  11
ATOM     11  O   UNL     1      -1.438   0.619  -0.358  1.00  0.00    -0.349 OA
BRANCH  11  12
ATOM     12  C   UNL     1      -0.077   0.992  -0.545  1.00  0.00     0.121 C 
ATOM     13  C   UNL     1       0.291   2.077   0.501  1.00  0.00     0.033 C 
ATOM     14  C   UNL     1       0.845  -0.260  -0.490  1.00  0.00     0.036 C 
ATOM     15  C   UNL     1       1.804   2.264   0.508  1.00  0.00     0.010 C 
ATOM     16  C   UNL     1       1.634  -0.318   0.828  1.00  0.00    -0.002 C 
ATOM     17  C   UNL     1       2.564   0.967   0.984  1.00  0.00    -0.024 C 
ATOM     18  C   UNL     1       2.405  -1.648   1.007  1.00  0.00     0.007 C 
ATOM     19  C   UNL     1       3.872   0.826   0.111  1.00  0.00     0.030 C 
ATOM     20  C   UNL     1       3.604  -1.767   0.069  1.00  0.00     0.039 C 
ATOM     21  C   UNL     1       4.847   2.033   0.179  1.00  0.00     0.008 C 
ATOM     22  C   UNL     1       4.530  -0.564   0.291  1.00  0.00     0.102 C 
ATOM     23  C   UNL     1       6.112   1.758  -0.659  1.00  0.00     0.011 C 
ATOM     24  O   UNL     1       5.443  -0.826   1.316  1.00  0.00    -0.362 OA
ATOM     25  C   UNL     1       5.996  -0.639   0.009  1.00  0.00     0.104 C 
ATOM     26  C   UNL     1       6.934   0.583  -0.058  1.00  0.00     0.006 C 
ATOM     27  C   UNL     1       6.467  -1.787  -0.881  1.00  0.00     0.040 C 
ATOM     28  C   UNL     1       8.028   0.074  -1.065  1.00  0.00     0.028 C 
ATOM     29  C   UNL     1       7.286  -0.993  -1.898  1.00  0.00     0.012 C 
ATOM     30  C   UNL     1       2.910   1.105   2.492  1.00  0.00     0.012 C 
ATOM     31  C   UNL     1       7.548   1.029   1.304  1.00  0.00     0.015 C 
BRANCH  28  32
ATOM     32  C   UNL     1       9.302  -0.527  -0.452  1.00  0.00    -0.022 C 
ATOM     33  C   UNL     1       9.420  -1.479   0.475  1.00  0.00     0.096 C 
ATOM     34  C   UNL     1      10.686  -0.074  -0.861  1.00  0.00     0.265 C 
ATOM     35  C   UNL     1      10.833  -1.660   0.684  1.00  0.00     0.331 C 
ATOM     36  O   UNL     1      11.547  -0.840  -0.099  1.00  0.00    -0.458 OA
ATOM     37  O   UNL     1      11.331  -2.447   1.472  1.00  0.00    -0.247 OA
ENDBRANCH  28  32
ENDBRANCH  11  12
ENDBRANCH   5  11
ENDBRANCH   1   2
BRANCH   1  38
ATOM     38  C   UNL     1      -7.357   0.085  -0.572  1.00  0.00     0.282 C 
ATOM     39  O   UNL     1      -7.928   0.767   0.552  1.00  0.00    -0.341 OA
ATOM     40  C   UNL     1      -8.147  -1.188  -1.033  1.00  0.00     0.202 C 
ATOM     41  C   UNL     1      -9.335   0.640   0.589  1.00  0.00     0.178 C 
ATOM     42  C   UNL     1      -8.772  -1.847   0.208  1.00  0.00     0.179 C 
ATOM     43  C   UNL     1      -9.732  -0.833   0.916  1.00  0.00     0.177 C 
BRANCH  40  44
ATOM     44  O   UNL     1      -9.170  -0.846  -1.934  1.00  0.00    -0.385 OA
ATOM     45  H   UNL     1      -8.733  -0.647  -2.804  1.00  0.00     0.211 HD
ENDBRANCH  40  44
BRANCH  41  46
ATOM     46  C   UNL     1      -9.919   1.632   1.604  1.00  0.00     0.191 C 
BRANCH  46  47
ATOM     47  O   UNL     1     -11.321   1.576   1.617  1.00  0.00    -0.394 OA
ATOM     48  H   UNL     1     -11.632   2.067   0.812  1.00  0.00     0.210 HD
ENDBRANCH  46  47
ENDBRANCH  41  46
BRANCH  42  49
ATOM     49  O   UNL     1      -7.747  -2.287   1.073  1.00  0.00    -0.387 OA
ATOM     50  H   UNL     1      -7.444  -1.530   1.637  1.00  0.00     0.211 HD
ENDBRANCH  42  49
BRANCH  43  51
ATOM     51  O   UNL     1     -11.076  -1.059   0.565  1.00  0.00    -0.387 OA
ATOM     52  H   UNL     1     -11.157  -0.965  -0.419  1.00  0.00     0.211 HD
ENDBRANCH  43  51
ENDBRANCH   1  38
TORSDOF 11
