REMARK SMILES CO[C@@H]1C[C@H](O[C@H]2[C@@H](O)C[C@H](O[C@@H]3[C@@H](C)O[C@@H](O[C@H]4CC[C@@]5(C)C(=CC[C@H]6C(=O)O[C@@H]7CO[C@]8(C)OC=C(CC[C@@H]65)[C@H]78)C4)C[C@H]3OC)O[C@@H]2C)O[C@@H](C)[C@@H]1O
REMARK SMILES IDX 13 1 14 2 15 3 16 4 17 5 44 6 45 7 12 8 11 9 7 10 8 11 49 12
REMARK SMILES IDX 10 13 48 14 50 15 6 16 5 17 3 18 4 19 54 20 52 21 51 22
REMARK SMILES IDX 53 23 2 24 1 25 55 26 9 28 46 30 47 31 18 32 19 33 20 34
REMARK SMILES IDX 43 35 21 36 24 37 22 38 25 39 41 40 26 41 27 42 23 43 40 44
REMARK SMILES IDX 39 45 28 47 29 48 30 49 31 50 32 51 42 52 33 53 38 54 34 55
REMARK SMILES IDX 37 56 36 57 35 58
REMARK H PARENT 55 27 9 29
REMARK Flexibility Score:  244.900
ROOT
ATOM      1  C   UNL     1      -2.064  -0.352   0.257  1.00  0.00     0.179 C 
ATOM      2  C   UNL     1      -0.829   0.559   0.469  1.00  0.00     0.150 C 
ATOM      3  C   UNL     1      -1.221   1.849   1.189  1.00  0.00     0.041 C 
ATOM      4  O   UNL     1       0.154  -0.113   1.246  1.00  0.00    -0.347 OA
ATOM      5  C   UNL     1       0.641  -1.251   0.554  1.00  0.00     0.253 C 
ATOM      6  C   UNL     1      -0.481  -2.279   0.357  1.00  0.00     0.097 C 
ATOM      7  C   UNL     1      -1.608  -1.633  -0.462  1.00  0.00     0.154 C 
ENDROOT
BRANCH   1   8
ATOM      8  O   UNL     1      -3.018   0.342  -0.538  1.00  0.00    -0.344 OA
BRANCH   8   9
ATOM      9  C   UNL     1      -4.342   0.229  -0.037  1.00  0.00     0.253 C 
ATOM     10  C   UNL     1      -7.176   0.193  -0.517  1.00  0.00     0.179 C 
ATOM     11  C   UNL     1      -6.541   1.465   0.086  1.00  0.00     0.151 C 
ATOM     12  C   UNL     1      -6.302  -1.048  -0.202  1.00  0.00     0.150 C 
ATOM     13  C   UNL     1      -5.073   1.544  -0.364  1.00  0.00     0.096 C 
ATOM     14  O   UNL     1      -4.979  -0.858  -0.691  1.00  0.00    -0.347 OA
ATOM     15  C   UNL     1      -6.885  -2.289  -0.883  1.00  0.00     0.041 C 
BRANCH  10  16
ATOM     16  O   UNL     1      -8.489  -0.004  -0.007  1.00  0.00    -0.344 OA
BRANCH  16  17
ATOM     17  C   UNL     1      -9.492   0.599  -0.815  1.00  0.00     0.253 C 
ATOM     18  C   UNL     1     -11.941   0.205  -0.155  1.00  0.00     0.154 C 
ATOM     19  C   UNL     1     -10.729  -0.329  -0.940  1.00  0.00     0.097 C 
ATOM     20  C   UNL     1     -11.451   0.686   1.208  1.00  0.00     0.172 C 
ATOM     21  C   UNL     1     -10.430   1.865   0.984  1.00  0.00     0.149 C 
ATOM     22  O   UNL     1      -9.820   1.880  -0.312  1.00  0.00    -0.347 OA
ATOM     23  C   UNL     1     -11.158   3.208   1.121  1.00  0.00     0.041 C 
BRANCH  18  24
ATOM     24  O   UNL     1     -12.916  -0.810   0.012  1.00  0.00    -0.378 OA
ATOM     25  C   UNL     1     -13.818  -0.816  -1.074  1.00  0.00     0.195 C 
ENDBRANCH  18  24
BRANCH  20  26
ATOM     26  O   UNL     1     -10.913  -0.398   1.935  1.00  0.00    -0.388 OA
ATOM     27  H   UNL     1      -9.929  -0.408   1.852  1.00  0.00     0.211 HD
ENDBRANCH  20  26
ENDBRANCH  16  17
ENDBRANCH  10  16
BRANCH  11  28
ATOM     28  O   UNL     1      -6.656   1.523   1.491  1.00  0.00    -0.390 OA
ATOM     29  H   UNL     1      -6.349   0.672   1.889  1.00  0.00     0.211 HD
ENDBRANCH  11  28
ENDBRANCH   8   9
ENDBRANCH   1   8
BRANCH   7  30
ATOM     30  O   UNL     1      -2.697  -2.534  -0.578  1.00  0.00    -0.378 OA
ATOM     31  C   UNL     1      -2.673  -3.177  -1.835  1.00  0.00     0.195 C 
ENDBRANCH   7  30
BRANCH   5  32
ATOM     32  O   UNL     1       1.673  -1.856   1.327  1.00  0.00    -0.349 OA
BRANCH  32  33
ATOM     33  C   UNL     1       2.967  -1.496   0.868  1.00  0.00     0.125 C 
ATOM     34  C   UNL     1       3.557  -0.362   1.728  1.00  0.00     0.033 C 
ATOM     35  C   UNL     1       3.888  -2.717   0.940  1.00  0.00     0.063 C 
ATOM     36  C   UNL     1       4.908   0.069   1.131  1.00  0.00     0.014 C 
ATOM     37  C   UNL     1       5.241  -2.326   0.379  1.00  0.00    -0.065 C 
ATOM     38  C   UNL     1       5.940  -1.099   0.995  1.00  0.00    -0.008 C 
ATOM     39  C   UNL     1       5.752  -3.027  -0.668  1.00  0.00    -0.026 C 
ATOM     40  C   UNL     1       7.048  -0.611   0.011  1.00  0.00     0.014 C 
ATOM     41  C   UNL     1       7.093  -2.744  -1.313  1.00  0.00     0.043 C 
ATOM     42  C   UNL     1       7.967  -1.803  -0.469  1.00  0.00     0.107 C 
ATOM     43  C   UNL     1       6.492  -1.485   2.389  1.00  0.00     0.016 C 
BRANCH  40  44
ATOM     44  C   UNL     1       7.976   0.507   0.481  1.00  0.00     0.010 C 
BRANCH  44  45
ATOM     45  C   UNL     1       7.934   1.994   0.698  1.00  0.00     0.035 CG0
ATOM     46  G   UNL     1       9.388   2.449   0.411  1.00  0.00     0.000 G0
ENDBRANCH  44  45
ENDBRANCH  40  44
BRANCH  42  47
ATOM     47  C   UNL     1       9.261  -1.331  -1.200  1.00  0.00     0.309 C 
ATOM     48  O   UNL     1       9.435  -1.538  -2.393  1.00  0.00    -0.252 OA
BRANCH  47  49
ATOM     49  O   UNL     1      10.169  -0.586  -0.478  1.00  0.00    -0.459 OA
BRANCH  49  50
ATOM     50  C   UNL     1      10.921   0.540  -0.846  1.00  0.00     0.216 C 
ATOM     51  C   UNL     1      12.058   0.730   0.122  1.00  0.00     0.211 C 
ATOM     52  C   UNL     1      10.276   1.973  -0.765  1.00  0.00     0.134 C 
ATOM     53  O   UNL     1      12.619   1.987  -0.172  1.00  0.00    -0.336 OA
ATOM     54  C   UNL     1       9.388   2.449   0.411  1.00  0.00    -0.022 CG0
ATOM     55  C   UNL     1      11.535   2.835  -0.519  1.00  0.00     0.217 C 
ATOM     56  C   UNL     1      10.024   3.384   1.084  1.00  0.00     0.190 C 
ATOM     57  O   UNL     1      11.235   3.639   0.568  1.00  0.00    -0.469 OA
ATOM     58  C   UNL     1      11.897   3.674  -1.745  1.00  0.00     0.091 C 
ATOM     59  G   UNL     1       7.934   1.994   0.698  1.00  0.00     0.000 G0
ENDBRANCH  49  50
ENDBRANCH  47  49
ENDBRANCH  42  47
ENDBRANCH  32  33
ENDBRANCH   5  32
TORSDOF 10
