REMARK SMILES C[C@]12CC[C@H]3[C@@H](CCC4=C[C@@H](O[C@@H]5OC[C@@H](O[C@@H]6O[C@H](CO)[C@@H](O)[C@H](O)[C@H]6O)[C@H](O)[C@H]5O)CC[C@@]43C=O)[C@@]1(O)CC[C@@H]2C1=CC(=O)OC1
REMARK SMILES IDX 13 1 14 2 15 3 16 4 29 5 31 6 12 7 11 8 2 9 3 10 38 11 42 12
REMARK SMILES IDX 4 13 6 14 40 15 41 16 5 17 7 18 35 19 8 20 34 21 9 22 33 23
REMARK SMILES IDX 10 24 1 25 39 26 43 28 44 29 48 30 45 31 47 32 46 33 36 34
REMARK SMILES IDX 37 35 32 36 30 38 17 40 18 41 19 42 27 43 20 44 25 45 23 46
REMARK SMILES IDX 28 47 21 49 22 50 26 52 24 54
REMARK H PARENT 39 27 32 37 30 39 28 48 22 51 26 53 24 55
ROOT
ATOM      1  C   UNL     1       2.597  -0.862   1.762  1.00  0.00     0.282 C 
ATOM      2  O   UNL     1       3.620  -0.083   2.397  1.00  0.00    -0.347 OA
ATOM      3  C   UNL     1       4.907  -0.329   1.875  1.00  0.00     0.198 C 
ATOM      4  C   UNL     1       5.037   0.092   0.386  1.00  0.00     0.179 C 
ATOM      5  C   UNL     1       3.718  -0.211  -0.392  1.00  0.00     0.179 C 
ATOM      6  C   UNL     1       2.950  -1.341   0.308  1.00  0.00     0.202 C 
ENDROOT
BRANCH   1   7
ATOM      7  O   UNL     1       1.464  -0.016   1.681  1.00  0.00    -0.342 OA
BRANCH   7   8
ATOM      8  C   UNL     1       0.271  -0.592   2.189  1.00  0.00     0.144 C 
ATOM      9  C   UNL     1      -6.350   0.819  -0.042  1.00  0.00     0.003 C 
ATOM     10  C   UNL     1      -5.572   1.687   1.011  1.00  0.00     0.011 C 
ATOM     11  C   UNL     1      -5.680  -0.581  -0.170  1.00  0.00     0.074 C 
ATOM     12  C   UNL     1      -7.771   0.497   0.564  1.00  0.00     0.028 C 
ATOM     13  C   UNL     1      -4.081   1.812   0.705  1.00  0.00     0.006 C 
ATOM     14  C   UNL     1      -4.125  -0.503  -0.382  1.00  0.00     0.026 C 
ATOM     15  C   UNL     1      -6.165  -1.262   1.140  1.00  0.00     0.037 C 
ATOM     16  C   UNL     1      -7.658  -0.944   1.122  1.00  0.00     0.012 C 
ATOM     17  C   UNL     1      -3.391   0.419   0.659  1.00  0.00     0.012 C 
ATOM     18  C   UNL     1      -3.495  -1.923  -0.378  1.00  0.00     0.011 C 
ATOM     19  C   UNL     1      -1.842   0.511   0.328  1.00  0.00     0.050 C 
ATOM     20  C   UNL     1      -2.001  -1.884  -0.694  1.00  0.00     0.032 C 
ATOM     21  C   UNL     1      -1.038   1.354   1.373  1.00  0.00     0.022 C 
ATOM     22  C   UNL     1      -1.331  -0.946   0.282  1.00  0.00    -0.058 C 
ATOM     23  C   UNL     1      -0.676   0.543   2.613  1.00  0.00     0.038 C 
ATOM     24  C   UNL     1      -0.383  -1.430   1.119  1.00  0.00     0.005 C 
ATOM     25  C   UNL     1      -6.388   1.617  -1.376  1.00  0.00     0.015 C 
BRANCH  11  26
ATOM     26  O   UNL     1      -6.250  -1.240  -1.287  1.00  0.00    -0.389 OA
ATOM     27  H   UNL     1      -6.187  -2.220  -1.153  1.00  0.00     0.211 HD
ENDBRANCH  11  26
BRANCH  12  28
ATOM     28  C   UNL     1      -8.987   0.638  -0.352  1.00  0.00    -0.022 C 
ATOM     29  C   UNL     1      -9.920   1.567  -0.181  1.00  0.00     0.096 C 
ATOM     30  C   UNL     1      -9.361  -0.218  -1.554  1.00  0.00     0.265 C 
ATOM     31  C   UNL     1     -10.882   1.370  -1.234  1.00  0.00     0.331 C 
ATOM     32  O   UNL     1     -10.541   0.334  -2.014  1.00  0.00    -0.458 OA
ATOM     33  O   UNL     1     -11.880   2.049  -1.410  1.00  0.00    -0.247 OA
ENDBRANCH  12  28
BRANCH  19  34
ATOM     34  C   UNL     1      -1.623   1.224  -1.008  1.00  0.00     0.235 C 
ATOM     35  O   UNL     1      -1.037   0.694  -1.939  1.00  0.00    -0.302 OA
ENDBRANCH  19  34
ENDBRANCH   7   8
ENDBRANCH   1   7
BRANCH   6  36
ATOM     36  O   UNL     1       3.756  -2.492   0.334  1.00  0.00    -0.385 OA
ATOM     37  H   UNL     1       3.165  -3.250   0.584  1.00  0.00     0.211 HD
ENDBRANCH   6  36
BRANCH   5  38
ATOM     38  O   UNL     1       2.889   0.928  -0.504  1.00  0.00    -0.387 OA
ATOM     39  H   UNL     1       2.954   1.468   0.326  1.00  0.00     0.211 HD
ENDBRANCH   5  38
BRANCH   4  40
ATOM     40  O   UNL     1       6.099  -0.664  -0.184  1.00  0.00    -0.341 OA
BRANCH  40  41
ATOM     41  C   UNL     1       7.315   0.057  -0.332  1.00  0.00     0.282 C 
ATOM     42  O   UNL     1       7.663   0.030  -1.710  1.00  0.00    -0.341 OA
ATOM     43  C   UNL     1       8.407  -0.650   0.505  1.00  0.00     0.202 C 
ATOM     44  C   UNL     1       8.861   0.753  -1.964  1.00  0.00     0.178 C 
ATOM     45  C   UNL     1       9.766   0.038   0.275  1.00  0.00     0.179 C 
ATOM     46  C   UNL     1      10.058   0.088  -1.234  1.00  0.00     0.177 C 
BRANCH  43  47
ATOM     47  O   UNL     1       8.080  -0.660   1.871  1.00  0.00    -0.385 OA
ATOM     48  H   UNL     1       8.054   0.283   2.180  1.00  0.00     0.211 HD
ENDBRANCH  43  47
BRANCH  44  49
ATOM     49  C   UNL     1       9.090   0.801  -3.481  1.00  0.00     0.191 C 
BRANCH  49  50
ATOM     50  O   UNL     1       9.190  -0.492  -4.021  1.00  0.00    -0.394 OA
ATOM     51  H   UNL     1      10.155  -0.723  -4.045  1.00  0.00     0.210 HD
ENDBRANCH  49  50
ENDBRANCH  44  49
BRANCH  45  52
ATOM     52  O   UNL     1      10.796  -0.614   0.975  1.00  0.00    -0.387 OA
ATOM     53  H   UNL     1      10.838  -1.549   0.646  1.00  0.00     0.211 HD
ENDBRANCH  45  52
BRANCH  46  54
ATOM     54  O   UNL     1      11.262   0.769  -1.486  1.00  0.00    -0.387 OA
ATOM     55  H   UNL     1      11.148   1.706  -1.180  1.00  0.00     0.211 HD
ENDBRANCH  46  54
ENDBRANCH  40  41
ENDBRANCH   4  40
TORSDOF 14
