REMARK SMILES C[C@@H]1CC[C@@]2(OC1)O[C@H]1C[C@H]3[C@@H]4CC=C5C[C@@H](O[C@@H]6O[C@H](CO)[C@@H](O[C@@H]7O[C@@H](C)[C@H](O[C@@H]8O[C@@H](C)[C@H](O)[C@@H](O[C@@H]9O[C@@H](C)[C@H](O)[C@@H](O)[C@H]9O)[C@H]8O)[C@@H](O)[C@H]7O)[C@H](O)[C@H]6O)CC[C@]5(C)[C@H]4CC[C@]3(C)[C@H]1[C@@H]2C
REMARK SMILES IDX 26 1 27 2 28 3 29 4 30 5 52 6 54 7 25 8 24 9 19 10 20 11
REMARK SMILES IDX 58 12 21 13 56 14 18 15 17 16 2 17 3 18 7 19 4 20 6 21 5 22
REMARK SMILES IDX 8 23 70 24 9 25 69 26 10 27 67 28 11 29 66 30 12 31 65 32
REMARK SMILES IDX 13 33 64 34 14 35 62 36 15 37 61 38 16 39 60 40 1 41 71 42
REMARK SMILES IDX 68 43 63 44 59 45 22 47 23 48 57 50 55 52 53 54 31 56 32 57
REMARK SMILES IDX 33 58 50 59 34 60 38 61 36 62 35 63 51 64 39 66 40 67 41 68
REMARK SMILES IDX 48 69 42 70 46 71 44 72 43 73 49 74 47 76 45 78 37 80
REMARK H PARENT 59 46 23 49 57 51 55 53 53 55 51 65 49 75 47 77 45 79 37 81
ROOT
ATOM      1  C   UNL     1       4.324  -0.425   0.395  1.00  0.00     0.282 C 
ATOM      2  O   UNL     1       4.837   0.699   1.090  1.00  0.00    -0.344 OA
ATOM      3  C   UNL     1       6.173   0.548   1.562  1.00  0.00     0.150 C 
ATOM      4  C   UNL     1       6.209  -0.099   2.950  1.00  0.00     0.041 C 
ATOM      5  C   UNL     1       7.144  -0.147   0.563  1.00  0.00     0.181 C 
ATOM      6  C   UNL     1       6.540  -0.085  -0.834  1.00  0.00     0.180 C 
ATOM      7  C   UNL     1       5.183  -0.799  -0.849  1.00  0.00     0.202 C 
ENDROOT
BRANCH   1   8
ATOM      8  O   UNL     1       3.062  -0.033  -0.098  1.00  0.00    -0.341 OA
BRANCH   8   9
ATOM      9  C   UNL     1       1.954  -0.737   0.429  1.00  0.00     0.184 C 
ATOM     10  C   UNL     1      -0.526  -0.496  -1.142  1.00  0.00     0.282 C 
ATOM     11  O   UNL     1       0.062  -1.751  -0.794  1.00  0.00    -0.341 OA
ATOM     12  C   UNL     1       0.189   0.758  -0.525  1.00  0.00     0.202 C 
ATOM     13  C   UNL     1       1.468  -1.700  -0.701  1.00  0.00     0.178 C 
ATOM     14  C   UNL     1       0.868   0.323   0.774  1.00  0.00     0.180 C 
BRANCH  10  15
ATOM     15  O   UNL     1      -1.826  -0.536  -0.595  1.00  0.00    -0.346 OA
BRANCH  15  16
ATOM     16  C   UNL     1      -2.847  -0.687  -1.567  1.00  0.00     0.125 C 
ATOM     17  C   UNL     1     -15.866   1.772   0.523  1.00  0.00     0.012 C 
ATOM     18  C   UNL     1     -14.692   2.306   1.347  1.00  0.00     0.011 C 
ATOM     19  C   UNL     1     -15.296   1.060  -0.718  1.00  0.00     0.167 C 
ATOM     20  C   UNL     1     -13.782   1.135   1.698  1.00  0.00     0.066 C 
ATOM     21  O   UNL     1     -14.474  -0.036  -0.345  1.00  0.00    -0.349 OA
ATOM     22  C   UNL     1     -13.340   0.384   0.416  1.00  0.00     0.171 C 
ATOM     23  O   UNL     1     -12.499   1.192  -0.395  1.00  0.00    -0.346 OA
ATOM     24  C   UNL     1     -12.495  -0.850   0.829  1.00  0.00     0.052 C 
ATOM     25  C   UNL     1     -11.763   0.267  -1.168  1.00  0.00     0.126 C 
ATOM     26  C   UNL     1     -11.414  -0.899  -0.240  1.00  0.00     0.033 C 
ATOM     27  C   UNL     1     -10.414   0.853  -1.655  1.00  0.00     0.037 C 
ATOM     28  C   UNL     1      -9.947  -0.600   0.184  1.00  0.00    -0.024 C 
ATOM     29  C   UNL     1      -9.391  -0.182  -1.182  1.00  0.00     0.002 C 
ATOM     30  C   UNL     1      -9.166  -1.851   0.644  1.00  0.00     0.008 C 
ATOM     31  C   UNL     1      -7.912   0.243  -1.106  1.00  0.00     0.000 C 
ATOM     32  C   UNL     1      -7.674  -1.510   0.815  1.00  0.00     0.005 C 
ATOM     33  C   UNL     1      -7.382   0.596  -2.504  1.00  0.00     0.031 C 
ATOM     34  C   UNL     1      -7.035  -0.888  -0.482  1.00  0.00     0.003 C 
ATOM     35  C   UNL     1      -5.897   0.806  -2.514  1.00  0.00    -0.027 C 
ATOM     36  C   UNL     1      -5.569  -0.330  -0.242  1.00  0.00    -0.008 C 
ATOM     37  C   UNL     1      -5.085   0.429  -1.504  1.00  0.00    -0.065 C 
ATOM     38  C   UNL     1      -4.567  -1.507   0.072  1.00  0.00     0.014 C 
ATOM     39  C   UNL     1      -3.607   0.659  -1.636  1.00  0.00     0.063 C 
ATOM     40  C   UNL     1      -3.740  -1.886  -1.155  1.00  0.00     0.033 C 
ATOM     41  C   UNL     1     -16.823   2.900   0.136  1.00  0.00     0.010 C 
ATOM     42  C   UNL     1     -13.284  -2.154   0.983  1.00  0.00     0.014 C 
ATOM     43  C   UNL     1      -9.844   0.546   1.269  1.00  0.00     0.012 C 
ATOM     44  C   UNL     1      -5.505   0.655   0.963  1.00  0.00     0.016 C 
ENDBRANCH  15  16
ENDBRANCH  10  15
BRANCH  12  45
ATOM     45  O   UNL     1       1.145   1.356  -1.376  1.00  0.00    -0.385 OA
ATOM     46  H   UNL     1       1.347   0.766  -2.145  1.00  0.00     0.211 HD
ENDBRANCH  12  45
BRANCH  13  47
ATOM     47  C   UNL     1       1.996  -3.119  -0.473  1.00  0.00     0.191 C 
BRANCH  47  48
ATOM     48  O   UNL     1       1.591  -3.967  -1.514  1.00  0.00    -0.394 OA
ATOM     49  H   UNL     1       0.666  -4.260  -1.300  1.00  0.00     0.210 HD
ENDBRANCH  47  48
ENDBRANCH  13  47
BRANCH  14  50
ATOM     50  O   UNL     1      -0.099  -0.153   1.686  1.00  0.00    -0.387 OA
ATOM     51  H   UNL     1      -0.176  -1.139   1.613  1.00  0.00     0.211 HD
ENDBRANCH  14  50
ENDBRANCH   8   9
ENDBRANCH   1   8
BRANCH   7  52
ATOM     52  O   UNL     1       5.315  -2.198  -0.963  1.00  0.00    -0.385 OA
ATOM     53  H   UNL     1       5.724  -2.545  -0.128  1.00  0.00     0.211 HD
ENDBRANCH   7  52
BRANCH   6  54
ATOM     54  O   UNL     1       7.401  -0.596  -1.823  1.00  0.00    -0.387 OA
ATOM     55  H   UNL     1       7.700  -1.496  -1.531  1.00  0.00     0.211 HD
ENDBRANCH   6  54
BRANCH   5  56
ATOM     56  O   UNL     1       8.365   0.569   0.527  1.00  0.00    -0.341 OA
BRANCH  56  57
ATOM     57  C   UNL     1       9.481  -0.164   0.974  1.00  0.00     0.282 C 
ATOM     58  O   UNL     1       9.779   0.222   2.299  1.00  0.00    -0.344 OA
ATOM     59  C   UNL     1      10.665   0.151   0.018  1.00  0.00     0.202 C 
ATOM     60  C   UNL     1      10.850  -0.543   2.863  1.00  0.00     0.150 C 
ATOM     61  C   UNL     1      12.028  -0.063   0.722  1.00  0.00     0.186 C 
ATOM     62  C   UNL     1      11.860  -1.127   1.812  1.00  0.00     0.175 C 
ATOM     63  C   UNL     1      10.295  -1.623   3.787  1.00  0.00     0.041 C 
BRANCH  59  64
ATOM     64  O   UNL     1      10.538  -0.619  -1.153  1.00  0.00    -0.385 OA
ATOM     65  H   UNL     1      10.655  -1.573  -0.905  1.00  0.00     0.211 HD
ENDBRANCH  59  64
BRANCH  61  66
ATOM     66  O   UNL     1      13.044  -0.418  -0.210  1.00  0.00    -0.341 OA
BRANCH  66  67
ATOM     67  C   UNL     1      13.862   0.687  -0.580  1.00  0.00     0.282 C 
ATOM     68  O   UNL     1      13.466   1.147  -1.868  1.00  0.00    -0.344 OA
ATOM     69  C   UNL     1      15.335   0.214  -0.592  1.00  0.00     0.202 C 
ATOM     70  C   UNL     1      14.225   2.276  -2.304  1.00  0.00     0.150 C 
ATOM     71  C   UNL     1      16.276   1.371  -1.020  1.00  0.00     0.179 C 
ATOM     72  C   UNL     1      15.759   1.974  -2.339  1.00  0.00     0.174 C 
ATOM     73  C   UNL     1      13.807   3.571  -1.581  1.00  0.00     0.041 C 
BRANCH  69  74
ATOM     74  O   UNL     1      15.731  -0.336   0.639  1.00  0.00    -0.385 OA
ATOM     75  H   UNL     1      15.480   0.301   1.356  1.00  0.00     0.211 HD
ENDBRANCH  69  74
BRANCH  71  76
ATOM     76  O   UNL     1      16.444   2.370  -0.038  1.00  0.00    -0.387 OA
ATOM     77  H   UNL     1      15.616   2.499   0.479  1.00  0.00     0.211 HD
ENDBRANCH  71  76
BRANCH  72  78
ATOM     78  O   UNL     1      16.056   1.092  -3.400  1.00  0.00    -0.388 OA
ATOM     79  H   UNL     1      15.391   0.358  -3.408  1.00  0.00     0.211 HD
ENDBRANCH  72  78
ENDBRANCH  66  67
ENDBRANCH  61  66
BRANCH  62  80
ATOM     80  O   UNL     1      13.082  -1.461   2.424  1.00  0.00    -0.388 OA
ATOM     81  H   UNL     1      13.502  -0.619   2.741  1.00  0.00     0.211 HD
ENDBRANCH  62  80
ENDBRANCH  56  57
ENDBRANCH   5  56
TORSDOF 19
