REMARK SMILES C[C@@H]1O[C@@H](O[C@H]2[C@H](O)[C@@H](O)[C@H](O[C@H]3CC[C@@]4(C)C(=CC[C@H]5[C@@H]6C[C@@H]7O[C@]8(CC[C@](C)(O)CO8)[C@@H](C)[C@@H]7[C@@]6(C)CC[C@@H]54)C3)O[C@@H]2CO)[C@H](O)[C@H](O)[C@H]1O
REMARK SMILES IDX 6 1 7 2 9 3 11 4 43 5 44 6 5 7 4 8 2 9 3 10 51 11 49 12
REMARK SMILES IDX 47 13 1 14 52 15 50 17 48 19 8 21 45 23 46 24 10 26 12 28
REMARK SMILES IDX 13 29 14 30 42 31 15 32 18 33 16 34 19 35 41 36 20 37 40 38
REMARK SMILES IDX 21 39 39 40 22 41 37 42 23 43 36 44 24 45 34 46 25 47 26 48
REMARK SMILES IDX 27 49 33 50 28 51 32 52 29 53 17 54 38 55 35 56 30 57 31 58
REMARK H PARENT 52 16 50 18 48 20 8 22 46 25 10 27 31 59
ROOT
ATOM      1  C   UNL     1       7.157  -1.445  -0.048  1.00  0.00     0.184 C 
ATOM      2  C   UNL     1       6.522  -1.922   1.281  1.00  0.00     0.180 C 
ATOM      3  C   UNL     1       4.981  -1.894   1.232  1.00  0.00     0.202 C 
ATOM      4  C   UNL     1       4.449  -0.783   0.294  1.00  0.00     0.282 C 
ATOM      5  O   UNL     1       4.940  -0.881  -1.046  1.00  0.00    -0.341 OA
ATOM      6  C   UNL     1       6.178  -1.567  -1.243  1.00  0.00     0.178 C 
ENDROOT
BRANCH   1   7
ATOM      7  O   UNL     1       7.502  -0.066   0.077  1.00  0.00    -0.341 OA
BRANCH   7   8
ATOM      8  C   UNL     1       8.878   0.132   0.394  1.00  0.00     0.282 C 
ATOM      9  C   UNL     1       9.366   2.161   1.536  1.00  0.00     0.150 C 
ATOM     10  O   UNL     1       8.997   0.799   1.656  1.00  0.00    -0.344 OA
ATOM     11  C   UNL     1      10.771   2.322   0.871  1.00  0.00     0.174 C 
ATOM     12  C   UNL     1      10.961   1.351  -0.337  1.00  0.00     0.179 C 
ATOM     13  C   UNL     1       9.582   0.850  -0.801  1.00  0.00     0.202 C 
ATOM     14  C   UNL     1       9.348   2.815   2.917  1.00  0.00     0.041 C 
BRANCH  11  15
ATOM     15  O   UNL     1      10.954   3.660   0.479  1.00  0.00    -0.388 OA
ATOM     16  H   UNL     1      10.300   3.854  -0.242  1.00  0.00     0.211 HD
ENDBRANCH  11  15
BRANCH  12  17
ATOM     17  O   UNL     1      11.794   0.261  -0.003  1.00  0.00    -0.387 OA
ATOM     18  H   UNL     1      11.557  -0.066   0.903  1.00  0.00     0.211 HD
ENDBRANCH  12  17
BRANCH  13  19
ATOM     19  O   UNL     1       9.670   0.018  -1.931  1.00  0.00    -0.385 OA
ATOM     20  H   UNL     1      10.183  -0.792  -1.674  1.00  0.00     0.211 HD
ENDBRANCH  13  19
ENDBRANCH   7   8
ENDBRANCH   1   7
BRANCH   2  21
ATOM     21  O   UNL     1       6.975  -3.196   1.667  1.00  0.00    -0.387 OA
ATOM     22  H   UNL     1       6.791  -3.822   0.921  1.00  0.00     0.211 HD
ENDBRANCH   2  21
BRANCH   6  23
ATOM     23  C   UNL     1       5.928  -3.009  -1.737  1.00  0.00     0.191 C 
BRANCH  23  24
ATOM     24  O   UNL     1       7.136  -3.641  -2.069  1.00  0.00    -0.394 OA
ATOM     25  H   UNL     1       7.410  -3.286  -2.955  1.00  0.00     0.210 HD
ENDBRANCH  23  24
ENDBRANCH   6  23
BRANCH   3  26
ATOM     26  O   UNL     1       4.444  -1.814   2.528  1.00  0.00    -0.385 OA
ATOM     27  H   UNL     1       4.700  -0.930   2.899  1.00  0.00     0.211 HD
ENDBRANCH   3  26
BRANCH   4  28
ATOM     28  O   UNL     1       3.035  -0.915   0.217  1.00  0.00    -0.346 OA
BRANCH  28  29
ATOM     29  C   UNL     1       2.323  -0.031   1.075  1.00  0.00     0.125 C 
ATOM     30  C   UNL     1       1.617   1.063   0.253  1.00  0.00     0.033 C 
ATOM     31  C   UNL     1       1.284  -0.829   1.863  1.00  0.00     0.063 C 
ATOM     32  C   UNL     1       0.764   0.384  -0.824  1.00  0.00     0.014 C 
ATOM     33  C   UNL     1      -0.037  -1.083   1.146  1.00  0.00    -0.065 C 
ATOM     34  C   UNL     1      -0.363  -0.572  -0.274  1.00  0.00    -0.008 C 
ATOM     35  C   UNL     1      -1.006  -1.608   1.933  1.00  0.00    -0.027 C 
ATOM     36  C   UNL     1      -1.797   0.113  -0.195  1.00  0.00     0.003 C 
ATOM     37  C   UNL     1      -2.477  -1.605   1.602  1.00  0.00     0.031 C 
ATOM     38  C   UNL     1      -2.264   0.828  -1.510  1.00  0.00     0.005 C 
ATOM     39  C   UNL     1      -2.851  -0.975   0.242  1.00  0.00     0.000 C 
ATOM     40  C   UNL     1      -3.705   1.393  -1.395  1.00  0.00     0.008 C 
ATOM     41  C   UNL     1      -4.254  -0.336   0.313  1.00  0.00     0.002 C 
ATOM     42  C   UNL     1      -4.710   0.279  -1.026  1.00  0.00    -0.024 C 
ATOM     43  C   UNL     1      -5.465  -1.184   0.715  1.00  0.00     0.037 C 
ATOM     44  C   UNL     1      -6.133   0.785  -0.610  1.00  0.00     0.033 C 
ATOM     45  C   UNL     1      -6.581  -0.148   0.528  1.00  0.00     0.126 C 
ATOM     46  C   UNL     1      -7.314   0.709  -1.572  1.00  0.00     0.052 C 
ATOM     47  O   UNL     1      -7.859  -0.668   0.230  1.00  0.00    -0.346 OA
ATOM     48  C   UNL     1      -8.456   0.313  -0.607  1.00  0.00     0.171 C 
ATOM     49  C   UNL     1      -9.676  -0.328  -1.368  1.00  0.00     0.069 C 
ATOM     50  O   UNL     1      -8.837   1.454   0.185  1.00  0.00    -0.347 OA
ATOM     51  C   UNL     1     -10.727   0.752  -1.631  1.00  0.00     0.043 C 
ATOM     52  C   UNL     1     -10.100   1.245   0.782  1.00  0.00     0.198 C 
ATOM     53  C   UNL     1     -11.227   1.350  -0.281  1.00  0.00     0.086 C 
ATOM     54  C   UNL     1      -0.371  -1.809  -1.225  1.00  0.00     0.016 C 
ATOM     55  C   UNL     1      -4.782  -0.761  -2.201  1.00  0.00     0.012 C 
ATOM     56  C   UNL     1      -7.473   1.971  -2.425  1.00  0.00     0.014 C 
ATOM     57  C   UNL     1     -12.463   0.598   0.254  1.00  0.00     0.044 C 
BRANCH  53  58
ATOM     58  O   UNL     1     -11.552   2.707  -0.475  1.00  0.00    -0.388 OA
ATOM     59  H   UNL     1     -12.282   2.750  -1.148  1.00  0.00     0.211 HD
ENDBRANCH  53  58
ENDBRANCH  28  29
ENDBRANCH   4  28
TORSDOF 12
