REMARK SMILES Cc1cc(=O)c2c(O)c3c(cc2o1)OC(C)(C)[C@@H]1OC(=O)[C@@]2(CC[C@@H](O)[C@H]31)O[C@@H]2CCc1cc(N)nc(-c2cc(N)nc(C[N+]3=CC4=CC=NC4=C3)c2)c1
REMARK SMILES IDX 22 1 28 2 29 3 20 4 21 5 19 6 18 7 2 8 3 9 13 10 4 11 12 12
REMARK SMILES IDX 5 13 6 14 11 15 7 16 10 17 9 18 14 19 27 20 15 21 1 22 16 23
REMARK SMILES IDX 17 24 8 26 23 28 24 29 25 30 26 32 30 34 31 35 32 36 33 37
REMARK SMILES IDX 54 38 34 39 37 40 36 41 35 42 38 45 39 46 53 47 40 48 43 49
REMARK SMILES IDX 42 50 41 51 44 54 45 55 46 56 52 57 47 58 51 59 48 60 50 61
REMARK SMILES IDX 49 62
REMARK H PARENT 8 27 26 33 35 43 35 44 41 52 41 53
REMARK Flexibility Score:  376.900
ROOT
ATOM      1  C   UNL     1      -1.032   1.196   1.936  1.00  0.00     0.191 C 
ATOM      2  O   UNL     1      -0.089   1.264   0.868  1.00  0.00    -0.354 OA
ATOM      3  C   UNL     1       0.407   1.633   2.112  1.00  0.00     0.163 C 
ENDROOT
BRANCH   1   4
ATOM      4  C   UNL     1      -2.074   2.237   1.689  1.00  0.00     0.341 C 
ATOM      5  O   UNL     1      -2.282   3.099   2.527  1.00  0.00    -0.249 OA
BRANCH   4   6
ATOM      6  O   UNL     1      -2.664   2.324   0.483  1.00  0.00    -0.455 OA
BRANCH   6   7
ATOM      7  C   UNL     1      -3.826   1.722   0.038  1.00  0.00     0.230 C 
ATOM      8  C   UNL     1     -10.461  -1.019  -1.334  1.00  0.00     0.105 A 
ATOM      9  C   UNL     1     -10.680  -0.808   0.027  1.00  0.00     0.095 A 
ATOM     10  O   UNL     1      -9.264  -0.790  -1.854  1.00  0.00    -0.461 OA
ATOM     11  C   UNL     1      -9.631  -0.356   0.829  1.00  0.00     0.196 A 
ATOM     12  C   UNL     1      -8.228  -0.367  -1.135  1.00  0.00     0.145 A 
ATOM     13  O   UNL     1      -9.854  -0.187   2.013  1.00  0.00    -0.289 OA
ATOM     14  C   UNL     1      -8.350  -0.122   0.258  1.00  0.00     0.107 A 
ATOM     15  C   UNL     1      -7.017  -0.172  -1.787  1.00  0.00     0.094 A 
ATOM     16  C   UNL     1      -7.190   0.324   0.978  1.00  0.00     0.137 A 
ATOM     17  C   UNL     1      -5.889   0.247  -1.095  1.00  0.00     0.131 A 
ATOM     18  C   UNL     1      -5.952   0.483   0.297  1.00  0.00     0.047 A 
ATOM     19  O   UNL     1      -4.744   0.424  -1.800  1.00  0.00    -0.483 OA
ATOM     20  C   UNL     1      -4.655   0.848   1.044  1.00  0.00     0.101 CG0
ATOM     21  C   UNL     1      -3.595   1.066  -1.364  1.00  0.00     0.141 C 
ATOM     22  C   UNL     1     -11.556  -1.509  -2.229  1.00  0.00     0.088 C 
ATOM     23  C   UNL     1      -2.429   0.063  -1.407  1.00  0.00     0.060 C 
ATOM     24  C   UNL     1      -3.273   2.188  -2.376  1.00  0.00     0.060 C 
ATOM     25  G   UNL     1      -4.089  -0.483   1.679  1.00  0.00     0.000 G0
BRANCH  16  26
ATOM     26  O   UNL     1      -7.205   0.601   2.303  1.00  0.00    -0.507 OA
ATOM     27  H   UNL     1      -7.951   0.547   2.906  1.00  0.00     0.293 HD
ENDBRANCH  16  26
ENDBRANCH   6   7
ENDBRANCH   4   6
ENDBRANCH   1   4
BRANCH   1  28
ATOM     28  C   UNL     1      -1.480  -0.251   2.119  1.00  0.00     0.053 C 
BRANCH  28  29
ATOM     29  C   UNL     1      -2.893  -0.444   2.671  1.00  0.00     0.036 C 
BRANCH  29  30
ATOM     30  C   UNL     1      -4.089  -0.483   1.679  1.00  0.00     0.126 CG0
ATOM     31  G   UNL     1      -4.655   0.848   1.044  1.00  0.00     0.000 G0
BRANCH  30  32
ATOM     32  O   UNL     1      -5.135  -1.135   2.365  1.00  0.00    -0.392 OA
ATOM     33  H   UNL     1      -5.295  -0.651   3.217  1.00  0.00     0.210 HD
ENDBRANCH  30  32
ENDBRANCH  29  30
ENDBRANCH  28  29
ENDBRANCH   1  28
BRANCH   3  34
ATOM     34  C   UNL     1       1.528   0.693   2.644  1.00  0.00     0.040 C 
BRANCH  34  35
ATOM     35  C   UNL     1       1.778  -0.671   1.947  1.00  0.00     0.038 C 
BRANCH  35  36
ATOM     36  C   UNL     1       2.269  -0.567   0.523  1.00  0.00    -0.042 A 
ATOM     37  C   UNL     1       1.459  -1.011  -0.531  1.00  0.00     0.050 A 
ATOM     38  C   UNL     1       3.554  -0.070   0.241  1.00  0.00     0.033 A 
ATOM     39  C   UNL     1       1.928  -0.932  -1.842  1.00  0.00     0.124 A 
ATOM     40  C   UNL     1       4.013  -0.025  -1.093  1.00  0.00     0.073 A 
ATOM     41  N   UNL     1       3.174  -0.448  -2.082  1.00  0.00    -0.231 NA
BRANCH  39  42
ATOM     42  N   UNL     1       1.120  -1.359  -2.921  1.00  0.00    -0.384 N 
ATOM     43  H   UNL     1       0.172  -1.729  -2.757  1.00  0.00     0.158 HD
ATOM     44  H   UNL     1       1.472  -1.301  -3.887  1.00  0.00     0.158 HD
ENDBRANCH  39  42
BRANCH  40  45
ATOM     45  C   UNL     1       5.380   0.459  -1.477  1.00  0.00     0.006 A 
ATOM     46  C   UNL     1       5.702   0.586  -2.843  1.00  0.00     0.057 A 
ATOM     47  C   UNL     1       6.375   0.791  -0.529  1.00  0.00     0.041 A 
ATOM     48  C   UNL     1       6.962   1.052  -3.233  1.00  0.00     0.124 A 
ATOM     49  C   UNL     1       7.626   1.261  -0.962  1.00  0.00     0.108 A 
ATOM     50  N   UNL     1       7.877   1.388  -2.291  1.00  0.00    -0.230 NA
BRANCH  48  51
ATOM     51  N   UNL     1       7.291   1.173  -4.603  1.00  0.00    -0.384 N 
ATOM     52  H   UNL     1       6.614   0.913  -5.335  1.00  0.00     0.158 HD
ATOM     53  H   UNL     1       8.224   1.507  -4.883  1.00  0.00     0.158 HD
ENDBRANCH  48  51
BRANCH  49  54
ATOM     54  C   UNL     1       8.703   1.631   0.018  1.00  0.00     0.413 C 
BRANCH  54  55
ATOM     55  N   UNL     1       9.297   0.445   0.603  1.00  0.00    -0.196 N 
ATOM     56  C   UNL     1       9.320   0.160   1.867  1.00  0.00     0.319 C 
ATOM     57  C   UNL     1       9.987  -0.557  -0.150  1.00  0.00     0.337 C 
ATOM     58  C   UNL     1      10.065  -1.086   2.002  1.00  0.00     0.072 C 
ATOM     59  C   UNL     1      10.427  -1.442   0.719  1.00  0.00     0.140 C 
ATOM     60  C   UNL     1      10.548  -2.012   2.812  1.00  0.00     0.037 C 
ATOM     61  N   UNL     1      11.161  -2.630   0.719  1.00  0.00    -0.250 NA
ATOM     62  C   UNL     1      11.216  -2.943   1.976  1.00  0.00     0.113 C 
ENDBRANCH  54  55
ENDBRANCH  49  54
ENDBRANCH  40  45
ENDBRANCH  35  36
ENDBRANCH  34  35
ENDBRANCH   3  34
TORSDOF 10
