REMARK SMILES C[C@@H]1CC[C@@]2(OC1)O[C@H]1C[C@H]3[C@@H]4CC[C@H]5C[C@@H](O[C@H]6O[C@H](CO[C@H]7O[C@H](CO)[C@@H](O)[C@H](O)[C@H]7O)[C@@H](O)[C@H](O)[C@H]6O)CC[C@]5(C)[C@H]4CC(=O)[C@H]3[C@H]1[C@@H]2C
REMARK SMILES IDX 22 1 21 2 19 3 20 4 39 5 37 6 35 7 18 8 17 9 2 10 3 11 7 12
REMARK SMILES IDX 4 13 6 14 5 15 8 16 51 17 9 18 50 19 10 20 49 21 11 22 47 23
REMARK SMILES IDX 12 24 46 25 48 26 13 27 45 28 14 29 43 30 15 31 42 32 16 33
REMARK SMILES IDX 41 34 1 35 52 36 44 37 40 38 38 40 36 42 23 44 24 45 25 46
REMARK SMILES IDX 33 47 26 48 31 49 29 50 34 51 27 53 28 54 32 56 30 58
REMARK H PARENT 40 39 38 41 36 43 34 52 28 55 32 57 30 59
ROOT
ATOM      1  C   UNL     1       6.559   0.658   0.066  1.00  0.00     0.198 C 
ENDROOT
BRANCH   1   2
ATOM      2  C   UNL     1       5.209   0.551  -0.665  1.00  0.00     0.178 C 
ATOM      3  C   UNL     1       3.792   1.985  -1.928  1.00  0.00     0.282 C 
ATOM      4  O   UNL     1       4.735   1.894  -0.876  1.00  0.00    -0.341 OA
ATOM      5  C   UNL     1       4.486   1.712  -3.293  1.00  0.00     0.202 C 
ATOM      6  C   UNL     1       5.604   0.616  -3.181  1.00  0.00     0.179 C 
ATOM      7  C   UNL     1       5.327  -0.312  -1.981  1.00  0.00     0.177 C 
BRANCH   3   8
ATOM      8  O   UNL     1       2.771   1.031  -1.710  1.00  0.00    -0.347 OA
BRANCH   8   9
ATOM      9  C   UNL     1       1.493   1.536  -1.389  1.00  0.00     0.122 C 
ATOM     10  C   UNL     1     -10.698  -1.442  -1.072  1.00  0.00     0.012 C 
ATOM     11  C   UNL     1      -9.707  -0.576  -1.896  1.00  0.00     0.011 C 
ATOM     12  C   UNL     1      -9.949  -2.384  -0.104  1.00  0.00     0.167 C 
ATOM     13  C   UNL     1      -8.258  -0.918  -1.544  1.00  0.00     0.066 C 
ATOM     14  O   UNL     1      -9.054  -1.658   0.720  1.00  0.00    -0.349 OA
ATOM     15  C   UNL     1      -8.062  -0.898   0.002  1.00  0.00     0.171 C 
ATOM     16  O   UNL     1      -6.803  -1.464   0.305  1.00  0.00    -0.346 OA
ATOM     17  C   UNL     1      -8.011   0.568   0.553  1.00  0.00     0.052 C 
ATOM     18  C   UNL     1      -6.480  -0.934   1.574  1.00  0.00     0.126 C 
ATOM     19  C   UNL     1      -6.776   0.539   1.453  1.00  0.00     0.037 C 
ATOM     20  C   UNL     1      -4.976  -1.031   1.848  1.00  0.00     0.037 C 
ATOM     21  C   UNL     1      -5.444   1.128   0.901  1.00  0.00     0.066 C 
ATOM     22  C   UNL     1      -4.440   0.422   1.822  1.00  0.00     0.006 C 
ATOM     23  C   UNL     1      -5.111   0.864  -0.570  1.00  0.00     0.136 C 
ATOM     24  C   UNL     1      -2.934   0.476   1.412  1.00  0.00    -0.003 C 
ATOM     25  C   UNL     1      -3.809   0.200  -0.963  1.00  0.00     0.080 C 
ATOM     26  O   UNL     1      -5.787   1.388  -1.441  1.00  0.00    -0.299 OA
ATOM     27  C   UNL     1      -2.052   1.389   2.276  1.00  0.00     0.004 C 
ATOM     28  C   UNL     1      -2.707   0.842  -0.096  1.00  0.00     0.006 C 
ATOM     29  C   UNL     1      -0.568   1.136   1.926  1.00  0.00     0.004 C 
ATOM     30  C   UNL     1      -1.223   0.550  -0.518  1.00  0.00    -0.026 C 
ATOM     31  C   UNL     1      -0.290   1.396   0.428  1.00  0.00    -0.002 C 
ATOM     32  C   UNL     1      -0.952   1.067  -1.967  1.00  0.00     0.010 C 
ATOM     33  C   UNL     1       1.196   1.167   0.079  1.00  0.00     0.036 C 
ATOM     34  C   UNL     1       0.516   0.875  -2.375  1.00  0.00     0.033 C 
ATOM     35  C   UNL     1     -11.649  -2.233  -1.975  1.00  0.00     0.010 C 
ATOM     36  C   UNL     1      -9.273   0.990   1.325  1.00  0.00     0.014 C 
ATOM     37  C   UNL     1      -0.941  -0.991  -0.453  1.00  0.00     0.012 C 
ENDBRANCH   8   9
ENDBRANCH   3   8
BRANCH   5  38
ATOM     38  O   UNL     1       3.525   1.398  -4.272  1.00  0.00    -0.385 OA
ATOM     39  H   UNL     1       3.214   0.470  -4.114  1.00  0.00     0.211 HD
ENDBRANCH   5  38
BRANCH   6  40
ATOM     40  O   UNL     1       6.888   1.184  -3.045  1.00  0.00    -0.387 OA
ATOM     41  H   UNL     1       6.820   2.052  -2.571  1.00  0.00     0.211 HD
ENDBRANCH   6  40
BRANCH   7  42
ATOM     42  O   UNL     1       4.130  -1.020  -2.194  1.00  0.00    -0.387 OA
ATOM     43  H   UNL     1       4.309  -1.697  -2.898  1.00  0.00     0.211 HD
ENDBRANCH   7  42
ENDBRANCH   1   2
BRANCH   1  44
ATOM     44  O   UNL     1       7.025  -0.631   0.424  1.00  0.00    -0.347 OA
BRANCH  44  45
ATOM     45  C   UNL     1       8.320  -0.564   1.007  1.00  0.00     0.282 C 
ATOM     46  O   UNL     1       8.221  -0.889   2.391  1.00  0.00    -0.341 OA
ATOM     47  C   UNL     1       9.257  -1.553   0.262  1.00  0.00     0.202 C 
ATOM     48  C   UNL     1       9.476  -0.787   3.064  1.00  0.00     0.178 C 
ATOM     49  C   UNL     1      10.661  -1.442   0.886  1.00  0.00     0.179 C 
ATOM     50  C   UNL     1      10.560  -1.700   2.406  1.00  0.00     0.177 C 
BRANCH  47  51
ATOM     51  O   UNL     1       8.819  -2.892   0.329  1.00  0.00    -0.385 OA
ATOM     52  H   UNL     1       7.867  -2.929   0.610  1.00  0.00     0.211 HD
ENDBRANCH  47  51
BRANCH  48  53
ATOM     53  C   UNL     1       9.913   0.682   3.280  1.00  0.00     0.191 C 
BRANCH  53  54
ATOM     54  O   UNL     1       8.936   1.376   4.006  1.00  0.00    -0.394 OA
ATOM     55  H   UNL     1       8.204   1.587   3.369  1.00  0.00     0.210 HD
ENDBRANCH  53  54
ENDBRANCH  48  53
BRANCH  49  56
ATOM     56  O   UNL     1      11.177  -0.160   0.629  1.00  0.00    -0.387 OA
ATOM     57  H   UNL     1      12.125  -0.167   0.923  1.00  0.00     0.211 HD
ENDBRANCH  49  56
BRANCH  50  58
ATOM     58  O   UNL     1      10.291  -3.068   2.632  1.00  0.00    -0.387 OA
ATOM     59  H   UNL     1       9.320  -3.203   2.777  1.00  0.00     0.211 HD
ENDBRANCH  50  58
ENDBRANCH  44  45
ENDBRANCH   1  44
TORSDOF 13
