REMARK SMILES C[C@H]1[C@H]2[C@H](C[C@H]3[C@@H]4CC=C5C[C@@H](O[C@@H]6O[C@H](CO[C@@H]7OC[C@H](O)[C@H](O)[C@H]7O)[C@@H](O)[C@H](O)[C@H]6O)CC[C@]5(C)[C@H]4CC[C@]23C)O[C@]12CC[C@@H](CO)CO2
REMARK SMILES IDX 14 1 15 2 16 3 28 4 30 5 32 6 13 7 12 8 2 9 3 10 44 11 4 12
REMARK SMILES IDX 41 13 43 14 45 15 51 16 5 17 40 18 6 19 46 20 50 21 39 22
REMARK SMILES IDX 7 23 47 24 38 25 8 26 36 27 9 28 35 29 10 30 34 31 11 32
REMARK SMILES IDX 1 33 42 34 37 35 48 36 49 37 33 39 17 41 18 42 19 43 20 44
REMARK SMILES IDX 26 45 21 46 24 47 22 48 27 49 25 51 23 53 31 55 29 57
REMARK H PARENT 49 38 33 40 27 50 25 52 23 54 31 56 29 58
ROOT
ATOM      1  C   UNL     1       4.751  -0.480  -1.763  1.00  0.00     0.282 C 
ATOM      2  O   UNL     1       5.347   0.135  -0.612  1.00  0.00    -0.341 OA
ATOM      3  C   UNL     1       6.694   0.501  -0.824  1.00  0.00     0.178 C 
ATOM      4  C   UNL     1       6.794   1.650  -1.878  1.00  0.00     0.177 C 
ATOM      5  C   UNL     1       5.748   1.460  -3.025  1.00  0.00     0.179 C 
ATOM      6  C   UNL     1       5.362  -0.024  -3.133  1.00  0.00     0.202 C 
ENDROOT
BRANCH   1   7
ATOM      7  O   UNL     1       3.386  -0.116  -1.770  1.00  0.00    -0.346 OA
BRANCH   7   8
ATOM      8  C   UNL     1       2.591  -0.941  -0.925  1.00  0.00     0.125 C 
ATOM      9  C   UNL     1      -7.291   0.524  -0.186  1.00  0.00     0.052 C 
ATOM     10  C   UNL     1      -5.987   0.254   0.557  1.00  0.00     0.033 C 
ATOM     11  C   UNL     1      -8.237  -0.435   0.542  1.00  0.00     0.171 C 
ATOM     12  C   UNL     1      -6.134  -1.248   0.823  1.00  0.00     0.126 C 
ATOM     13  C   UNL     1      -4.615   0.421  -0.198  1.00  0.00    -0.024 C 
ATOM     14  O   UNL     1      -7.494  -1.640   0.686  1.00  0.00    -0.346 OA
ATOM     15  C   UNL     1      -9.514  -0.669  -0.309  1.00  0.00     0.066 C 
ATOM     16  O   UNL     1      -8.558   0.114   1.821  1.00  0.00    -0.349 OA
ATOM     17  C   UNL     1      -5.141  -1.922  -0.142  1.00  0.00     0.037 C 
ATOM     18  C   UNL     1      -3.669   1.462   0.446  1.00  0.00     0.008 C 
ATOM     19  C   UNL     1      -3.957  -0.958   0.030  1.00  0.00     0.002 C 
ATOM     20  C   UNL     1     -10.518  -1.525   0.457  1.00  0.00     0.014 C 
ATOM     21  C   UNL     1      -9.474  -0.687   2.546  1.00  0.00     0.169 C 
ATOM     22  C   UNL     1      -2.288   1.441  -0.248  1.00  0.00     0.005 C 
ATOM     23  C   UNL     1      -2.635  -1.105  -0.762  1.00  0.00     0.000 C 
ATOM     24  C   UNL     1     -10.810  -0.836   1.793  1.00  0.00     0.041 C 
ATOM     25  C   UNL     1      -1.632   0.008  -0.306  1.00  0.00     0.003 C 
ATOM     26  C   UNL     1      -2.005  -2.487  -0.523  1.00  0.00     0.031 C 
ATOM     27  C   UNL     1      -0.325  -0.042  -1.207  1.00  0.00    -0.008 C 
ATOM     28  C   UNL     1      -0.587  -2.576  -1.022  1.00  0.00    -0.027 C 
ATOM     29  C   UNL     1       0.828   0.821  -0.560  1.00  0.00     0.014 C 
ATOM     30  C   UNL     1       0.162  -1.503  -1.359  1.00  0.00    -0.065 C 
ATOM     31  C   UNL     1       1.888  -0.045   0.127  1.00  0.00     0.033 C 
ATOM     32  C   UNL     1       1.586  -1.709  -1.826  1.00  0.00     0.063 C 
ATOM     33  C   UNL     1      -7.712   2.003  -0.184  1.00  0.00     0.014 C 
ATOM     34  C   UNL     1      -4.823   0.742  -1.726  1.00  0.00     0.012 C 
ATOM     35  C   UNL     1      -0.583   0.514  -2.637  1.00  0.00     0.016 C 
BRANCH  24  36
ATOM     36  C   UNL     1     -11.851  -1.625   2.603  1.00  0.00     0.162 C 
BRANCH  36  37
ATOM     37  O   UNL     1     -12.196  -0.932   3.773  1.00  0.00    -0.396 OA
ATOM     38  H   UNL     1     -11.596  -1.257   4.493  1.00  0.00     0.210 HD
ENDBRANCH  36  37
ENDBRANCH  24  36
ENDBRANCH   7   8
ENDBRANCH   1   7
BRANCH   6  39
ATOM     39  O   UNL     1       6.508  -0.774  -3.448  1.00  0.00    -0.385 OA
ATOM     40  H   UNL     1       6.196  -1.674  -3.726  1.00  0.00     0.211 HD
ENDBRANCH   6  39
BRANCH   3  41
ATOM     41  C   UNL     1       7.321   0.902   0.513  1.00  0.00     0.198 C 
BRANCH  41  42
ATOM     42  O   UNL     1       8.712   1.101   0.354  1.00  0.00    -0.347 OA
BRANCH  42  43
ATOM     43  C   UNL     1       9.352   1.288   1.606  1.00  0.00     0.281 C 
ATOM     44  O   UNL     1      10.338   2.299   1.435  1.00  0.00    -0.347 OA
ATOM     45  C   UNL     1      10.023  -0.043   2.047  1.00  0.00     0.202 C 
ATOM     46  C   UNL     1      10.982   2.592   2.666  1.00  0.00     0.198 C 
ATOM     47  C   UNL     1      10.818   0.193   3.349  1.00  0.00     0.179 C 
ATOM     48  C   UNL     1      11.784   1.377   3.176  1.00  0.00     0.171 C 
BRANCH  45  49
ATOM     49  O   UNL     1       9.080  -1.071   2.221  1.00  0.00    -0.385 OA
ATOM     50  H   UNL     1       8.474  -0.800   2.960  1.00  0.00     0.211 HD
ENDBRANCH  45  49
BRANCH  47  51
ATOM     51  O   UNL     1      11.489  -0.966   3.777  1.00  0.00    -0.387 OA
ATOM     52  H   UNL     1      12.054  -1.282   3.025  1.00  0.00     0.211 HD
ENDBRANCH  47  51
BRANCH  48  53
ATOM     53  O   UNL     1      12.849   1.060   2.308  1.00  0.00    -0.388 OA
ATOM     54  H   UNL     1      12.514   1.044   1.376  1.00  0.00     0.211 HD
ENDBRANCH  48  53
ENDBRANCH  42  43
ENDBRANCH  41  42
ENDBRANCH   3  41
BRANCH   5  55
ATOM     55  O   UNL     1       4.588   2.236  -2.810  1.00  0.00    -0.387 OA
ATOM     56  H   UNL     1       4.370   2.243  -1.841  1.00  0.00     0.211 HD
ENDBRANCH   5  55
BRANCH   4  57
ATOM     57  O   UNL     1       8.107   1.730  -2.378  1.00  0.00    -0.387 OA
ATOM     58  H   UNL     1       8.294   0.899  -2.885  1.00  0.00     0.211 HD
ENDBRANCH   4  57
TORSDOF 13
