REMARK SMILES C[C@@H]1CO[C@]2(C[C@@H]1O)O[C@H]1C[C@H]3[C@H]4CC=C5C[C@H](O[C@H]6O[C@@H](CO)[C@@H](O[C@@H]7O[C@H](CO)[C@@H](O)[C@H](O)[C@H]7O)[C@@H](O)[C@@H]6O)CC[C@]5(C)[C@@H]4CC(=O)[C@]3(C)[C@@H]1[C@@H]2C
REMARK SMILES IDX 20 1 21 2 22 3 25 4 38 5 40 6 19 7 18 8 2 9 3 10 7 11 4 12
REMARK SMILES IDX 6 13 5 14 9 15 53 16 10 17 52 18 11 19 50 20 12 21 48 22
REMARK SMILES IDX 13 23 47 24 49 25 14 26 46 27 15 28 44 29 16 30 43 31 17 32
REMARK SMILES IDX 42 33 1 34 54 35 51 36 45 37 8 38 41 40 23 42 24 43 39 45
REMARK SMILES IDX 26 47 27 48 28 49 36 50 29 51 34 52 32 53 37 54 30 56 31 57
REMARK SMILES IDX 35 59 33 61
REMARK H PARENT 8 39 41 41 24 44 39 46 37 55 31 58 35 60 33 62
ROOT
ATOM      1  C   UNL     1       4.152  -0.212  -0.880  1.00  0.00     0.282 C 
ATOM      2  O   UNL     1       4.693  -1.520  -0.892  1.00  0.00    -0.341 OA
ATOM      3  C   UNL     1       6.042  -1.565  -0.405  1.00  0.00     0.178 C 
ATOM      4  C   UNL     1       6.851  -0.236  -0.670  1.00  0.00     0.184 C 
ATOM      5  C   UNL     1       6.404   0.382  -1.999  1.00  0.00     0.180 C 
ATOM      6  C   UNL     1       4.877   0.692  -1.916  1.00  0.00     0.202 C 
ENDROOT
BRANCH   1   7
ATOM      7  O   UNL     1       2.797  -0.262  -1.266  1.00  0.00    -0.346 OA
BRANCH   7   8
ATOM      8  C   UNL     1       1.866  -0.272  -0.198  1.00  0.00     0.125 C 
ATOM      9  C   UNL     1     -11.674   1.205  -0.802  1.00  0.00     0.041 C 
ATOM     10  C   UNL     1     -10.493   1.057  -1.776  1.00  0.00     0.169 C 
ATOM     11  C   UNL     1     -11.088   1.561   0.583  1.00  0.00     0.124 C 
ATOM     12  O   UNL     1      -9.623   0.016  -1.353  1.00  0.00    -0.349 OA
ATOM     13  C   UNL     1     -10.015   0.541   1.000  1.00  0.00     0.098 C 
ATOM     14  C   UNL     1      -8.963   0.356  -0.134  1.00  0.00     0.174 C 
ATOM     15  O   UNL     1      -8.174   1.562  -0.304  1.00  0.00    -0.346 OA
ATOM     16  C   UNL     1      -7.970  -0.812   0.300  1.00  0.00     0.052 C 
ATOM     17  C   UNL     1      -6.859   1.086  -0.242  1.00  0.00     0.126 C 
ATOM     18  C   UNL     1      -6.865   0.064   0.868  1.00  0.00     0.040 C 
ATOM     19  C   UNL     1      -5.604   1.923   0.003  1.00  0.00     0.037 C 
ATOM     20  C   UNL     1      -5.356  -0.141   1.313  1.00  0.00     0.035 C 
ATOM     21  C   UNL     1      -4.647   0.716   0.237  1.00  0.00     0.009 C 
ATOM     22  C   UNL     1      -4.729  -1.520   1.253  1.00  0.00     0.139 C 
ATOM     23  C   UNL     1      -3.098   0.831   0.260  1.00  0.00     0.001 C 
ATOM     24  C   UNL     1      -3.220  -1.659   1.056  1.00  0.00     0.081 C 
ATOM     25  O   UNL     1      -5.422  -2.522   1.279  1.00  0.00    -0.299 OA
ATOM     26  C   UNL     1      -2.502   2.150   0.757  1.00  0.00     0.031 C 
ATOM     27  C   UNL     1      -2.449  -0.295   1.125  1.00  0.00     0.010 C 
ATOM     28  C   UNL     1      -1.049   2.113   0.362  1.00  0.00    -0.027 C 
ATOM     29  C   UNL     1      -0.869  -0.362   0.965  1.00  0.00    -0.008 C 
ATOM     30  C   UNL     1      -0.295   0.987   0.457  1.00  0.00    -0.065 C 
ATOM     31  C   UNL     1      -0.480  -1.399  -0.117  1.00  0.00     0.014 C 
ATOM     32  C   UNL     1       1.040   1.023  -0.277  1.00  0.00     0.063 C 
ATOM     33  C   UNL     1       1.038  -1.574  -0.297  1.00  0.00     0.033 C 
ATOM     34  C   UNL     1     -12.524  -0.080  -0.812  1.00  0.00     0.013 C 
ATOM     35  C   UNL     1      -7.577  -1.734  -0.894  1.00  0.00     0.014 C 
ATOM     36  C   UNL     1      -5.228   0.398   2.778  1.00  0.00     0.020 C 
ATOM     37  C   UNL     1      -0.254  -0.737   2.340  1.00  0.00     0.016 C 
BRANCH  11  38
ATOM     38  O   UNL     1     -12.091   1.700   1.556  1.00  0.00    -0.393 OA
ATOM     39  H   UNL     1     -12.389   0.789   1.832  1.00  0.00     0.210 HD
ENDBRANCH  11  38
ENDBRANCH   7   8
ENDBRANCH   1   7
BRANCH   6  40
ATOM     40  O   UNL     1       4.633   2.041  -1.605  1.00  0.00    -0.385 OA
ATOM     41  H   UNL     1       5.088   2.241  -0.747  1.00  0.00     0.211 HD
ENDBRANCH   6  40
BRANCH   3  42
ATOM     42  C   UNL     1       6.692  -2.830  -1.015  1.00  0.00     0.191 C 
BRANCH  42  43
ATOM     43  O   UNL     1       7.957  -3.074  -0.454  1.00  0.00    -0.394 OA
ATOM     44  H   UNL     1       8.620  -3.060  -1.194  1.00  0.00     0.210 HD
ENDBRANCH  42  43
ENDBRANCH   3  42
BRANCH   5  45
ATOM     45  O   UNL     1       6.724  -0.482  -3.068  1.00  0.00    -0.387 OA
ATOM     46  H   UNL     1       5.943  -1.053  -3.283  1.00  0.00     0.211 HD
ENDBRANCH   5  45
BRANCH   4  47
ATOM     47  O   UNL     1       8.247  -0.480  -0.688  1.00  0.00    -0.341 OA
BRANCH  47  48
ATOM     48  C   UNL     1       8.988   0.289   0.242  1.00  0.00     0.282 C 
ATOM     49  O   UNL     1       9.674   1.348  -0.439  1.00  0.00    -0.341 OA
ATOM     50  C   UNL     1       9.880  -0.674   1.079  1.00  0.00     0.202 C 
ATOM     51  C   UNL     1      11.033   1.071  -0.739  1.00  0.00     0.178 C 
ATOM     52  C   UNL     1      11.006   0.150   1.688  1.00  0.00     0.179 C 
ATOM     53  C   UNL     1      11.869   0.736   0.544  1.00  0.00     0.177 C 
BRANCH  50  54
ATOM     54  O   UNL     1       9.116  -1.352   2.045  1.00  0.00    -0.385 OA
ATOM     55  H   UNL     1       8.800  -0.682   2.706  1.00  0.00     0.211 HD
ENDBRANCH  50  54
BRANCH  51  56
ATOM     56  C   UNL     1      11.148   0.029  -1.879  1.00  0.00     0.191 C 
BRANCH  56  57
ATOM     57  O   UNL     1      10.507   0.501  -3.034  1.00  0.00    -0.394 OA
ATOM     58  H   UNL     1       9.538   0.318  -2.922  1.00  0.00     0.210 HD
ENDBRANCH  56  57
ENDBRANCH  51  56
BRANCH  52  59
ATOM     59  O   UNL     1      11.793  -0.582   2.593  1.00  0.00    -0.387 OA
ATOM     60  H   UNL     1      12.117  -1.393   2.120  1.00  0.00     0.211 HD
ENDBRANCH  52  59
BRANCH  53  61
ATOM     61  O   UNL     1      12.568   1.858   1.018  1.00  0.00    -0.387 OA
ATOM     62  H   UNL     1      11.904   2.580   1.175  1.00  0.00     0.211 HD
ENDBRANCH  53  61
ENDBRANCH  47  48
ENDBRANCH   4  47
TORSDOF 14
