REMARK SMILES CO[C@@H]1[C@@H](O)[C@H](O[C@@H]2C=C3C=C[C@@]4(O)[C@H](CC[C@@]56CO[C@@]7(C)OC[C@@H](O[C@@]54O)[C@H]76)[C@@]3(C)CC2)O[C@H](C)[C@H]1O[C@H]1C[C@H](OC)[C@H](O[C@H]2C[C@H](OC)[C@H](O[C@H]3C[C@@H](OC)[C@@H](O)[C@H](C)O3)[C@@H](C)O2)[C@@H](C)O1
REMARK SMILES IDX 39 1 40 2 41 3 44 4 66 5 67 6 68 7 38 8 37 9 3 10 4 11 6 12
REMARK SMILES IDX 35 13 34 14 36 15 2 16 1 17 5 18 7 20 8 21 9 22 33 23 10 24
REMARK SMILES IDX 32 25 11 26 30 27 12 28 15 29 13 30 16 31 27 32 17 33 26 34
REMARK SMILES IDX 18 35 25 36 19 37 29 38 24 39 20 40 21 41 23 42 31 43 22 44
REMARK SMILES IDX 14 45 28 47 42 49 43 50 45 51 46 52 47 53 65 54 48 55 63 56
REMARK SMILES IDX 51 57 64 58 49 59 50 60 52 61 53 62 54 63 62 64 55 65 60 66
REMARK SMILES IDX 58 67 61 68 56 69 57 70 59 71
REMARK H PARENT 5 19 14 46 28 48 59 72
ROOT
ATOM      1  C   UNL     1       2.070   1.512  -1.188  1.00  0.00     0.253 C 
ATOM      2  C   UNL     1       2.971   2.562  -0.495  1.00  0.00     0.097 C 
ATOM      3  C   UNL     1       4.456   2.264  -0.685  1.00  0.00     0.154 C 
ATOM      4  C   UNL     1       4.657   0.835  -0.184  1.00  0.00     0.179 C 
ATOM      5  C   UNL     1       3.835  -0.156  -1.045  1.00  0.00     0.150 C 
ATOM      6  C   UNL     1       3.397  -1.377  -0.235  1.00  0.00     0.041 C 
ATOM      7  O   UNL     1       2.734   0.395  -1.758  1.00  0.00    -0.347 OA
ENDROOT
BRANCH   1   8
ATOM      8  O   UNL     1       1.104   1.052  -0.264  1.00  0.00    -0.344 OA
BRANCH   8   9
ATOM      9  C   UNL     1      -0.230   1.165  -0.724  1.00  0.00     0.182 C 
ATOM     10  C   UNL     1      -0.726  -0.213  -1.210  1.00  0.00     0.183 C 
ATOM     11  C   UNL     1      -2.240  -0.125  -1.474  1.00  0.00     0.202 C 
ATOM     12  C   UNL     1      -2.941   0.412  -0.212  1.00  0.00     0.282 C 
ATOM     13  C   UNL     1      -1.096   1.654   0.460  1.00  0.00     0.150 C 
ATOM     14  O   UNL     1      -2.462   1.710   0.088  1.00  0.00    -0.344 OA
ATOM     15  C   UNL     1      -0.660   3.054   0.903  1.00  0.00     0.041 C 
BRANCH  10  16
ATOM     16  O   UNL     1      -0.030  -0.562  -2.398  1.00  0.00    -0.376 OA
ATOM     17  C   UNL     1       0.188  -1.955  -2.475  1.00  0.00     0.195 C 
ENDBRANCH  10  16
BRANCH  11  18
ATOM     18  O   UNL     1      -2.775  -1.370  -1.849  1.00  0.00    -0.385 OA
ATOM     19  H   UNL     1      -2.680  -1.984  -1.075  1.00  0.00     0.211 HD
ENDBRANCH  11  18
BRANCH  12  20
ATOM     20  O   UNL     1      -4.321   0.504  -0.495  1.00  0.00    -0.342 OA
BRANCH  20  21
ATOM     21  C   UNL     1      -5.127  -0.295   0.353  1.00  0.00     0.144 C 
ATOM     22  C   UNL     1      -6.041  -1.133  -0.512  1.00  0.00     0.009 C 
ATOM     23  C   UNL     1      -5.839   0.631   1.353  1.00  0.00     0.037 C 
ATOM     24  C   UNL     1      -7.382  -1.172  -0.381  1.00  0.00    -0.043 C 
ATOM     25  C   UNL     1      -7.156   0.019   1.826  1.00  0.00     0.015 C 
ATOM     26  C   UNL     1      -8.159  -2.064  -1.278  1.00  0.00     0.003 C 
ATOM     27  C   UNL     1      -8.107  -0.282   0.616  1.00  0.00    -0.002 C 
ATOM     28  C   UNL     1      -9.461  -2.327  -1.090  1.00  0.00     0.014 C 
ATOM     29  C   UNL     1      -9.378  -1.046   1.153  1.00  0.00     0.041 C 
ATOM     30  C   UNL     1     -10.281  -1.808   0.086  1.00  0.00     0.141 C 
ATOM     31  C   UNL     1     -10.202  -0.203   2.179  1.00  0.00     0.009 C 
ATOM     32  C   UNL     1     -11.494  -0.963  -0.427  1.00  0.00     0.207 C 
ATOM     33  C   UNL     1     -11.682  -0.574   2.186  1.00  0.00     0.016 C 
ATOM     34  O   UNL     1     -12.404  -1.814  -1.135  1.00  0.00    -0.340 OA
ATOM     35  C   UNL     1     -12.290  -0.312   0.764  1.00  0.00     0.062 C 
ATOM     36  C   UNL     1     -13.707  -1.475  -0.713  1.00  0.00     0.157 C 
ATOM     37  C   UNL     1     -12.637   1.191   0.595  1.00  0.00     0.177 C 
ATOM     38  C   UNL     1     -13.638  -0.946   0.667  1.00  0.00     0.094 C 
ATOM     39  C   UNL     1     -14.321  -0.346  -1.518  1.00  0.00     0.196 C 
ATOM     40  O   UNL     1     -13.942   1.362   1.090  1.00  0.00    -0.349 OA
ATOM     41  C   UNL     1     -14.640   0.200   0.679  1.00  0.00     0.171 C 
ATOM     42  O   UNL     1     -15.161   0.373  -0.638  1.00  0.00    -0.347 OA
ATOM     43  C   UNL     1      -8.436   1.033  -0.150  1.00  0.00     0.017 C 
ATOM     44  C   UNL     1     -15.790  -0.076   1.642  1.00  0.00     0.076 C 
BRANCH  30  45
ATOM     45  O   UNL     1     -10.847  -2.937   0.727  1.00  0.00    -0.380 OA
ATOM     46  H   UNL     1     -10.129  -3.597   0.918  1.00  0.00     0.212 HD
ENDBRANCH  30  45
BRANCH  32  47
ATOM     47  O   UNL     1     -11.058   0.037  -1.308  1.00  0.00    -0.362 OA
ATOM     48  H   UNL     1     -10.917  -0.376  -2.200  1.00  0.00     0.214 HD
ENDBRANCH  32  47
ENDBRANCH  20  21
ENDBRANCH  12  20
ENDBRANCH   8   9
ENDBRANCH   1   8
BRANCH   3  49
ATOM     49  O   UNL     1       4.833   2.368  -2.047  1.00  0.00    -0.378 OA
ATOM     50  C   UNL     1       5.377   3.647  -2.304  1.00  0.00     0.195 C 
ENDBRANCH   3  49
BRANCH   4  51
ATOM     51  O   UNL     1       6.027   0.498  -0.292  1.00  0.00    -0.344 OA
BRANCH  51  52
ATOM     52  C   UNL     1       6.612   0.014   0.902  1.00  0.00     0.253 C 
ATOM     53  C   UNL     1       7.218  -1.384   0.643  1.00  0.00     0.097 C 
ATOM     54  O   UNL     1       7.521   0.985   1.403  1.00  0.00    -0.347 OA
ATOM     55  C   UNL     1       8.574  -1.524   1.324  1.00  0.00     0.154 C 
ATOM     56  C   UNL     1       8.832   0.971   0.853  1.00  0.00     0.150 C 
ATOM     57  C   UNL     1       9.466  -0.445   0.703  1.00  0.00     0.179 C 
ATOM     58  C   UNL     1       8.888   1.777  -0.452  1.00  0.00     0.041 C 
BRANCH  55  59
ATOM     59  O   UNL     1       8.450  -1.327   2.725  1.00  0.00    -0.378 OA
ATOM     60  C   UNL     1       8.768  -2.510   3.423  1.00  0.00     0.195 C 
ENDBRANCH  55  59
BRANCH  57  61
ATOM     61  O   UNL     1      10.746  -0.466   1.321  1.00  0.00    -0.344 OA
BRANCH  61  62
ATOM     62  C   UNL     1      11.795  -0.921   0.480  1.00  0.00     0.253 C 
ATOM     63  C   UNL     1      12.792   0.241   0.320  1.00  0.00     0.097 C 
ATOM     64  O   UNL     1      12.397  -2.050   1.108  1.00  0.00    -0.347 OA
ATOM     65  C   UNL     1      14.004  -0.227  -0.491  1.00  0.00     0.154 C 
ATOM     66  C   UNL     1      13.524  -2.554   0.392  1.00  0.00     0.149 C 
ATOM     67  C   UNL     1      14.611  -1.461   0.194  1.00  0.00     0.172 C 
ATOM     68  C   UNL     1      13.117  -3.271  -0.911  1.00  0.00     0.041 C 
BRANCH  65  69
ATOM     69  O   UNL     1      14.975   0.806  -0.552  1.00  0.00    -0.378 OA
ATOM     70  C   UNL     1      15.025   1.372  -1.842  1.00  0.00     0.195 C 
ENDBRANCH  65  69
BRANCH  67  71
ATOM     71  O   UNL     1      15.202  -1.102   1.425  1.00  0.00    -0.388 OA
ATOM     72  H   UNL     1      14.500  -1.052   2.124  1.00  0.00     0.211 HD
ENDBRANCH  67  71
ENDBRANCH  61  62
ENDBRANCH  57  61
ENDBRANCH  51  52
ENDBRANCH   4  51
TORSDOF 16
