REMARK SMILES CC1=C(C)C(=O)O[C@@H]([C@H](C)[C@@H]2[C@H](O)C[C@@H]3[C@H]4[C@@H]5O[C@@H]5[C@@]5(O)C[C@@H](O[C@H]6O[C@@H](CO)[C@H](O[C@@H]7O[C@H](C)[C@H](O)[C@@H](O)[C@@H]7O)[C@@H](O)[C@@H]6O)C[C@@H](O)[C@@]5(C)[C@@H]4CC[C@@]23C)C1
REMARK SMILES IDX 25 1 26 2 27 3 30 4 42 5 44 6 24 7 23 8 11 9 12 10 54 11
REMARK SMILES IDX 14 12 53 13 15 14 52 15 16 16 51 17 17 18 49 19 18 20 19 21
REMARK SMILES IDX 47 22 20 23 46 24 22 25 55 26 50 27 9 28 10 29 8 30 2 31
REMARK SMILES IDX 3 32 56 33 5 34 6 35 7 36 1 37 4 38 13 39 48 41 21 43 45 45
REMARK SMILES IDX 28 47 29 48 43 50 31 52 32 53 33 54 40 55 34 56 38 57 36 58
REMARK SMILES IDX 35 59 41 60 39 62 37 64
REMARK H PARENT 13 40 48 42 21 44 45 46 29 49 43 51 41 61 39 63 37 65
ROOT
ATOM      1  C   UNL     1       4.210  -0.064  -0.459  1.00  0.00     0.282 C 
ATOM      2  O   UNL     1       4.878  -0.125   0.793  1.00  0.00    -0.341 OA
ATOM      3  C   UNL     1       6.027   0.711   0.828  1.00  0.00     0.178 C 
ATOM      4  C   UNL     1       7.074   0.217  -0.207  1.00  0.00     0.184 C 
ATOM      5  C   UNL     1       6.432   0.279  -1.606  1.00  0.00     0.180 C 
ATOM      6  C   UNL     1       5.134  -0.542  -1.595  1.00  0.00     0.202 C 
ENDROOT
BRANCH   1   7
ATOM      7  O   UNL     1       3.124  -0.968  -0.413  1.00  0.00    -0.346 OA
BRANCH   7   8
ATOM      8  C   UNL     1       1.868  -0.349  -0.198  1.00  0.00     0.127 C 
ATOM      9  C   UNL     1      -6.907  -1.538  -0.368  1.00  0.00     0.030 C 
ATOM     10  C   UNL     1      -6.633  -3.084  -0.530  1.00  0.00     0.118 C 
ATOM     11  C   UNL     1      -5.594  -0.969   0.281  1.00  0.00    -0.024 C 
ATOM     12  C   UNL     1      -5.198  -3.330  -0.017  1.00  0.00     0.036 C 
ATOM     13  C   UNL     1      -5.143   0.437  -0.215  1.00  0.00     0.008 C 
ATOM     14  C   UNL     1      -4.563  -1.983  -0.286  1.00  0.00     0.004 C 
ATOM     15  C   UNL     1      -3.687   0.770   0.219  1.00  0.00     0.005 C 
ATOM     16  C   UNL     1      -3.128  -1.740   0.213  1.00  0.00     0.028 C 
ATOM     17  C   UNL     1      -2.670  -0.321  -0.248  1.00  0.00     0.006 C 
ATOM     18  C   UNL     1      -2.179  -2.794  -0.387  1.00  0.00     0.154 C 
ATOM     19  C   UNL     1      -1.097  -0.036   0.042  1.00  0.00     0.028 C 
ATOM     20  O   UNL     1      -1.487  -3.545   0.583  1.00  0.00    -0.366 OA
ATOM     21  C   UNL     1      -0.737  -2.559  -0.096  1.00  0.00     0.180 C 
ATOM     22  C   UNL     1      -0.299   0.327  -1.315  1.00  0.00     0.126 C 
ATOM     23  C   UNL     1      -0.420  -1.287   0.752  1.00  0.00     0.104 C 
ATOM     24  C   UNL     1       1.079  -0.363  -1.491  1.00  0.00     0.064 C 
ATOM     25  C   UNL     1       1.132  -1.123   0.923  1.00  0.00     0.071 C 
ATOM     26  C   UNL     1      -5.695  -0.974   1.837  1.00  0.00     0.012 C 
ATOM     27  C   UNL     1      -0.934   1.171   1.022  1.00  0.00     0.017 C 
BRANCH   9  28
ATOM     28  C   UNL     1      -8.382  -1.110  -0.005  1.00  0.00     0.033 C 
ATOM     29  C   UNL     1      -8.898  -1.605   1.374  1.00  0.00     0.012 C 
BRANCH  28  30
ATOM     30  C   UNL     1      -8.631   0.422  -0.150  1.00  0.00     0.184 C 
ATOM     31  C   UNL     1     -10.406   2.248  -0.253  1.00  0.00    -0.059 C 
ATOM     32  C   UNL     1      -9.587   3.039   0.505  1.00  0.00     0.033 C 
ATOM     33  C   UNL     1     -10.128   0.757  -0.346  1.00  0.00     0.076 C 
ATOM     34  C   UNL     1      -8.418   2.400   1.175  1.00  0.00     0.333 C 
ATOM     35  O   UNL     1      -7.734   3.028   1.968  1.00  0.00    -0.247 OA
ATOM     36  O   UNL     1      -8.134   1.097   0.945  1.00  0.00    -0.458 OA
ATOM     37  C   UNL     1     -11.663   2.714  -0.956  1.00  0.00     0.040 C 
ATOM     38  C   UNL     1      -9.798   4.518   0.764  1.00  0.00     0.052 C 
ENDBRANCH  28  30
ENDBRANCH   9  28
BRANCH  10  39
ATOM     39  O   UNL     1      -7.582  -3.956   0.030  1.00  0.00    -0.393 OA
ATOM     40  H   UNL     1      -7.287  -4.211   0.942  1.00  0.00     0.210 HD
ENDBRANCH  10  39
BRANCH  22  41
ATOM     41  O   UNL     1      -1.027   0.140  -2.504  1.00  0.00    -0.392 OA
ATOM     42  H   UNL     1      -1.100  -0.838  -2.665  1.00  0.00     0.210 HD
ENDBRANCH  22  41
BRANCH  23  43
ATOM     43  O   UNL     1      -0.960  -1.448   2.050  1.00  0.00    -0.386 OA
ATOM     44  H   UNL     1      -0.490  -2.201   2.497  1.00  0.00     0.211 HD
ENDBRANCH  23  43
ENDBRANCH   7   8
ENDBRANCH   1   7
BRANCH   6  45
ATOM     45  O   UNL     1       4.484  -0.480  -2.840  1.00  0.00    -0.385 OA
ATOM     46  H   UNL     1       4.247   0.470  -3.009  1.00  0.00     0.211 HD
ENDBRANCH   6  45
BRANCH   3  47
ATOM     47  C   UNL     1       6.585   0.656   2.256  1.00  0.00     0.191 C 
BRANCH  47  48
ATOM     48  O   UNL     1       7.676   1.524   2.397  1.00  0.00    -0.394 OA
ATOM     49  H   UNL     1       8.251   1.147   3.112  1.00  0.00     0.210 HD
ENDBRANCH  47  48
ENDBRANCH   3  47
BRANCH   5  50
ATOM     50  O   UNL     1       7.309  -0.182  -2.604  1.00  0.00    -0.387 OA
ATOM     51  H   UNL     1       7.487  -1.143  -2.430  1.00  0.00     0.211 HD
ENDBRANCH   5  50
BRANCH   4  52
ATOM     52  O   UNL     1       8.248   1.024  -0.180  1.00  0.00    -0.341 OA
BRANCH  52  53
ATOM     53  C   UNL     1       9.421   0.240  -0.376  1.00  0.00     0.282 C 
ATOM     54  O   UNL     1      10.029   0.044   0.908  1.00  0.00    -0.344 OA
ATOM     55  C   UNL     1      10.366   0.937  -1.416  1.00  0.00     0.202 C 
ATOM     56  C   UNL     1      11.388  -0.310   0.775  1.00  0.00     0.150 C 
ATOM     57  C   UNL     1      11.380   1.812  -0.668  1.00  0.00     0.179 C 
ATOM     58  C   UNL     1      12.224   0.913   0.280  1.00  0.00     0.174 C 
ATOM     59  C   UNL     1      11.912  -0.912   2.080  1.00  0.00     0.041 C 
BRANCH  55  60
ATOM     60  O   UNL     1       9.638   1.650  -2.389  1.00  0.00    -0.385 OA
ATOM     61  H   UNL     1       9.290   2.476  -1.962  1.00  0.00     0.211 HD
ENDBRANCH  55  60
BRANCH  57  62
ATOM     62  O   UNL     1      12.206   2.551  -1.531  1.00  0.00    -0.387 OA
ATOM     63  H   UNL     1      12.646   1.908  -2.144  1.00  0.00     0.211 HD
ENDBRANCH  57  62
BRANCH  58  64
ATOM     64  O   UNL     1      12.753   1.692   1.324  1.00  0.00    -0.388 OA
ATOM     65  H   UNL     1      11.991   2.010   1.873  1.00  0.00     0.211 HD
ENDBRANCH  58  64
ENDBRANCH  52  53
ENDBRANCH   4  52
TORSDOF 16
