REMARK SMILES CO[C@@H]1C[C@H](O[C@H]2[C@@H](O)C[C@H](O[C@H]3[C@H](C)O[C@H](O[C@@H]4CC5=CC[C@H]6C(=O)O[C@@H]7CO[C@]8(C)OC=C(CC[C@@H]6[C@@]5(C)C[C@H]4O)[C@H]78)C[C@H]3OC)O[C@@H]2C)O[C@@H](C)[C@@H]1O
REMARK SMILES IDX 13 1 14 2 15 3 16 4 17 5 45 6 46 7 12 8 11 9 7 10 8 11 50 12
REMARK SMILES IDX 10 13 49 14 51 15 6 16 5 17 3 18 4 19 55 20 53 21 52 22
REMARK SMILES IDX 54 23 2 24 1 25 56 26 9 28 47 30 48 31 18 32 19 33 20 34
REMARK SMILES IDX 42 35 21 36 41 37 22 38 39 39 23 40 38 41 24 42 40 43 43 44
REMARK SMILES IDX 37 46 36 47 25 49 26 50 27 51 28 52 29 53 44 54 30 55 35 56
REMARK SMILES IDX 31 57 34 58 33 59 32 60
REMARK H PARENT 56 27 9 29 43 45
REMARK Flexibility Score:  244.900
ROOT
ATOM      1  C   UNL     1       2.229  -0.756   0.550  1.00  0.00     0.179 C 
ATOM      2  C   UNL     1       1.411  -0.868  -0.763  1.00  0.00     0.150 C 
ATOM      3  C   UNL     1       1.276   0.487  -1.457  1.00  0.00     0.041 C 
ATOM      4  O   UNL     1       0.142  -1.510  -0.664  1.00  0.00    -0.347 OA
ATOM      5  C   UNL     1      -0.507  -1.489   0.599  1.00  0.00     0.253 C 
ATOM      6  C   UNL     1       0.400  -1.757   1.828  1.00  0.00     0.097 C 
ATOM      7  C   UNL     1       1.871  -1.927   1.454  1.00  0.00     0.154 C 
ENDROOT
BRANCH   1   8
ATOM      8  O   UNL     1       3.610  -0.836   0.237  1.00  0.00    -0.344 OA
BRANCH   8   9
ATOM      9  C   UNL     1       4.370   0.331   0.501  1.00  0.00     0.253 C 
ATOM     10  C   UNL     1       7.064  -0.482  -0.193  1.00  0.00     0.179 C 
ATOM     11  C   UNL     1       6.403  -1.006   1.093  1.00  0.00     0.151 C 
ATOM     12  C   UNL     1       5.980  -0.097  -1.230  1.00  0.00     0.150 C 
ATOM     13  C   UNL     1       5.398   0.035   1.604  1.00  0.00     0.096 C 
ATOM     14  O   UNL     1       4.995   0.794  -0.696  1.00  0.00    -0.347 OA
ATOM     15  C   UNL     1       5.364  -1.307  -1.960  1.00  0.00     0.041 C 
BRANCH  10  16
ATOM     16  O   UNL     1       7.833   0.683   0.097  1.00  0.00    -0.344 OA
BRANCH  16  17
ATOM     17  C   UNL     1       9.186   0.546  -0.310  1.00  0.00     0.253 C 
ATOM     18  C   UNL     1      11.280   1.921  -0.894  1.00  0.00     0.154 C 
ATOM     19  C   UNL     1       9.737   1.931  -0.717  1.00  0.00     0.097 C 
ATOM     20  C   UNL     1      11.796   0.470  -0.901  1.00  0.00     0.172 C 
ATOM     21  C   UNL     1      11.317  -0.235   0.413  1.00  0.00     0.149 C 
ATOM     22  O   UNL     1       9.944  -0.008   0.750  1.00  0.00    -0.347 OA
ATOM     23  C   UNL     1      11.585  -1.739   0.361  1.00  0.00     0.041 C 
BRANCH  18  24
ATOM     24  O   UNL     1      11.873   2.612   0.199  1.00  0.00    -0.378 OA
ATOM     25  C   UNL     1      12.632   3.711  -0.256  1.00  0.00     0.195 C 
ENDBRANCH  18  24
BRANCH  20  26
ATOM     26  O   UNL     1      13.194   0.411  -1.055  1.00  0.00    -0.388 OA
ATOM     27  H   UNL     1      13.609   0.787  -0.236  1.00  0.00     0.211 HD
ENDBRANCH  20  26
ENDBRANCH  16  17
ENDBRANCH  10  16
BRANCH  11  28
ATOM     28  O   UNL     1       7.363  -1.325   2.070  1.00  0.00    -0.390 OA
ATOM     29  H   UNL     1       7.773  -0.478   2.387  1.00  0.00     0.211 HD
ENDBRANCH  11  28
ENDBRANCH   8   9
ENDBRANCH   1   8
BRANCH   7  30
ATOM     30  O   UNL     1       2.074  -3.152   0.763  1.00  0.00    -0.378 OA
ATOM     31  C   UNL     1       2.692  -4.099   1.606  1.00  0.00     0.195 C 
ENDBRANCH   7  30
BRANCH   5  32
ATOM     32  O   UNL     1      -1.184  -0.252   0.758  1.00  0.00    -0.346 OA
BRANCH  32  33
ATOM     33  C   UNL     1      -2.590  -0.373   0.601  1.00  0.00     0.154 C 
ATOM     34  C   UNL     1      -2.968  -0.372  -0.890  1.00  0.00     0.066 C 
ATOM     35  C   UNL     1      -3.252   0.830   1.309  1.00  0.00     0.144 C 
ATOM     36  C   UNL     1      -4.487  -0.353  -1.048  1.00  0.00    -0.065 C 
ATOM     37  C   UNL     1      -4.788   0.783   1.154  1.00  0.00     0.046 C 
ATOM     38  C   UNL     1      -5.061  -1.292  -1.811  1.00  0.00    -0.026 C 
ATOM     39  C   UNL     1      -5.279   0.748  -0.329  1.00  0.00    -0.005 C 
ATOM     40  C   UNL     1      -6.525  -1.393  -2.064  1.00  0.00     0.043 C 
ATOM     41  C   UNL     1      -6.871   0.472  -0.293  1.00  0.00     0.014 C 
ATOM     42  C   UNL     1      -7.389  -0.182  -1.611  1.00  0.00     0.107 C 
ATOM     43  C   UNL     1      -4.887   2.073  -1.058  1.00  0.00     0.016 C 
BRANCH  35  44
ATOM     44  O   UNL     1      -2.902   0.854   2.671  1.00  0.00    -0.390 OA
ATOM     45  H   UNL     1      -3.208   0.001   3.079  1.00  0.00     0.211 HD
ENDBRANCH  35  44
BRANCH  41  46
ATOM     46  C   UNL     1      -7.646   1.798   0.134  1.00  0.00     0.010 C 
BRANCH  46  47
ATOM     47  C   UNL     1      -9.113   2.176  -0.205  1.00  0.00     0.035 CG0
ATOM     48  G   UNL     1     -10.327   1.579   0.477  1.00  0.00     0.000 G0
ENDBRANCH  46  47
ENDBRANCH  41  46
BRANCH  42  49
ATOM     49  C   UNL     1      -8.768  -0.770  -1.351  1.00  0.00     0.309 C 
ATOM     50  O   UNL     1      -8.845  -1.728  -0.585  1.00  0.00    -0.252 OA
BRANCH  49  51
ATOM     51  O   UNL     1      -9.914  -0.176  -1.776  1.00  0.00    -0.459 OA
BRANCH  51  52
ATOM     52  C   UNL     1     -11.057  -0.341  -1.005  1.00  0.00     0.216 C 
ATOM     53  C   UNL     1     -12.258   0.468  -1.423  1.00  0.00     0.211 C 
ATOM     54  C   UNL     1     -10.845   0.178   0.394  1.00  0.00     0.134 C 
ATOM     55  O   UNL     1     -13.115   0.484  -0.290  1.00  0.00    -0.336 OA
ATOM     56  C   UNL     1     -10.327   1.579   0.477  1.00  0.00    -0.022 CG0
ATOM     57  C   UNL     1     -12.283   0.368   0.869  1.00  0.00     0.217 C 
ATOM     58  C   UNL     1     -11.191   2.289   1.191  1.00  0.00     0.190 C 
ATOM     59  O   UNL     1     -12.272   1.572   1.540  1.00  0.00    -0.469 OA
ATOM     60  C   UNL     1     -12.768  -0.779   1.757  1.00  0.00     0.091 C 
ATOM     61  G   UNL     1      -9.113   2.176  -0.205  1.00  0.00     0.000 G0
ENDBRANCH  51  52
ENDBRANCH  49  51
ENDBRANCH  42  49
ENDBRANCH  32  33
ENDBRANCH   5  32
TORSDOF 11
