REMARK SMILES Cc1cc(=O)c2c(O)c3c(cc2o1)OC(C)(C)[C@@H]1OC(=O)[C@@]2(O[C@@H]2CCc2cc(N)nc(-c4cc(N)nc(C[N+]5=CC6=NC=CC6=C5)c4)c2)[C@@H]2C=C[C@@H](CC2)[C@H]31
REMARK SMILES IDX 25 1 24 2 22 3 23 4 50 6 53 7 52 8 54 9 51 10 55 11 56 12
REMARK SMILES IDX 2 13 3 14 13 15 4 16 12 17 5 18 6 19 11 20 7 21 10 22 9 23
REMARK SMILES IDX 14 24 15 25 18 26 1 27 16 28 17 29 8 30 19 32 20 33 21 34
REMARK SMILES IDX 26 36 27 37 28 38 49 39 29 40 32 41 31 42 30 43 33 46 34 47
REMARK SMILES IDX 48 48 35 49 38 50 37 51 36 52 39 55 40 56 41 57 47 58 42 59
REMARK SMILES IDX 46 60 43 61 45 62 44 63
REMARK H PARENT 8 31 30 44 30 45 36 53 36 54
REMARK Flexibility Score:  239.900
ROOT
ATOM      1  C   UNL     1       1.095  -0.770  -0.125  1.00  0.00     0.040 C 
ENDROOT
BRANCH   1   2
ATOM      2  C   UNL     1       0.453  -1.732   0.880  1.00  0.00     0.164 C 
ATOM      3  C   UNL     1      -0.714  -1.255   1.646  1.00  0.00     0.197 CG0
ATOM      4  O   UNL     1       0.558  -1.333   2.244  1.00  0.00    -0.353 OA
ATOM      5  G   UNL     1      -1.277   0.131   1.448  1.00  0.00     0.000 G0
BRANCH   3   6
ATOM      6  C   UNL     1      -1.760  -2.326   2.027  1.00  0.00     0.058 C 
ATOM      7  C   UNL     1      -4.635  -1.659   1.670  1.00  0.00     0.023 C 
ATOM      8  C   UNL     1      -3.841  -2.287   0.563  1.00  0.00    -0.027 C 
ATOM      9  C   UNL     1      -4.084  -2.169   3.038  1.00  0.00     0.009 C 
ATOM     10  C   UNL     1      -2.544  -2.603   0.736  1.00  0.00    -0.024 C 
ATOM     11  C   UNL     1      -2.629  -1.784   3.211  1.00  0.00     0.012 C 
BRANCH   7  12
ATOM     12  C   UNL     1      -4.861  -0.068   1.561  1.00  0.00     0.079 C 
ATOM     13  C   UNL     1     -10.990   0.821  -0.603  1.00  0.00     0.105 A 
ATOM     14  C   UNL     1     -11.100  -0.083   0.452  1.00  0.00     0.095 A 
ATOM     15  O   UNL     1      -9.804   1.317  -0.925  1.00  0.00    -0.461 OA
ATOM     16  C   UNL     1      -9.956  -0.462   1.154  1.00  0.00     0.196 A 
ATOM     17  C   UNL     1      -8.680   0.988  -0.294  1.00  0.00     0.145 A 
ATOM     18  O   UNL     1     -10.089  -1.259   2.062  1.00  0.00    -0.289 OA
ATOM     19  C   UNL     1      -8.688   0.072   0.788  1.00  0.00     0.107 A 
ATOM     20  C   UNL     1      -7.494   1.576  -0.713  1.00  0.00     0.094 A 
ATOM     21  C   UNL     1      -7.441  -0.249   1.422  1.00  0.00     0.137 A 
ATOM     22  C   UNL     1      -6.280   1.248  -0.120  1.00  0.00     0.131 A 
ATOM     23  C   UNL     1      -6.220   0.306   0.929  1.00  0.00     0.044 A 
ATOM     24  O   UNL     1      -5.175   1.883  -0.565  1.00  0.00    -0.483 OA
ATOM     25  C   UNL     1      -3.898   1.388  -0.445  1.00  0.00     0.141 C 
ATOM     26  C   UNL     1      -3.661   0.832   0.994  1.00  0.00     0.228 C 
ATOM     27  C   UNL     1     -12.194   1.243  -1.386  1.00  0.00     0.088 C 
ATOM     28  C   UNL     1      -3.699   0.324  -1.548  1.00  0.00     0.060 C 
ATOM     29  C   UNL     1      -2.913   2.543  -0.706  1.00  0.00     0.060 C 
BRANCH  21  30
ATOM     30  O   UNL     1      -7.364  -1.061   2.504  1.00  0.00    -0.507 OA
ATOM     31  H   UNL     1      -8.081  -1.491   2.976  1.00  0.00     0.293 HD
ENDBRANCH  21  30
BRANCH  26  32
ATOM     32  O   UNL     1      -2.513   0.086   0.916  1.00  0.00    -0.455 OA
BRANCH  32  33
ATOM     33  C   UNL     1      -1.277   0.131   1.448  1.00  0.00     0.342 CG0
ATOM     34  O   UNL     1      -0.810   1.138   1.956  1.00  0.00    -0.249 OA
ATOM     35  G   UNL     1      -0.714  -1.255   1.646  1.00  0.00     0.000 G0
ENDBRANCH  32  33
ENDBRANCH  26  32
ENDBRANCH   7  12
ENDBRANCH   3   6
ENDBRANCH   1   2
BRANCH   1  36
ATOM     36  C   UNL     1       2.327  -1.453  -0.720  1.00  0.00     0.038 C 
BRANCH  36  37
ATOM     37  C   UNL     1       3.053  -0.567  -1.697  1.00  0.00    -0.042 A 
ATOM     38  C   UNL     1       2.597  -0.388  -3.009  1.00  0.00     0.050 A 
ATOM     39  C   UNL     1       4.223   0.072  -1.286  1.00  0.00     0.033 A 
ATOM     40  C   UNL     1       3.335   0.416  -3.887  1.00  0.00     0.124 A 
ATOM     41  C   UNL     1       4.933   0.899  -2.174  1.00  0.00     0.073 A 
ATOM     42  N   UNL     1       4.466   1.034  -3.448  1.00  0.00    -0.231 NA
BRANCH  40  43
ATOM     43  N   UNL     1       2.925   0.580  -5.232  1.00  0.00    -0.384 N 
ATOM     44  H   UNL     1       2.085   0.103  -5.592  1.00  0.00     0.158 HD
ATOM     45  H   UNL     1       3.483   1.159  -5.877  1.00  0.00     0.158 HD
ENDBRANCH  40  43
BRANCH  41  46
ATOM     46  C   UNL     1       6.177   1.622  -1.763  1.00  0.00     0.006 A 
ATOM     47  C   UNL     1       6.875   2.410  -2.696  1.00  0.00     0.057 A 
ATOM     48  C   UNL     1       6.690   1.546  -0.450  1.00  0.00     0.041 A 
ATOM     49  C   UNL     1       8.044   3.083  -2.314  1.00  0.00     0.124 A 
ATOM     50  C   UNL     1       7.856   2.230  -0.107  1.00  0.00     0.108 A 
ATOM     51  N   UNL     1       8.504   2.976  -1.040  1.00  0.00    -0.230 NA
BRANCH  49  52
ATOM     52  N   UNL     1       8.753   3.873  -3.248  1.00  0.00    -0.384 N 
ATOM     53  H   UNL     1       8.425   3.967  -4.220  1.00  0.00     0.158 HD
ATOM     54  H   UNL     1       9.614   4.363  -2.963  1.00  0.00     0.158 HD
ENDBRANCH  49  52
BRANCH  50  55
ATOM     55  C   UNL     1       8.411   2.124   1.286  1.00  0.00     0.413 C 
BRANCH  55  56
ATOM     56  N   UNL     1       9.316   0.992   1.373  1.00  0.00    -0.196 N 
ATOM     57  C   UNL     1      10.568   1.075   1.682  1.00  0.00     0.337 C 
ATOM     58  C   UNL     1       8.944  -0.374   1.131  1.00  0.00     0.319 C 
ATOM     59  C   UNL     1      11.083  -0.276   1.646  1.00  0.00     0.140 C 
ATOM     60  C   UNL     1      10.026  -1.116   1.298  1.00  0.00     0.072 C 
ATOM     61  N   UNL     1      12.199  -0.866   1.840  1.00  0.00    -0.250 NA
ATOM     62  C   UNL     1      10.575  -2.450   1.269  1.00  0.00     0.037 C 
ATOM     63  C   UNL     1      11.919  -2.250   1.610  1.00  0.00     0.113 C 
ENDBRANCH  55  56
ENDBRANCH  50  55
ENDBRANCH  41  46
ENDBRANCH  36  37
ENDBRANCH   1  36
TORSDOF 9
