REMARK SMILES C[C@@H]1O[C@H](O[C@H]2[C@@H](O)[C@@H](O)[C@H](O[C@H]3CC[C@@]4(C)C(=CC[C@@H]5[C@H]4CC[C@@]4(C)[C@@H]5C[C@@H]5O[C@@]6(C[C@@H](O)[C@@](C)(O)CO6)[C@H](C)[C@@]54O)C3)O[C@@H]2CO)[C@@H](O)[C@@H](O)[C@@H]1O
REMARK SMILES IDX 6 1 46 2 45 3 11 4 9 5 7 6 5 7 4 8 2 9 3 10 53 11 51 12
REMARK SMILES IDX 49 13 1 14 54 15 52 17 50 19 47 21 48 22 8 24 10 26 12 28
REMARK SMILES IDX 13 29 14 30 44 31 15 32 18 33 16 34 19 35 22 36 20 37 21 38
REMARK SMILES IDX 23 39 27 40 24 41 25 42 28 43 42 44 29 45 40 46 30 47 31 48
REMARK SMILES IDX 32 49 39 50 33 51 38 52 35 53 17 54 26 55 41 56 36 57 43 58
REMARK SMILES IDX 34 60 37 62
REMARK H PARENT 54 16 52 18 50 20 48 23 8 25 10 27 43 59 34 61 37 63
ROOT
ATOM      1  C   UNL     1       7.028   0.340  -0.964  1.00  0.00     0.184 C 
ATOM      2  C   UNL     1       6.175  -0.647  -1.801  1.00  0.00     0.178 C 
ATOM      3  O   UNL     1       5.041  -1.045  -1.049  1.00  0.00    -0.341 OA
ATOM      4  C   UNL     1       4.178   0.029  -0.712  1.00  0.00     0.282 C 
ATOM      5  C   UNL     1       4.923   1.154   0.051  1.00  0.00     0.202 C 
ATOM      6  C   UNL     1       6.203   1.599  -0.666  1.00  0.00     0.180 C 
ENDROOT
BRANCH   1   7
ATOM      7  O   UNL     1       8.228   0.713  -1.631  1.00  0.00    -0.341 OA
BRANCH   7   8
ATOM      8  C   UNL     1       9.370   0.620  -0.785  1.00  0.00     0.282 C 
ATOM      9  C   UNL     1      11.299  -0.657  -0.411  1.00  0.00     0.150 C 
ATOM     10  O   UNL     1      10.186  -0.442  -1.266  1.00  0.00    -0.344 OA
ATOM     11  C   UNL     1      12.231   0.592  -0.399  1.00  0.00     0.174 C 
ATOM     12  C   UNL     1      11.435   1.851   0.024  1.00  0.00     0.179 C 
ATOM     13  C   UNL     1      10.146   1.956  -0.829  1.00  0.00     0.202 C 
ATOM     14  C   UNL     1      12.052  -1.901  -0.889  1.00  0.00     0.041 C 
BRANCH  11  15
ATOM     15  O   UNL     1      12.832   0.800  -1.659  1.00  0.00    -0.388 OA
ATOM     16  H   UNL     1      12.137   0.737  -2.362  1.00  0.00     0.211 HD
ENDBRANCH  11  15
BRANCH  12  17
ATOM     17  O   UNL     1      11.147   1.849   1.407  1.00  0.00    -0.387 OA
ATOM     18  H   UNL     1      10.741   0.988   1.670  1.00  0.00     0.211 HD
ENDBRANCH  12  17
BRANCH  13  19
ATOM     19  O   UNL     1       9.354   3.042  -0.417  1.00  0.00    -0.385 OA
ATOM     20  H   UNL     1       9.024   2.846   0.498  1.00  0.00     0.211 HD
ENDBRANCH  13  19
ENDBRANCH   7   8
ENDBRANCH   1   7
BRANCH   2  21
ATOM     21  C   UNL     1       6.954  -1.934  -2.121  1.00  0.00     0.191 C 
BRANCH  21  22
ATOM     22  O   UNL     1       8.066  -1.675  -2.933  1.00  0.00    -0.394 OA
ATOM     23  H   UNL     1       7.724  -1.581  -3.860  1.00  0.00     0.210 HD
ENDBRANCH  21  22
ENDBRANCH   2  21
BRANCH   6  24
ATOM     24  O   UNL     1       5.958   2.355  -1.832  1.00  0.00    -0.387 OA
ATOM     25  H   UNL     1       5.252   1.916  -2.368  1.00  0.00     0.211 HD
ENDBRANCH   6  24
BRANCH   5  26
ATOM     26  O   UNL     1       4.083   2.241   0.344  1.00  0.00    -0.385 OA
ATOM     27  H   UNL     1       3.711   2.574  -0.514  1.00  0.00     0.211 HD
ENDBRANCH   5  26
BRANCH   4  28
ATOM     28  O   UNL     1       3.267  -0.498   0.218  1.00  0.00    -0.346 OA
BRANCH  28  29
ATOM     29  C   UNL     1       1.905  -0.440  -0.130  1.00  0.00     0.125 C 
ATOM     30  C   UNL     1       1.427  -1.874  -0.372  1.00  0.00     0.033 C 
ATOM     31  C   UNL     1       1.206   0.261   1.045  1.00  0.00     0.063 C 
ATOM     32  C   UNL     1      -0.098  -1.885  -0.553  1.00  0.00     0.014 C 
ATOM     33  C   UNL     1      -0.259  -0.056   1.216  1.00  0.00    -0.065 C 
ATOM     34  C   UNL     1      -0.838  -1.379   0.722  1.00  0.00    -0.008 C 
ATOM     35  C   UNL     1      -0.985   0.760   2.014  1.00  0.00    -0.027 C 
ATOM     36  C   UNL     1      -2.372  -1.182   0.444  1.00  0.00     0.003 C 
ATOM     37  C   UNL     1      -2.446   0.564   2.343  1.00  0.00     0.031 C 
ATOM     38  C   UNL     1      -3.085  -0.723   1.742  1.00  0.00     0.000 C 
ATOM     39  C   UNL     1      -2.664  -0.228  -0.772  1.00  0.00     0.005 C 
ATOM     40  C   UNL     1      -4.614  -0.655   1.484  1.00  0.00     0.004 C 
ATOM     41  C   UNL     1      -3.846   0.748  -0.565  1.00  0.00     0.010 C 
ATOM     42  C   UNL     1      -5.056   0.131   0.195  1.00  0.00     0.003 C 
ATOM     43  C   UNL     1      -5.445  -0.117   2.649  1.00  0.00     0.040 C 
ATOM     44  C   UNL     1      -6.033   1.251   0.786  1.00  0.00     0.104 C 
ATOM     45  C   UNL     1      -6.629   0.582   2.006  1.00  0.00     0.155 C 
ATOM     46  C   UNL     1      -7.352   1.668   0.139  1.00  0.00     0.081 C 
ATOM     47  O   UNL     1      -7.646  -0.264   1.512  1.00  0.00    -0.343 OA
ATOM     48  C   UNL     1      -8.312   0.498   0.502  1.00  0.00     0.176 C 
ATOM     49  C   UNL     1      -9.643   1.038   1.139  1.00  0.00     0.101 C 
ATOM     50  O   UNL     1      -8.523  -0.376  -0.620  1.00  0.00    -0.346 OA
ATOM     51  C   UNL     1     -10.610  -0.146   1.210  1.00  0.00     0.153 C 
ATOM     52  C   UNL     1      -9.802  -0.220  -1.206  1.00  0.00     0.201 C 
ATOM     53  C   UNL     1     -10.943  -0.639  -0.238  1.00  0.00     0.111 C 
ATOM     54  C   UNL     1      -0.608  -2.427   1.859  1.00  0.00     0.016 C 
ATOM     55  C   UNL     1      -5.696  -0.910  -0.775  1.00  0.00     0.015 C 
ATOM     56  C   UNL     1      -7.326   2.181  -1.308  1.00  0.00     0.016 C 
ATOM     57  C   UNL     1     -11.114  -2.171  -0.240  1.00  0.00     0.047 C 
BRANCH  44  58
ATOM     58  O   UNL     1      -5.301   2.377   1.226  1.00  0.00    -0.386 OA
ATOM     59  H   UNL     1      -5.170   2.973   0.444  1.00  0.00     0.211 HD
ENDBRANCH  44  58
BRANCH  51  60
ATOM     60  O   UNL     1     -11.764   0.127   1.965  1.00  0.00    -0.390 OA
ATOM     61  H   UNL     1     -12.092   1.026   1.705  1.00  0.00     0.211 HD
ENDBRANCH  51  60
BRANCH  53  62
ATOM     62  O   UNL     1     -12.117  -0.026  -0.723  1.00  0.00    -0.385 OA
ATOM     63  H   UNL     1     -12.890  -0.375  -0.206  1.00  0.00     0.211 HD
ENDBRANCH  53  62
ENDBRANCH  28  29
ENDBRANCH   4  28
TORSDOF 14
