REMARK SMILES C[C@@H]1CC[C@@]2(OC1)O[C@H]1C[C@H]3[C@@H]4CC[C@H]5C[C@@H](O[C@@H]6O[C@@H](CO)[C@H](O)[C@H](O)[C@@H]6O)CC[C@]5(C)[C@H]4CC(=O)[C@]3(C)[C@H]1[C@@H]2C
REMARK SMILES IDX 19 1 20 2 21 3 24 4 26 5 28 6 18 7 17 8 2 9 3 10 7 11 4 12
REMARK SMILES IDX 6 13 5 14 8 15 41 16 9 17 40 18 10 19 38 20 11 21 36 22
REMARK SMILES IDX 12 23 35 24 37 25 13 26 34 27 14 28 32 29 15 30 31 31 16 32
REMARK SMILES IDX 30 33 1 34 42 35 39 36 33 37 29 38 22 40 23 41 27 43 25 45
REMARK H PARENT 29 39 23 42 27 44 25 46
ROOT
ATOM      1  C   UNL     1       6.570  -0.374  -0.222  1.00  0.00     0.282 C 
ATOM      2  O   UNL     1       7.220  -0.703  -1.439  1.00  0.00    -0.341 OA
ATOM      3  C   UNL     1       8.578  -0.339  -1.646  1.00  0.00     0.178 C 
ATOM      4  C   UNL     1       9.453  -0.113  -0.378  1.00  0.00     0.177 C 
ATOM      5  C   UNL     1       8.859  -0.775   0.874  1.00  0.00     0.179 C 
ATOM      6  C   UNL     1       7.467  -0.154   1.026  1.00  0.00     0.202 C 
ENDROOT
BRANCH   1   7
ATOM      7  O   UNL     1       5.638  -1.421   0.030  1.00  0.00    -0.347 OA
BRANCH   7   8
ATOM      8  C   UNL     1       4.318  -1.031  -0.316  1.00  0.00     0.122 C 
ATOM      9  C   UNL     1      -8.927   2.465   0.129  1.00  0.00     0.012 C 
ATOM     10  C   UNL     1      -8.533   1.708   1.400  1.00  0.00     0.011 C 
ATOM     11  C   UNL     1      -7.638   2.848  -0.622  1.00  0.00     0.167 C 
ATOM     12  C   UNL     1      -7.705   0.497   0.994  1.00  0.00     0.066 C 
ATOM     13  O   UNL     1      -6.900   1.694  -0.997  1.00  0.00    -0.349 OA
ATOM     14  C   UNL     1      -6.484   0.936   0.141  1.00  0.00     0.171 C 
ATOM     15  O   UNL     1      -5.552   1.678   0.919  1.00  0.00    -0.346 OA
ATOM     16  C   UNL     1      -5.711  -0.303  -0.318  1.00  0.00     0.052 C 
ATOM     17  C   UNL     1      -4.295   1.491   0.285  1.00  0.00     0.126 C 
ATOM     18  C   UNL     1      -4.364   0.297  -0.678  1.00  0.00     0.040 C 
ATOM     19  C   UNL     1      -3.112   1.207   1.223  1.00  0.00     0.037 C 
ATOM     20  C   UNL     1      -3.062  -0.539  -0.418  1.00  0.00     0.035 C 
ATOM     21  C   UNL     1      -2.157   0.527   0.231  1.00  0.00     0.009 C 
ATOM     22  C   UNL     1      -2.314  -1.026  -1.636  1.00  0.00     0.139 C 
ATOM     23  C   UNL     1      -0.813  -0.076   0.705  1.00  0.00    -0.003 C 
ATOM     24  C   UNL     1      -0.951  -1.640  -1.398  1.00  0.00     0.080 C 
ATOM     25  O   UNL     1      -2.747  -0.870  -2.768  1.00  0.00    -0.299 OA
ATOM     26  C   UNL     1       0.059   0.992   1.390  1.00  0.00     0.004 C 
ATOM     27  C   UNL     1      -0.055  -0.674  -0.551  1.00  0.00     0.006 C 
ATOM     28  C   UNL     1       1.404   0.400   1.822  1.00  0.00     0.004 C 
ATOM     29  C   UNL     1       1.331  -1.300  -0.126  1.00  0.00    -0.026 C 
ATOM     30  C   UNL     1       2.143  -0.164   0.595  1.00  0.00    -0.002 C 
ATOM     31  C   UNL     1       2.149  -1.743  -1.381  1.00  0.00     0.010 C 
ATOM     32  C   UNL     1       3.570  -0.609   0.958  1.00  0.00     0.036 C 
ATOM     33  C   UNL     1       3.591  -2.177  -1.028  1.00  0.00     0.033 C 
ATOM     34  C   UNL     1      -9.770   3.696   0.470  1.00  0.00     0.010 C 
ATOM     35  C   UNL     1      -6.327  -1.132  -1.452  1.00  0.00     0.014 C 
ATOM     36  C   UNL     1      -3.325  -1.774   0.520  1.00  0.00     0.020 C 
ATOM     37  C   UNL     1       1.118  -2.550   0.792  1.00  0.00     0.012 C 
ENDBRANCH   7   8
ENDBRANCH   1   7
BRANCH   6  38
ATOM     38  O   UNL     1       6.825  -0.509   2.226  1.00  0.00    -0.385 OA
ATOM     39  H   UNL     1       6.795  -1.500   2.271  1.00  0.00     0.211 HD
ENDBRANCH   6  38
BRANCH   3  40
ATOM     40  C   UNL     1       8.614   0.859  -2.605  1.00  0.00     0.191 C 
BRANCH  40  41
ATOM     41  O   UNL     1       7.987   1.975  -2.025  1.00  0.00    -0.394 OA
ATOM     42  H   UNL     1       7.022   1.923  -2.258  1.00  0.00     0.210 HD
ENDBRANCH  40  41
ENDBRANCH   3  40
BRANCH   5  43
ATOM     43  O   UNL     1       8.835  -2.183   0.814  1.00  0.00    -0.387 OA
ATOM     44  H   UNL     1       8.335  -2.461   0.009  1.00  0.00     0.211 HD
ENDBRANCH   5  43
BRANCH   4  45
ATOM     45  O   UNL     1      10.793  -0.486  -0.596  1.00  0.00    -0.387 OA
ATOM     46  H   UNL     1      10.812  -1.473  -0.698  1.00  0.00     0.211 HD
ENDBRANCH   4  45
TORSDOF 7
