REMARK SMILES CC1(C)CC[C@]2(C(=O)O[C@@H]3OC[C@H](O)[C@H](O)[C@H]3O)CC[C@@]3(C)C(=CC[C@@H]4[C@@]5(C)CC[C@H](O[C@@H]6OC[C@H](O[C@@H]7O[C@H](CO)[C@@H](O)[C@H](O)[C@H]7O)[C@H](O)[C@H]6O)C(C)(C)[C@H]5CC[C@]43C)[C@@H]2C1
REMARK SMILES IDX 32 1 31 2 2 3 4 4 62 5 5 6 61 7 6 8 23 9 19 10 21 11 24 12
REMARK SMILES IDX 20 13 59 14 25 15 58 16 26 17 57 18 27 19 56 20 29 21 53 22
REMARK SMILES IDX 30 23 1 24 3 25 22 26 60 27 28 28 54 29 55 30 7 31 8 32 9 33
REMARK SMILES IDX 10 34 11 35 17 36 12 37 15 38 13 39 18 40 16 42 14 44 33 46
REMARK SMILES IDX 34 47 51 48 35 49 49 50 36 51 52 52 50 54 37 56 38 57 39 58
REMARK SMILES IDX 47 59 40 60 45 61 43 62 48 63 41 65 42 66 46 68 44 70
REMARK H PARENT 18 41 16 43 14 45 52 53 50 55 48 64 42 67 46 69 44 71
ROOT
ATOM      1  O   UNL     1       3.895  -0.573   0.967  1.00  0.00    -0.346 OA
ENDROOT
BRANCH   1   2
ATOM      2  C   UNL     1       2.836   0.184   0.396  1.00  0.00     0.127 C 
ATOM      3  C   UNL     1      -5.260  -1.155  -3.455  1.00  0.00    -0.035 C 
ATOM      4  C   UNL     1      -6.741  -0.761  -3.135  1.00  0.00     0.007 C 
ATOM      5  C   UNL     1      -4.312  -0.857  -2.245  1.00  0.00     0.015 C 
ATOM      6  C   UNL     1      -6.797   0.353  -2.089  1.00  0.00     0.020 C 
ATOM      7  C   UNL     1      -5.008  -1.120  -0.898  1.00  0.00     0.033 C 
ATOM      8  C   UNL     1      -6.296  -0.178  -0.697  1.00  0.00     0.075 C 
ATOM      9  C   UNL     1      -3.974  -1.075   0.222  1.00  0.00    -0.063 C 
ATOM     10  C   UNL     1      -6.067   1.057   0.244  1.00  0.00     0.020 C 
ATOM     11  C   UNL     1      -3.869   0.103   1.182  1.00  0.00    -0.006 C 
ATOM     12  C   UNL     1      -3.124  -2.116   0.366  1.00  0.00    -0.027 C 
ATOM     13  C   UNL     1      -4.609   1.335   0.563  1.00  0.00     0.013 C 
ATOM     14  C   UNL     1      -2.304   0.477   1.534  1.00  0.00    -0.020 C 
ATOM     15  C   UNL     1      -2.020  -2.082   1.393  1.00  0.00     0.032 C 
ATOM     16  C   UNL     1      -1.717   1.656   0.685  1.00  0.00     0.008 C 
ATOM     17  C   UNL     1      -1.313  -0.724   1.205  1.00  0.00     0.006 C 
ATOM     18  C   UNL     1      -0.158   1.734   0.596  1.00  0.00     0.005 C 
ATOM     19  C   UNL     1       0.161  -0.589   1.797  1.00  0.00    -0.025 C 
ATOM     20  C   UNL     1       0.654   0.949   1.686  1.00  0.00     0.003 C 
ATOM     21  C   UNL     1       1.129  -1.543   0.995  1.00  0.00     0.010 C 
ATOM     22  C   UNL     1       2.228   1.125   1.527  1.00  0.00    -0.006 C 
ATOM     23  C   UNL     1       1.829  -0.844  -0.163  1.00  0.00     0.033 C 
ATOM     24  C   UNL     1      -5.228  -2.655  -3.827  1.00  0.00     0.011 C 
ATOM     25  C   UNL     1      -4.736  -0.350  -4.664  1.00  0.00     0.011 C 
ATOM     26  C   UNL     1      -4.679  -0.396   2.439  1.00  0.00     0.017 C 
ATOM     27  C   UNL     1      -2.304   0.963   3.025  1.00  0.00     0.012 C 
ATOM     28  C   UNL     1       0.160  -1.122   3.264  1.00  0.00     0.012 C 
ATOM     29  C   UNL     1       2.905   0.853   2.906  1.00  0.00     0.014 C 
ATOM     30  C   UNL     1       2.610   2.597   1.206  1.00  0.00     0.014 C 
BRANCH   8  31
ATOM     31  C   UNL     1      -7.441  -0.971  -0.048  1.00  0.00     0.315 C 
ATOM     32  O   UNL     1      -7.305  -2.147   0.254  1.00  0.00    -0.252 OA
BRANCH  31  33
ATOM     33  O   UNL     1      -8.593  -0.311   0.266  1.00  0.00    -0.432 OA
BRANCH  33  34
ATOM     34  C   UNL     1      -9.680  -0.846   0.946  1.00  0.00     0.342 C 
ATOM     35  O   UNL     1     -10.836  -0.725   0.140  1.00  0.00    -0.338 OA
ATOM     36  C   UNL     1      -9.870  -0.157   2.335  1.00  0.00     0.214 C 
ATOM     37  C   UNL     1     -11.173   0.634  -0.175  1.00  0.00     0.199 C 
ATOM     38  C   UNL     1     -10.838   1.049   2.246  1.00  0.00     0.180 C 
ATOM     39  C   UNL     1     -10.732   1.713   0.859  1.00  0.00     0.171 C 
BRANCH  36  40
ATOM     40  O   UNL     1     -10.332  -1.055   3.312  1.00  0.00    -0.384 OA
ATOM     41  H   UNL     1     -11.145  -1.495   2.954  1.00  0.00     0.211 HD
ENDBRANCH  36  40
BRANCH  38  42
ATOM     42  O   UNL     1     -10.680   1.944   3.318  1.00  0.00    -0.387 OA
ATOM     43  H   UNL     1      -9.757   2.303   3.292  1.00  0.00     0.211 HD
ENDBRANCH  38  42
BRANCH  39  44
ATOM     44  O   UNL     1      -9.443   2.194   0.539  1.00  0.00    -0.388 OA
ATOM     45  H   UNL     1      -8.832   2.112   1.313  1.00  0.00     0.211 HD
ENDBRANCH  39  44
ENDBRANCH  33  34
ENDBRANCH  31  33
ENDBRANCH   8  31
ENDBRANCH   1   2
BRANCH   1  46
ATOM     46  C   UNL     1       5.144  -0.466   0.328  1.00  0.00     0.281 C 
ATOM     47  O   UNL     1       5.309  -1.575  -0.534  1.00  0.00    -0.347 OA
ATOM     48  C   UNL     1       6.220  -0.457   1.456  1.00  0.00     0.202 C 
ATOM     49  C   UNL     1       6.564  -1.569  -1.221  1.00  0.00     0.198 C 
ATOM     50  C   UNL     1       7.602  -0.954   0.959  1.00  0.00     0.179 C 
ATOM     51  C   UNL     1       7.688  -0.729  -0.548  1.00  0.00     0.179 C 
BRANCH  48  52
ATOM     52  O   UNL     1       6.312   0.837   2.003  1.00  0.00    -0.385 OA
ATOM     53  H   UNL     1       6.686   1.435   1.304  1.00  0.00     0.211 HD
ENDBRANCH  48  52
BRANCH  50  54
ATOM     54  O   UNL     1       7.811  -2.321   1.256  1.00  0.00    -0.387 OA
ATOM     55  H   UNL     1       6.962  -2.819   1.133  1.00  0.00     0.211 HD
ENDBRANCH  50  54
BRANCH  51  56
ATOM     56  O   UNL     1       8.942  -1.164  -1.034  1.00  0.00    -0.341 OA
BRANCH  56  57
ATOM     57  C   UNL     1       9.862  -0.113  -1.275  1.00  0.00     0.282 C 
ATOM     58  O   UNL     1      10.199  -0.143  -2.646  1.00  0.00    -0.341 OA
ATOM     59  C   UNL     1      11.124  -0.339  -0.398  1.00  0.00     0.202 C 
ATOM     60  C   UNL     1      10.936   1.021  -3.021  1.00  0.00     0.178 C 
ATOM     61  C   UNL     1      12.419   0.097  -1.149  1.00  0.00     0.179 C 
ATOM     62  C   UNL     1      12.147   1.318  -2.049  1.00  0.00     0.177 C 
BRANCH  59  63
ATOM     63  O   UNL     1      10.977   0.293   0.851  1.00  0.00    -0.385 OA
ATOM     64  H   UNL     1      10.944   1.272   0.707  1.00  0.00     0.211 HD
ENDBRANCH  59  63
BRANCH  60  65
ATOM     65  C   UNL     1      11.405   0.816  -4.469  1.00  0.00     0.191 C 
BRANCH  65  66
ATOM     66  O   UNL     1      12.050   1.962  -4.955  1.00  0.00    -0.394 OA
ATOM     67  H   UNL     1      11.338   2.639  -5.122  1.00  0.00     0.210 HD
ENDBRANCH  65  66
ENDBRANCH  60  65
BRANCH  61  68
ATOM     68  O   UNL     1      12.926  -0.952  -1.950  1.00  0.00    -0.387 OA
ATOM     69  H   UNL     1      12.183  -1.512  -2.290  1.00  0.00     0.211 HD
ENDBRANCH  61  68
BRANCH  62  70
ATOM     70  O   UNL     1      11.942   2.469  -1.261  1.00  0.00    -0.387 OA
ATOM     71  H   UNL     1      10.974   2.610  -1.115  1.00  0.00     0.211 HD
ENDBRANCH  62  70
ENDBRANCH  56  57
ENDBRANCH  51  56
ENDBRANCH   1  46
TORSDOF 17
