REMARK SMILES C[C@@H]1CC[C@]2(C(=O)O[C@@H]3O[C@H](CO[C@@H]4O[C@H](CO)[C@@H](O)[C@H](O)[C@H]4O)[C@@H](O)[C@H](O)[C@H]3O)CC[C@]3(C)C(=CC[C@@H]4[C@@]5(C)CC[C@H](O[C@@H]6OC[C@H](O)[C@H](O)[C@H]6O)C(C)(C)[C@@H]5CC[C@]43C)[C@@H]2[C@]1(C)O
REMARK SMILES IDX 9 1 10 2 11 3 25 4 27 5 29 6 8 7 6 8 7 9 5 10 2 11 3 12
REMARK SMILES IDX 63 13 4 14 62 15 35 16 31 17 33 18 36 19 32 20 60 21 37 22
REMARK SMILES IDX 59 23 38 24 58 25 39 26 57 27 41 28 54 29 42 30 43 31 1 32
REMARK SMILES IDX 64 33 34 34 61 35 40 36 55 37 56 38 65 39 44 41 45 42 46 43
REMARK SMILES IDX 52 44 47 45 50 46 48 47 53 48 51 50 49 52 30 54 12 56 13 57
REMARK SMILES IDX 14 58 15 59 23 60 16 61 21 62 19 63 24 64 17 66 18 67 22 69
REMARK SMILES IDX 20 71 28 73 26 75
REMARK H PARENT 65 40 53 49 51 51 49 53 30 55 24 65 18 68 22 70 20 72 28 74
REMARK H PARENT 26 76
ROOT
ATOM      1  C   UNL     1      -5.161   1.796   0.188  1.00  0.00     0.342 C 
ATOM      2  O   UNL     1      -5.752   0.596   0.727  1.00  0.00    -0.332 OA
ATOM      3  C   UNL     1      -7.056   0.287   0.227  1.00  0.00     0.180 C 
ATOM      4  C   UNL     1      -7.002   0.267  -1.317  1.00  0.00     0.177 C 
ATOM      5  C   UNL     1      -6.699   1.694  -1.859  1.00  0.00     0.180 C 
ATOM      6  C   UNL     1      -6.071   2.604  -0.774  1.00  0.00     0.214 C 
ENDROOT
BRANCH   1   7
ATOM      7  O   UNL     1      -3.952   1.529  -0.437  1.00  0.00    -0.432 OA
BRANCH   7   8
ATOM      8  C   UNL     1      -2.862   0.993   0.184  1.00  0.00     0.315 C 
ATOM      9  O   UNL     1      -2.996   0.422   1.259  1.00  0.00    -0.252 OA
BRANCH   8  10
ATOM     10  C   UNL     1      -1.442   1.187  -0.388  1.00  0.00     0.077 C 
ATOM     11  C   UNL     1      -2.478  -0.214  -2.650  1.00  0.00     0.018 C 
ATOM     12  C   UNL     1      -2.241   1.295  -2.868  1.00  0.00     0.007 C 
ATOM     13  C   UNL     1      -1.216  -0.914  -2.044  1.00  0.00     0.072 C 
ATOM     14  C   UNL     1      -1.475   1.972  -1.731  1.00  0.00     0.020 C 
ATOM     15  C   UNL     1      -0.746  -0.229  -0.665  1.00  0.00     0.064 C 
ATOM     16  C   UNL     1       0.806  -0.305  -0.389  1.00  0.00    -0.061 C 
ATOM     17  C   UNL     1      -0.682   2.079   0.661  1.00  0.00     0.020 C 
ATOM     18  C   UNL     1       1.515   0.747   0.496  1.00  0.00    -0.006 C 
ATOM     19  C   UNL     1       1.497  -1.420  -0.756  1.00  0.00    -0.026 C 
ATOM     20  C   UNL     1       0.428   1.366   1.431  1.00  0.00     0.013 C 
ATOM     21  C   UNL     1       2.725   0.071   1.360  1.00  0.00    -0.020 C 
ATOM     22  C   UNL     1       2.925  -1.758  -0.421  1.00  0.00     0.032 C 
ATOM     23  C   UNL     1       3.525   1.150   2.178  1.00  0.00     0.008 C 
ATOM     24  C   UNL     1       3.696  -0.647   0.316  1.00  0.00     0.006 C 
ATOM     25  C   UNL     1       4.929   0.714   2.661  1.00  0.00     0.005 C 
ATOM     26  C   UNL     1       5.161  -1.057   0.808  1.00  0.00    -0.025 C 
ATOM     27  C   UNL     1       5.751   0.288   1.417  1.00  0.00     0.003 C 
ATOM     28  C   UNL     1       6.089  -1.534  -0.383  1.00  0.00     0.010 C 
ATOM     29  C   UNL     1       7.319   0.393   1.428  1.00  0.00    -0.006 C 
ATOM     30  C   UNL     1       6.796  -0.370  -1.064  1.00  0.00     0.033 C 
ATOM     31  C   UNL     1       7.816   0.293  -0.086  1.00  0.00     0.127 C 
ATOM     32  C   UNL     1      -2.984  -0.815  -3.981  1.00  0.00     0.011 C 
ATOM     33  C   UNL     1      -1.591  -2.413  -1.771  1.00  0.00     0.043 C 
ATOM     34  C   UNL     1       2.063   1.877  -0.457  1.00  0.00     0.017 C 
ATOM     35  C   UNL     1       2.121  -0.925   2.405  1.00  0.00     0.012 C 
ATOM     36  C   UNL     1       5.133  -2.279   1.788  1.00  0.00     0.012 C 
ATOM     37  C   UNL     1       7.777   1.770   1.977  1.00  0.00     0.014 C 
ATOM     38  C   UNL     1       7.989  -0.668   2.338  1.00  0.00     0.014 C 
BRANCH  13  39
ATOM     39  O   UNL     1      -0.166  -0.793  -2.980  1.00  0.00    -0.389 OA
ATOM     40  H   UNL     1      -0.257  -1.508  -3.661  1.00  0.00     0.211 HD
ENDBRANCH  13  39
BRANCH  31  41
ATOM     41  O   UNL     1       9.038  -0.431  -0.123  1.00  0.00    -0.346 OA
BRANCH  41  42
ATOM     42  C   UNL     1      10.013   0.107  -1.001  1.00  0.00     0.281 C 
ATOM     43  O   UNL     1      10.286  -0.837  -2.044  1.00  0.00    -0.347 OA
ATOM     44  C   UNL     1      11.263   0.521  -0.155  1.00  0.00     0.202 C 
ATOM     45  C   UNL     1      11.346  -1.698  -1.696  1.00  0.00     0.198 C 
ATOM     46  C   UNL     1      12.487   0.510  -1.083  1.00  0.00     0.179 C 
ATOM     47  C   UNL     1      12.690  -0.927  -1.641  1.00  0.00     0.171 C 
BRANCH  44  48
ATOM     48  O   UNL     1      11.067   1.766   0.467  1.00  0.00    -0.385 OA
ATOM     49  H   UNL     1      11.012   2.455  -0.247  1.00  0.00     0.211 HD
ENDBRANCH  44  48
BRANCH  46  50
ATOM     50  O   UNL     1      13.655   1.010  -0.481  1.00  0.00    -0.387 OA
ATOM     51  H   UNL     1      13.734   0.597   0.418  1.00  0.00     0.211 HD
ENDBRANCH  46  50
BRANCH  47  52
ATOM     52  O   UNL     1      13.618  -1.672  -0.889  1.00  0.00    -0.388 OA
ATOM     53  H   UNL     1      13.269  -1.745   0.038  1.00  0.00     0.211 HD
ENDBRANCH  47  52
ENDBRANCH  41  42
ENDBRANCH  31  41
ENDBRANCH   8  10
ENDBRANCH   7   8
ENDBRANCH   1   7
BRANCH   6  54
ATOM     54  O   UNL     1      -7.113   3.179  -0.021  1.00  0.00    -0.384 OA
ATOM     55  H   UNL     1      -6.734   3.960   0.460  1.00  0.00     0.211 HD
ENDBRANCH   6  54
BRANCH   3  56
ATOM     56  C   UNL     1      -7.527  -1.058   0.812  1.00  0.00     0.198 C 
BRANCH  56  57
ATOM     57  O   UNL     1      -8.872  -1.334   0.439  1.00  0.00    -0.347 OA
BRANCH  57  58
ATOM     58  C   UNL     1      -9.817  -0.711   1.305  1.00  0.00     0.282 C 
ATOM     59  O   UNL     1     -10.440  -1.702   2.135  1.00  0.00    -0.341 OA
ATOM     60  C   UNL     1     -10.794   0.195   0.482  1.00  0.00     0.202 C 
ATOM     61  C   UNL     1     -11.757  -2.069   1.748  1.00  0.00     0.178 C 
ATOM     62  C   UNL     1     -12.007   0.482   1.361  1.00  0.00     0.179 C 
ATOM     63  C   UNL     1     -12.729  -0.843   1.678  1.00  0.00     0.177 C 
BRANCH  60  64
ATOM     64  O   UNL     1     -10.167   1.384   0.068  1.00  0.00    -0.385 OA
ATOM     65  H   UNL     1      -9.981   1.932   0.874  1.00  0.00     0.211 HD
ENDBRANCH  60  64
BRANCH  61  66
ATOM     66  C   UNL     1     -11.724  -2.958   0.480  1.00  0.00     0.191 C 
BRANCH  66  67
ATOM     67  O   UNL     1     -13.009  -3.421   0.158  1.00  0.00    -0.394 OA
ATOM     68  H   UNL     1     -13.223  -4.147   0.800  1.00  0.00     0.210 HD
ENDBRANCH  66  67
ENDBRANCH  61  66
BRANCH  62  69
ATOM     69  O   UNL     1     -12.889   1.418   0.791  1.00  0.00    -0.387 OA
ATOM     70  H   UNL     1     -13.125   1.092  -0.116  1.00  0.00     0.211 HD
ENDBRANCH  62  69
BRANCH  63  71
ATOM     71  O   UNL     1     -13.467  -0.694   2.867  1.00  0.00    -0.387 OA
ATOM     72  H   UNL     1     -12.816  -0.614   3.612  1.00  0.00     0.211 HD
ENDBRANCH  63  71
ENDBRANCH  57  58
ENDBRANCH  56  57
ENDBRANCH   3  56
BRANCH   5  73
ATOM     73  O   UNL     1      -5.931   1.639  -3.032  1.00  0.00    -0.387 OA
ATOM     74  H   UNL     1      -5.196   1.001  -2.875  1.00  0.00     0.211 HD
ENDBRANCH   5  73
BRANCH   4  75
ATOM     75  O   UNL     1      -8.133  -0.285  -1.943  1.00  0.00    -0.387 OA
ATOM     76  H   UNL     1      -8.897   0.317  -1.767  1.00  0.00     0.211 HD
ENDBRANCH   4  75
TORSDOF 20
